/*--------------------------------*- C++ -*----------------------------------*\
  =========                 |
  \\      /  F ield         | OpenFOAM: The Open Source CFD Toolbox
   \\    /   O peration     | Website:  https://openfoam.org
    \\  /    A nd           | Version:  6
     \\/     M anipulation  |
\*---------------------------------------------------------------------------*/
FoamFile
{
    version     2.0;
    format      ascii;
    class       volScalarField;
    location    "170";
    object      epsilon;
}
// * * * * * * * * * * * * * * * * * * * * * * * * * * * * * * * * * * * * * //

dimensions      [0 2 -3 0 0 0 0];

internalField   nonuniform List<scalar> 
459
(
0.000288197
0.000535091
0.000849419
0.000848578
0.000782967
0.000693866
0.000610064
0.000537194
0.000474191
0.000421012
0.000372867
0.000326522
0.000279365
0.000228342
0.000175497
5.06827e-05
0.000107782
0.000151011
0.000155914
0.00014639
0.000130248
0.000108948
8.99641e-05
7.47891e-05
6.28598e-05
5.34251e-05
4.5866e-05
3.97185e-05
3.46451e-05
3.02634e-05
2.62469e-05
2.23004e-05
1.71532e-05
1.34248e-05
0.000528944
0.00074432
0.000816014
0.000605249
0.000538845
0.000440554
0.000363783
0.000316564
0.000289129
0.000271598
0.000254686
0.000233411
0.000206537
0.00017546
0.000146038
0.000166335
0.000113159
0.000144085
0.000358568
0.000179402
0.000137005
0.000117023
0.000102451
0.000100363
8.37957e-05
6.78236e-05
5.47519e-05
4.44759e-05
3.64665e-05
3.01842e-05
2.5242e-05
2.14528e-05
1.94385e-05
2.1394e-05
1.9724e-05
2.25412e-05
0.00081718
0.00138708
0.00100856
0.000542844
0.000511415
0.000394068
0.000299357
0.000250463
0.000228293
0.000215806
0.000202711
0.00018484
0.000163006
0.000140037
0.000120435
0.000114012
0.000119288
0.000132857
0.000252986
0.000163095
0.000134189
0.000118291
0.000112118
0.000250778
0.000171007
0.000119868
8.6711e-05
6.47255e-05
4.97825e-05
3.94579e-05
3.25089e-05
2.81923e-05
2.12616e-05
2.1469e-05
2.72596e-05
3.1846e-05
0.00116029
0.00215363
0.00111116
0.00050918
0.00055355
0.000391619
0.00025213
0.000190098
0.000169673
0.000163282
0.000156043
0.00014413
0.000129104
0.000113958
0.000102067
9.45271e-05
9.78019e-05
0.000126474
0.000134216
0.000124799
0.000125231
0.000125373
0.000120721
0.000122614
0.00033941
0.000259349
0.000204749
0.000163032
0.00012884
9.97747e-05
7.47291e-05
5.31369e-05
3.39934e-05
1.92022e-05
1.85027e-05
5.33923e-05
4.91976e-05
0.00152238
0.00284769
0.00110908
0.000530997
0.00066678
0.00043338
0.000217039
0.000132638
0.000116286
0.000117319
0.000116621
0.000111846
0.000104671
9.80068e-05
9.46356e-05
9.40678e-05
0.000107784
0.000123195
0.000132959
0.000147831
0.000158517
0.000158733
0.000149013
0.000136633
0.000139883
0.000135522
0.000128518
0.000116809
0.000100962
8.25797e-05
6.30002e-05
4.37993e-05
2.403e-05
1.51865e-05
1.61349e-05
5.49493e-05
6.30759e-05
7.04123e-05
5.30886e-05
2.89824e-05
0.00182313
0.00333251
0.0010617
0.000589396
0.000817839
0.000514288
0.000211532
0.000108737
9.02038e-05
9.1173e-05
9.35496e-05
9.44254e-05
9.45206e-05
9.62619e-05
0.000102871
0.00011625
0.000143956
0.000174453
0.000202028
0.000219765
0.000221983
0.000208039
0.00018372
0.000157735
0.000137959
0.000123677
0.000111231
9.68654e-05
8.00022e-05
6.07923e-05
4.25129e-05
2.82236e-05
1.75214e-05
1.54255e-05
1.89943e-05
4.34044e-05
6.38807e-05
5.79059e-05
4.60795e-05
2.77056e-05
0.00188636
0.00301679
0.00100855
0.000676593
0.000999444
0.000629291
0.000245306
0.000119796
9.47071e-05
9.39609e-05
9.77657e-05
0.000102518
0.000108708
0.000118711
0.000136058
0.000162701
0.000202725
0.000247332
0.000278662
0.000286184
0.00026932
0.000235326
0.000194412
0.00015438
0.000124886
0.000105668
8.95854e-05
7.35523e-05
5.75772e-05
4.27632e-05
3.11885e-05
2.42079e-05
2.15521e-05
2.3466e-05
2.76093e-05
3.46015e-05
4.92178e-05
4.41131e-05
5.43406e-05
3.12872e-05
0.00167084
0.00310528
0.00109048
0.000805436
0.00115506
0.000751188
0.000295446
0.000167566
0.000144325
0.00014625
0.00015351
0.000162676
0.000174378
0.000190743
0.000214848
0.00024983
0.000296179
0.000336774
0.000350655
0.000331824
0.000287165
0.00023421
0.000184921
0.000145441
0.000117114
9.65454e-05
7.98587e-05
6.57201e-05
5.45103e-05
4.71917e-05
4.47672e-05
4.74126e-05
5.35786e-05
5.95397e-05
6.09187e-05
5.89614e-05
5.97633e-05
7.17123e-05
0.00021139
0.000112446
0.0013786
0.00120377
0.000804604
0.000911379
0.00125048
0.000841052
0.000400952
0.000306674
0.000302013
0.000315876
0.00033157
0.000346554
0.000361863
0.000379492
0.000401392
0.000427692
0.00045319
0.000463835
0.000447895
0.000406678
0.000352593
0.000297535
0.000249484
0.00021117
0.000181824
0.000159781
0.000143878
0.000134186
0.000131573
0.000137146
0.00015166
0.000174295
0.000200644
0.000221244
0.000226012
0.000214644
0.000203785
0.000254705
0.000646402
0.00030476
0.000637592
0.00127132
0.00140707
0.000821078
0.000683095
0.000713308
0.000774247
0.000828119
0.000866838
0.00089126
0.000904618
0.000910436
0.000911462
0.00090838
0.000898758
0.000877986
0.000844421
0.000801312
0.000754337
0.000707833
0.000664083
0.000624567
0.000590624
0.00056409
0.000547254
0.000542832
0.000553793
0.000582976
0.000632015
0.000698822
0.000773386
0.000834696
0.000856462
0.000825559
0.0007687
0.000787991
0.0012101
0.00042878
0.00365493
0.00418465
0.0027876
0.0017084
0.0016409
0.00179854
0.00198171
0.00212958
0.0022278
0.00228085
0.00229927
0.00229502
0.00228015
0.00226518
0.0022557
0.00224928
0.00223627
0.00220909
0.00216742
0.00211479
0.00205492
0.00199232
0.00193281
0.0018836
0.00185228
0.00184697
0.00187671
0.00195148
0.00208002
0.00226327
0.00248156
0.00268019
0.00277291
0.00268746
0.00245501
0.00223986
0.00195192
0.000656855
0.00102591
0.00123658
0.0016162
0.00181917
0.00172868
0.00161538
0.0015758
0.0015779
0.00158942
0.00159934
0.00160568
0.00160942
0.00161215
0.00161496
0.00161766
0.00161819
0.00161306
0.00159915
0.00157623
0.001547
0.0015151
0.00148367
0.00145501
0.0014309
0.00141295
0.00140292
0.00140277
0.00141459
0.00144018
0.00148023
0.00153272
0.00159066
0.00164062
0.00166514
0.00165198
0.0016054
0.00154327
0.00146362
0.00125513
0.000646444
)
;

boundaryField
{
    floor
    {
        Cmu             0.09;
        kappa           0.41;
        E               9.8;
        type            epsilonWallFunction;
        value           nonuniform List<scalar> 
29
(
0.000175497
5.06827e-05
0.000107782
0.000151011
0.000155914
0.00014639
0.000130248
0.000108948
8.99641e-05
7.47891e-05
6.28598e-05
5.34251e-05
4.5866e-05
3.97185e-05
3.46451e-05
3.02634e-05
2.62469e-05
2.23004e-05
1.71532e-05
1.34248e-05
1.34248e-05
2.25412e-05
3.1846e-05
4.91976e-05
0.000175497
5.06827e-05
0.000144085
0.000132857
0.000126474
)
;
    }
    ceiling
    {
        Cmu             0.09;
        kappa           0.41;
        E               9.8;
        type            epsilonWallFunction;
        value           nonuniform List<scalar> 
43
(
0.00102591
0.00123658
0.0016162
0.00181917
0.00172868
0.00161538
0.0015758
0.0015779
0.00158942
0.00159934
0.00160568
0.00160942
0.00161215
0.00161496
0.00161766
0.00161819
0.00161306
0.00159915
0.00157623
0.001547
0.0015151
0.00148367
0.00145501
0.0014309
0.00141295
0.00140292
0.00140277
0.00141459
0.00144018
0.00148023
0.00153272
0.00159066
0.00164062
0.00166514
0.00165198
0.0016054
0.00154327
0.00146362
0.00125513
0.000646444
0.0013786
0.00120377
0.00365493
)
;
    }
    sWall
    {
        Cmu             0.09;
        kappa           0.41;
        E               9.8;
        type            epsilonWallFunction;
        value           uniform 0.00102591;
    }
    nWall
    {
        Cmu             0.09;
        kappa           0.41;
        E               9.8;
        type            epsilonWallFunction;
        value           nonuniform List<scalar> 6(2.89824e-05 2.77056e-05 3.12872e-05 0.00042878 0.000656855 0.000646444);
    }
    sideWalls
    {
        type            empty;
    }
    glass1
    {
        Cmu             0.09;
        kappa           0.41;
        E               9.8;
        type            epsilonWallFunction;
        value           nonuniform List<scalar> 9(0.000288197 0.000528944 0.00081718 0.00116029 0.00152238 0.00182313 0.00188636 0.00167084 0.0013786);
    }
    glass2
    {
        Cmu             0.09;
        kappa           0.41;
        E               9.8;
        type            epsilonWallFunction;
        value           nonuniform List<scalar> 2(0.000112446 0.00030476);
    }
    sun
    {
        Cmu             0.09;
        kappa           0.41;
        E               9.8;
        type            epsilonWallFunction;
        value           nonuniform List<scalar> 
14
(
0.000288197
0.000535091
0.000849419
0.000848578
0.000782967
0.000693866
0.000610064
0.000537194
0.000474191
0.000421012
0.000372867
0.000326522
0.000279365
0.000228342
)
;
    }
    heatsource1
    {
        Cmu             0.09;
        kappa           0.41;
        E               9.8;
        type            epsilonWallFunction;
        value           nonuniform List<scalar> 3(7.04123e-05 5.30886e-05 2.89824e-05);
    }
    heatsource2
    {
        Cmu             0.09;
        kappa           0.41;
        E               9.8;
        type            epsilonWallFunction;
        value           nonuniform List<scalar> 4(0.000166335 0.000113159 0.000113159 0.000119288);
    }
    Table_master
    {
        Cmu             0.09;
        kappa           0.41;
        E               9.8;
        type            epsilonWallFunction;
        value           nonuniform List<scalar> 9(0.000250778 0.000171007 0.000119868 8.6711e-05 6.47255e-05 4.97825e-05 3.94579e-05 3.25089e-05 2.81923e-05);
    }
    Table_slave
    {
        Cmu             0.09;
        kappa           0.41;
        E               9.8;
        type            epsilonWallFunction;
        value           nonuniform List<scalar> 9(0.00033941 0.000259349 0.000204749 0.000163032 0.00012884 9.97747e-05 7.47291e-05 5.31369e-05 3.39934e-05);
    }
    inlet
    {
        type            turbulentMixingLengthDissipationRateInlet;
        mixingLength    0.01;
        phi             phi;
        k               k;
        value           uniform 0.000101881;
    }
    outlet
    {
        type            zeroGradient;
    }
}


// ************************************************************************* //
