// -*- C++ -*-
// File generated by PyFoam - sorry for the ugliness

FoamFile
{
 version 2.0;
 format ascii;
 class volScalarField;
 location "170";
 object T;
}

dimensions [ 0 0 0 1 0 0 0 ];

internalField nonuniform List<scalar> 459
(
  301.772
  301.705
  301.671
  301.735
  301.826
  301.888
  301.928
  301.955
  301.973
  301.991
  302.009
  302.025
  302.04
  302.054
  302.064
  302.764
  302.708
  302.661
  302.675
  302.699
  302.724
  302.745
  302.766
  302.786
  302.805
  302.823
  302.841
  302.858
  302.875
  302.892
  302.909
  302.928
  302.954
  303.006
  301.783
  301.69
  301.637
  301.713
  301.914
  302.047
  302.122
  302.162
  302.183
  302.195
  302.197
  302.192
  302.178
  302.154
  302.123
  302.138
  302.167
  302.719
  302.611
  302.6
  302.632
  302.675
  302.714
  302.744
  302.772
  302.799
  302.826
  302.851
  302.876
  302.899
  302.921
  302.94
  302.956
  302.969
  302.984
  303.027
  301.786
  301.66
  301.592
  301.688
  302.023
  302.245
  302.354
  302.396
  302.407
  302.396
  302.372
  302.34
  302.3
  302.254
  302.205
  302.189
  302.192
  302.548
  302.491
  302.536
  302.606
  302.676
  302.731
  302.754
  302.782
  302.812
  302.842
  302.873
  302.902
  302.931
  302.957
  302.977
  302.992
  303.002
  303.01
  303.042
  301.779
  301.622
  301.547
  301.653
  302.13
  302.456
  302.595
  302.629
  302.61
  302.566
  302.513
  302.459
  302.402
  302.343
  302.283
  302.246
  302.226
  302.245
  302.308
  302.401
  302.519
  302.637
  302.736
  302.81
  302.867
  302.914
  302.959
  303.002
  303.045
  303.089
  303.134
  303.184
  303.233
  303.114
  303.067
  303.047
  303.06
  301.765
  301.585
  301.504
  301.609
  302.188
  302.633
  302.794
  302.807
  302.756
  302.689
  302.622
  302.558
  302.494
  302.43
  302.368
  302.326
  302.305
  302.335
  302.42
  302.54
  302.67
  302.79
  302.889
  302.965
  303.027
  303.079
  303.121
  303.158
  303.191
  303.223
  303.255
  303.287
  303.307
  303.198
  303.126
  303.093
  303.083
  303.099
  303.132
  303.232
  301.749
  301.557
  301.458
  301.557
  302.171
  302.739
  302.922
  302.923
  302.867
  302.8
  302.734
  302.671
  302.605
  302.545
  302.492
  302.461
  302.463
  302.531
  302.646
  302.775
  302.897
  303.001
  303.083
  303.144
  303.194
  303.229
  303.257
  303.282
  303.306
  303.33
  303.351
  303.361
  303.348
  303.274
  303.205
  303.171
  303.133
  303.135
  303.162
  303.275
  301.747
  301.573
  301.416
  301.471
  302.112
  302.79
  303.013
  303.03
  302.985
  302.93
  302.876
  302.824
  302.773
  302.726
  302.692
  302.689
  302.728
  302.822
  302.936
  303.047
  303.144
  303.221
  303.277
  303.32
  303.345
  303.36
  303.375
  303.39
  303.405
  303.417
  303.423
  303.418
  303.396
  303.351
  303.303
  303.256
  303.189
  303.173
  303.206
  303.338
  301.773
  301.694
  301.387
  301.398
  302.021
  302.823
  303.109
  303.157
  303.134
  303.1
  303.066
  303.034
  303.005
  302.983
  302.975
  302.995
  303.054
  303.143
  303.23
  303.31
  303.374
  303.42
  303.45
  303.463
  303.469
  303.474
  303.48
  303.487
  303.493
  303.496
  303.495
  303.486
  303.466
  303.434
  303.389
  303.331
  303.263
  303.228
  303.246
  303.363
  301.81
  301.785
  301.254
  301.345
  302.027
  302.902
  303.242
  303.31
  303.314
  303.306
  303.296
  303.287
  303.28
  303.28
  303.292
  303.321
  303.371
  303.432
  303.489
  303.532
  303.563
  303.579
  303.585
  303.586
  303.584
  303.583
  303.583
  303.583
  303.583
  303.582
  303.577
  303.568
  303.551
  303.523
  303.481
  303.425
  303.362
  303.315
  303.313
  303.387
  300.628
  301.345
  302.336
  303.211
  303.419
  303.478
  303.499
  303.509
  303.516
  303.522
  303.529
  303.539
  303.556
  303.58
  303.611
  303.643
  303.669
  303.688
  303.697
  303.7
  303.697
  303.693
  303.688
  303.683
  303.679
  303.675
  303.67
  303.665
  303.657
  303.646
  303.628
  303.601
  303.564
  303.518
  303.467
  303.426
  303.415
  303.437
  303.019
  303.123
  303.326
  303.484
  303.58
  303.623
  303.647
  303.662
  303.674
  303.684
  303.695
  303.707
  303.72
  303.736
  303.752
  303.766
  303.776
  303.781
  303.782
  303.779
  303.774
  303.768
  303.762
  303.756
  303.749
  303.742
  303.735
  303.726
  303.715
  303.701
  303.681
  303.654
  303.622
  303.585
  303.548
  303.519
  303.51
  303.516
  303.558
  303.543
  303.529
  303.594
  303.644
  303.687
  303.725
  303.749
  303.766
  303.778
  303.789
  303.798
  303.806
  303.814
  303.822
  303.828
  303.833
  303.836
  303.837
  303.835
  303.831
  303.826
  303.821
  303.814
  303.808
  303.801
  303.794
  303.786
  303.777
  303.767
  303.753
  303.736
  303.713
  303.686
  303.655
  303.624
  303.597
  303.578
  303.572
  303.577
)
;

boundaryField
{
  floor
  {
    type wallHeatTransfer;
    Tinf uniform 299.755;
    alphaWall uniform 0.24;
    value nonuniform List<scalar> 29
(
  301.759
  302.232
  302.269
  302.262
  302.277
  302.292
  302.301
  302.302
  302.299
  302.295
  302.291
  302.287
  302.283
  302.278
  302.274
  302.27
  302.264
  302.257
  302.24
  302.243
  302.243
  302.337
  302.398
  302.471
  301.759
  302.232
  302.308
  302.152
  301.889
)
;
  }
  ceiling
  {
    type wallHeatTransfer;
    Tinf uniform 299.755;
    alphaWall uniform 0.24;
    value nonuniform List<scalar> 43
(
  303.234
  303.236
  303.244
  303.312
  303.355
  303.389
  303.422
  303.445
  303.461
  303.473
  303.483
  303.492
  303.5
  303.507
  303.514
  303.52
  303.524
  303.526
  303.526
  303.523
  303.518
  303.511
  303.504
  303.497
  303.49
  303.483
  303.477
  303.47
  303.464
  303.456
  303.446
  303.433
  303.415
  303.391
  303.362
  303.331
  303.303
  303.282
  303.264
  303.21
  301.649
  301.62
  302.821
)
;
  }
  sWall
  {
    type wallHeatTransfer;
    Tinf uniform 303.161;
    alphaWall uniform 0.36;
    value uniform 303.51;
  }
  nWall
  {
    type wallHeatTransfer;
    Tinf uniform 303.145;
    alphaWall uniform 0.36;
    value nonuniform List<scalar> 6
(
  303.208
  303.239
  303.286
  303.393
  303.466
  303.517
)
;
  }
  sideWalls
  {
    type empty;
  }
  glass1
  {
    type wallHeatTransfer;
    Tinf uniform 303.161;
    alphaWall uniform 4.3;
    value nonuniform List<scalar> 9
(
  302.751
  302.703
  302.666
  302.631
  302.6
  302.576
  302.572
  302.594
  302.627
)
;
  }
  glass2
  {
    type wallHeatTransfer;
    Tinf uniform 303.145;
    alphaWall uniform 4.3;
    value nonuniform List<scalar> 2
(
  303.198
  303.217
)
;
  }
  sun
  {
    type wallHeatTransfer;
    Tinf uniform 299.755;
    alphaWall uniform 0.24;
    value nonuniform List<scalar> 14
(
  301.536
  301.51
  301.501
  301.558
  301.638
  301.688
  301.718
  301.734
  301.744
  301.753
  301.761
  301.767
  301.77
  301.768
)
;
  }
  heatsource1
  {
    type fixedGradient;
    gradient uniform 0;
  }
  heatsource2
  {
    type fixedGradient;
    gradient uniform 0;
  }
  Table_master
  {
    type zeroGradient;
  }
  Table_slave
  {
    type zeroGradient;
  }
  inlet
  {
    type fixedValue;
    value uniform 300.15;
  }
  outlet
  {
    type zeroGradient;
  }
} 	// ************************************************************************* //

