/*--------------------------------*- C++ -*----------------------------------*\
  =========                 |
  \\      /  F ield         | OpenFOAM: The Open Source CFD Toolbox
   \\    /   O peration     | Website:  https://openfoam.org
    \\  /    A nd           | Version:  6
     \\/     M anipulation  |
\*---------------------------------------------------------------------------*/
FoamFile
{
    version     2.0;
    format      ascii;
    class       volScalarField;
    location    "650";
    object      alphat;
}
// * * * * * * * * * * * * * * * * * * * * * * * * * * * * * * * * * * * * * //

dimensions      [1 -1 -1 0 0 0 0];

internalField   nonuniform List<scalar> 
459
(
0.000456966
0.000559851
0.000635844
0.000701064
0.000774193
0.000834993
0.00086899
0.00086
0.000834818
0.000800772
0.000761557
0.000723081
0.000684368
0.00063965
0.000592108
0.000586372
0.000686201
0.000681359
0.000664268
0.000625783
0.000586165
0.000544203
0.000505584
0.000471969
0.000442988
0.000417902
0.000395963
0.000376525
0.000359078
0.000342642
0.000326077
0.000310654
0.000297811
0.000360926
0.00049951
0.00117602
0.00168368
0.00206202
0.00224176
0.00239397
0.00270289
0.00285466
0.00284754
0.00273102
0.00255485
0.00227549
0.00191126
0.00148999
0.00104039
0.00061006
0.000542985
0.00085635
0.00244467
0.00191208
0.00182656
0.00183146
0.00176866
0.00140785
0.00120325
0.0010592
0.000950838
0.000866656
0.000800341
0.000746194
0.000689847
0.000628086
0.000572316
0.000606865
0.000644568
0.000465389
0.000529677
0.00159699
0.00217215
0.00237009
0.00227778
0.00232967
0.00275432
0.00310391
0.00324332
0.00321647
0.00310004
0.0029007
0.00258927
0.00215599
0.00162687
0.00108698
0.000565085
0.000906001
0.00246467
0.00195764
0.0019795
0.00212621
0.00207934
0.000724033
0.000635162
0.000563279
0.000505197
0.000457955
0.000419229
0.000387477
0.000362445
0.000344353
0.000386884
0.000551287
0.00081016
0.000539458
0.000561809
0.00198691
0.00250422
0.00250212
0.00210231
0.00215473
0.00267459
0.00316989
0.00340762
0.00341787
0.00331319
0.00315113
0.00290882
0.00255024
0.00206968
0.00151172
0.000916984
0.000602115
0.00126299
0.00153695
0.00199381
0.00248168
0.00283275
0.00274276
0.000783226
0.000716924
0.000665077
0.000620577
0.000579271
0.000538597
0.000496703
0.00045185
0.000400194
0.000384063
0.000516478
0.000960172
0.000623736
0.000604653
0.0024322
0.00282368
0.00254815
0.00193374
0.00206673
0.00269874
0.00333088
0.00364357
0.00364978
0.00351064
0.00333967
0.00313183
0.00284747
0.0024728
0.00203011
0.0015891
0.00161168
0.00204799
0.00271968
0.00333765
0.00377889
0.00401774
0.0040145
0.00348363
0.0031641
0.00283996
0.00251704
0.00219051
0.00185801
0.0015172
0.00116928
0.00081815
0.000590542
0.000584759
0.0008977
0.000844987
0.000656664
0.000680621
0.000925366
0.000676038
0.00285937
0.00311811
0.0023155
0.00179795
0.00205008
0.00282351
0.00360197
0.00397932
0.00396209
0.00378844
0.00362642
0.00345675
0.00325446
0.00302688
0.00281692
0.00273077
0.00315344
0.00376647
0.00429907
0.00467813
0.00488388
0.00493808
0.00486113
0.00462599
0.0042816
0.00386033
0.00339873
0.00291835
0.00243279
0.00195214
0.00149334
0.001158
0.00100159
0.000976049
0.000985739
0.000951417
0.00101775
0.00146757
0.00124457
0.0007845
0.00326151
0.00310574
0.00193999
0.00165851
0.00210247
0.00306076
0.00399563
0.0044213
0.00437589
0.00422735
0.00403644
0.00386205
0.00374602
0.00370051
0.0037695
0.00403928
0.00458716
0.00508707
0.00539921
0.00553183
0.00550191
0.00536083
0.00512647
0.00480381
0.00441415
0.00397732
0.00351108
0.00303938
0.00259126
0.00220128
0.0019096
0.00175684
0.00172235
0.00169483
0.00151661
0.0011832
0.00147578
0.00272432
0.00169137
0.000880869
0.00321845
0.00203772
0.00142332
0.00156959
0.00227882
0.00347188
0.00455504
0.00498643
0.00486472
0.00450136
0.00421246
0.00409201
0.00410991
0.00425192
0.00454268
0.00496666
0.00543193
0.00574331
0.00582911
0.00571329
0.00542553
0.00504927
0.00465906
0.00428008
0.00391707
0.00356609
0.00323386
0.00294323
0.00272458
0.00260446
0.00259256
0.00266606
0.00274915
0.00272724
0.00251527
0.00200795
0.00220041
0.00494515
0.0023181
0.000967118
0.00124483
0.000835184
0.00111417
0.0016983
0.00273935
0.00420871
0.00534453
0.00564471
0.00518661
0.00478311
0.00461415
0.00461249
0.0047159
0.00490532
0.00517322
0.00547144
0.00569865
0.00574879
0.00560525
0.00531619
0.004957
0.00459566
0.00427339
0.00400604
0.00379474
0.00363694
0.00353683
0.00350462
0.00354953
0.00367178
0.00385449
0.00405504
0.00420108
0.00420728
0.00403339
0.00357394
0.00347626
0.00642307
0.00258909
0.00044592
0.00158269
0.00269484
0.0040582
0.00552956
0.00611822
0.00593955
0.00575183
0.00570237
0.00574045
0.00581108
0.00589417
0.00598538
0.00607678
0.00614421
0.00615214
0.0060797
0.00593903
0.00576017
0.0055732
0.0053996
0.00525093
0.00513316
0.00505162
0.00501271
0.00502444
0.00509445
0.0052261
0.00541336
0.00563468
0.00584766
0.00598903
0.0059818
0.00584773
0.00551406
0.00527475
0.00662973
0.00217735
0.00240365
0.00719034
0.0075724
0.00709159
0.00681586
0.00661822
0.0065375
0.00658886
0.00669334
0.0067938
0.00686928
0.00692139
0.00695892
0.00698856
0.00701047
0.0070178
0.00700067
0.00695644
0.00689125
0.00681577
0.00673941
0.00666897
0.00661061
0.00657186
0.00656125
0.00658772
0.00665933
0.00678092
0.00695035
0.00715292
0.00735385
0.00749098
0.00747396
0.00730582
0.00691112
0.00642061
0.00551626
0.00183827
0.00158022
0.00168828
0.0018591
0.00196962
0.00194664
0.00187813
0.00181727
0.0017731
0.00175015
0.00174235
0.00174148
0.00174331
0.00174649
0.00175082
0.00175621
0.00176215
0.00176744
0.00177062
0.00177088
0.00176848
0.00176438
0.00175964
0.00175511
0.00175141
0.0017491
0.0017487
0.00175074
0.00175564
0.00176368
0.00177469
0.00178778
0.00180085
0.00181028
0.00181126
0.00180465
0.00178944
0.00178938
0.00181532
0.00180395
0.0015762
)
;

boundaryField
{
    floor
    {
        type            compressible::alphatWallFunction;
        Prt             0.85;
        value           nonuniform List<scalar> 
29
(
8.34415e-05
8.25828e-05
9.74341e-05
9.67223e-05
9.41988e-05
8.84856e-05
8.25586e-05
7.6226e-05
7.03437e-05
6.51773e-05
6.06856e-05
5.67671e-05
5.33152e-05
5.02359e-05
4.74544e-05
4.48178e-05
4.21434e-05
3.96372e-05
3.75369e-05
4.77468e-05
4.77461e-05
6.41606e-05
7.55074e-05
8.81836e-05
8.34405e-05
8.25818e-05
0.000122158
0.000129257
8.49418e-05
)
;
    }
    ceiling
    {
        type            compressible::alphatWallFunction;
        Prt             0.85;
        value           nonuniform List<scalar> 
43
(
0.000222049
0.000236444
0.000258994
0.000273465
0.000270465
0.000261497
0.000253501
0.000247681
0.000244652
0.000243624
0.00024351
0.000243753
0.000244174
0.000244746
0.000245459
0.000246244
0.000246944
0.000247364
0.000247398
0.000247081
0.00024654
0.000245914
0.000245314
0.000244825
0.000244519
0.000244467
0.000244735
0.000245384
0.000246445
0.000247899
0.000249625
0.000251348
0.00025259
0.000252718
0.000251846
0.00024984
0.000249833
0.000253251
0.000251754
0.000221524
0.000137925
0.000176608
0.000329482
)
;
    }
    sWall
    {
        type            compressible::alphatWallFunction;
        Prt             0.85;
        value           uniform 0.000221932;
    }
    nWall
    {
        type            compressible::alphatWallFunction;
        Prt             0.85;
        value           nonuniform List<scalar> 6(0.000132007 0.000176573 0.000236842 0.000300419 0.000256249 0.0002215);
    }
    sideWalls
    {
        type            empty;
    }
    glass1
    {
        type            compressible::alphatWallFunction;
        Prt             0.85;
        value           nonuniform List<scalar> 9(6.27587e-05 6.93195e-05 7.3929e-05 7.88026e-05 8.52466e-05 9.58574e-05 0.000111723 0.000125596 0.000137853);
    }
    glass2
    {
        type            compressible::alphatWallFunction;
        Prt             0.85;
        value           nonuniform List<scalar> 2(0.000319336 0.00035394);
    }
    sun
    {
        type            compressible::alphatWallFunction;
        Prt             0.85;
        value           nonuniform List<scalar> 
14
(
6.28421e-05
7.85822e-05
8.99736e-05
9.96171e-05
0.0001103
0.00011909
0.000123964
0.000122676
0.000119059
0.000114148
0.00010846
0.000102845
9.71586e-05
9.05408e-05
)
;
    }
    heatsource1
    {
        type            compressible::alphatWallFunction;
        Prt             0.85;
        value           nonuniform List<scalar> 3(9.29256e-05 9.64662e-05 0.000131863);
    }
    heatsource2
    {
        type            compressible::alphatWallFunction;
        Prt             0.85;
        value           nonuniform List<scalar> 4(8.59939e-05 7.58993e-05 7.58983e-05 7.92399e-05);
    }
    Table_master
    {
        type            compressible::alphatWallFunction;
        Prt             0.85;
        value           nonuniform List<scalar> 9(0.000102842 8.97344e-05 7.89677e-05 7.01434e-05 6.28717e-05 5.68397e-05 5.18405e-05 4.7862e-05 4.49641e-05);
    }
    Table_slave
    {
        type            compressible::alphatWallFunction;
        Prt             0.85;
        value           nonuniform List<scalar> 9(0.000111466 0.000101804 9.41724e-05 8.75647e-05 8.1379e-05 7.52341e-05 6.88439e-05 6.19264e-05 5.38496e-05);
    }
    inlet
    {
        type            fixedValue;
        value           uniform 1.94e-05;
    }
    outlet
    {
        type            zeroGradient;
    }
}


// ************************************************************************* //
