/*--------------------------------*- C++ -*----------------------------------*\
  =========                 |
  \\      /  F ield         | OpenFOAM: The Open Source CFD Toolbox
   \\    /   O peration     | Website:  https://openfoam.org
    \\  /    A nd           | Version:  6
     \\/     M anipulation  |
\*---------------------------------------------------------------------------*/
FoamFile
{
    version     2.0;
    format      ascii;
    class       surfaceScalarField;
    location    "650";
    object      phi;
}
// * * * * * * * * * * * * * * * * * * * * * * * * * * * * * * * * * * * * * //

dimensions      [1 0 -1 0 0 0 0];

internalField   nonuniform List<scalar> 
852
(
-0.000407211
0.000405924
-0.000954518
0.000547291
-0.00123076
0.000276223
-0.00118678
-4.39922e-05
-0.000741715
-0.000445087
9.63006e-05
-0.000838043
0.000906104
-0.000809824
0.00153116
-0.000625074
0.0019532
-0.000422061
0.00218573
-0.000232552
0.00224381
-5.80995e-05
0.00213487
0.000108911
0.0018387
0.000296148
0.00125075
0.00058793
0.00124726
8.47575e-05
-8.84263e-05
-0.000122527
0.000207251
0.000110059
-0.000232619
0.000478889
-0.000368863
0.000761752
-0.000282895
0.000943552
-0.000181833
0.00104591
-0.000102394
0.00110198
-5.61034e-05
0.0011386
-3.66561e-05
0.00116505
-2.6479e-05
0.0011834
-1.83927e-05
0.00119276
-9.38754e-06
0.00118802
4.69749e-06
0.0011573
3.06868e-05
0.0010751
8.21666e-05
0.000899
0.00017606
0.000595771
0.000303192
3.66727e-05
0.00055906
3.1472e-05
-0.00030222
0.000704139
-0.000705975
0.000951032
-0.000924438
0.000494671
-0.000858876
-0.000109569
-0.000446344
-0.000857635
0.000165095
-0.00144951
0.000784191
-0.00142895
0.00129646
-0.00113737
0.00165575
-0.000781383
0.00185925
-0.000436079
0.00192481
-0.000123683
0.00187318
0.000160512
0.00173527
0.000434035
0.00161372
0.000709456
0.00184104
0.00101992
0.000904919
0.00093605
0.000904843
-6.8593e-05
-2.83664e-05
0.000270007
-0.000131381
0.000595917
-0.000558561
0.000818702
-0.000591678
0.000983746
-0.000447971
0.00108388
-0.000282003
0.00110479
-0.000123337
0.00111332
-6.46691e-05
0.00112116
-4.45291e-05
0.00112793
-3.32832e-05
0.00113348
-2.39741e-05
0.00113768
-1.36225e-05
0.00113864
3.69843e-06
0.00113153
3.77601e-05
0.00109041
0.000123254
0.000926248
0.000340183
0.00066267
0.000566733
0.000421403
0.00080029
0.000439361
-0.000193834
0.000891248
-0.000512874
0.00127006
-0.000680766
0.000662549
-0.000603261
-0.000187088
-0.000221891
-0.00123902
0.00023985
-0.00191128
0.000707511
-0.00189664
0.00110804
-0.00153793
0.00138859
-0.00106197
0.00154527
-0.000592799
0.00159986
-0.000178302
0.00158046
0.000179885
0.00152098
0.000493486
0.00145197
0.000778442
0.00137993
0.00109193
0.000979935
0.00133602
0.00188475
-3.62386e-05
-5.70469e-06
0.000801088
-0.000968736
0.00107271
-0.000830214
0.00116667
-0.000685668
0.00122475
-0.000506081
0.00124787
-0.000305155
0.00112465
0.00106011
0.0010157
0.000982536
0.000958683
0.000945181
0.000948999
0.000986878
0.00111025
0.00091421
0.000536187
0.000745128
0.000735778
0.000602376
0.000943004
0.00102119
-9.63483e-05
0.000978201
-0.000332704
0.0015064
-0.00046267
0.000792501
-0.000333148
-0.000316622
2.01756e-05
-0.00159236
0.000350397
-0.00224153
0.000682502
-0.00222879
0.000961434
-0.00181691
0.0011433
-0.00124388
0.0012304
-0.000679939
0.00125042
-0.000198352
0.00123539
0.000194886
0.00121578
0.000513065
0.00121145
0.000782743
0.00125805
0.0010453
0.00137303
0.00122102
0.00195254
0.00130521
0.00153794
0.000393326
0.00188692
-0.000354707
0.00155486
-0.0006367
0.00144984
-0.000725227
0.00138857
-0.00062443
0.00134683
-0.000464369
0.00131933
-0.000277694
0.00140102
-8.18752e-05
0.00140278
-1.95518e-06
0.00136089
4.16965e-05
0.00128962
7.10739e-05
0.00119434
9.50866e-05
0.00107609
0.000118056
0.000931304
0.00014459
0.00074929
0.000181817
0.000501888
0.000247204
0.000585872
0.000452163
0.000644927
0.000676684
0.00076426
0.000823632
0.00175924
-1.67787e-05
0.000982991
-0.000153117
0.00164272
-0.0002307
0.000870071
3.01328e-05
-0.000577463
0.00031207
-0.00187431
0.000520119
-0.00244961
0.000709091
-0.00241781
0.000845247
-0.00195312
0.000903075
-0.00130177
0.000896751
-0.000673663
0.000862807
-0.000164448
0.000841262
0.000216397
0.000861719
0.000492576
0.000941264
0.000703169
0.00111225
0.000874287
0.001376
0.000957246
0.00176545
0.000915733
0.00189338
0.000265377
0.00176122
-0.000222577
0.00158789
-0.000463393
0.00140692
-0.000544289
0.00126281
-0.000480354
0.00114624
-0.000347839
0.00105782
-0.000189315
0.00100982
-3.39099e-05
0.00093795
6.98761e-05
0.000850954
0.000128652
0.000756131
0.000165855
0.000655528
0.000195649
0.000549057
0.000224485
0.000436945
0.000256659
0.000323995
0.000294724
0.000249104
0.000322052
0.0003218
0.000379427
0.000556937
0.000441506
0.00111443
0.000266096
0.00198362
0.000890012
0.000910718
0.00107266
-9.4299e-05
0.00100477
-0.000117318
4.93607e-05
0.000919214
-4.47574e-06
0.00169655
9.59609e-05
0.000769623
0.000477551
-0.000959062
0.000681768
-0.00207854
0.000769589
-0.00253746
0.000787723
-0.002436
0.000748159
-0.00191362
0.000651892
-0.00120556
0.000531253
-0.000553076
0.000435156
-6.83947e-05
0.000411014
0.000240504
0.000468904
0.000434656
0.000600938
0.000571107
0.000809479
0.000665719
0.00108232
0.00068438
0.0014211
0.000576927
0.00150444
0.000182007
0.00141756
-0.000135727
0.0012659
-0.000311771
0.00107651
-0.000354933
0.000893579
-0.000297458
0.000732949
-0.000187249
0.000597891
-5.42971e-05
0.000491597
7.23417e-05
0.000402641
0.000158789
0.000320142
0.000211109
0.000238322
0.000247632
0.000155571
0.000278356
7.36596e-05
0.000306352
6.92617e-08
0.000330206
-4.67583e-05
0.000341508
-4.30336e-05
0.000318284
6.4249e-05
0.000272101
0.000261053
0.000244661
0.000385858
0.000141251
0.000545948
0.000729882
0.000229248
0.00138932
-0.000277163
0.00151114
-0.000416956
0.000133267
0.000769374
0.000139813
0.00168999
0.000583017
0.000326409
0.00104594
-0.00142199
0.00119293
-0.00222555
0.00110734
-0.0024519
0.000900224
-0.00222894
0.00064
-0.00165347
0.000358246
-0.000923878
0.000114362
-0.000309247
-1.30427e-05
5.89662e-05
-1.57372e-05
0.000243165
7.20208e-05
0.000346867
0.000224919
0.000418179
0.000430137
0.000460472
0.000668755
0.000445732
0.000902687
0.000342965
0.000960197
0.000124465
0.000881547
-5.71126e-05
0.000725692
-0.000155954
0.000535904
-0.000165186
0.000345857
-0.000107453
0.0001739
-1.53346e-05
3.67959e-05
8.27622e-05
-5.63081e-05
0.000165401
-0.000121849
0.000224285
-0.000178238
0.000267453
-0.000232036
0.000301385
-0.00028183
0.000328105
-0.00032116
0.000345637
-0.000339406
0.000348406
-0.000324815
0.000326872
-0.000277262
0.000270685
-0.000202151
0.000196947
-0.00011346
0.000155927
-0.000131166
0.000158915
-5.81205e-05
0.000656795
-0.000144495
0.00147565
-0.000152294
0.00151889
-0.00059039
0.000162156
0.000588363
0.000556423
0.00129571
0.00149858
-0.000615755
0.00195776
-0.00188118
0.00189154
-0.00215935
0.00150633
-0.00206673
0.000976425
-0.00169909
0.00043912
-0.00111625
-3.85363e-05
-0.000446299
-0.00033204
-1.57949e-05
-0.000433202
0.000160088
-0.000415836
0.000225764
-0.000329872
0.000260869
-0.000196804
0.000285077
-3.09759e-05
0.00029461
0.000139289
0.000275433
0.000266827
0.00021539
0.000278538
0.000112714
0.000192821
2.85627e-05
4.43e-05
-7.47634e-06
-0.000128862
7.93066e-06
-0.00028963
5.32696e-05
-0.00041269
0.000107679
-0.000491681
0.000161706
-0.000538778
0.00021245
-0.000569403
0.000254864
-0.000591338
0.000289341
-0.000605805
0.000315805
-0.000609525
0.000331778
-0.000596651
0.000332716
-0.000561007
0.000312715
-0.000500352
0.000266171
-0.000423148
0.000193434
-0.000340396
0.000114147
-0.000251812
6.72981e-05
-0.00019856
0.000105618
1.29929e-05
0.0004452
0.000309399
0.0011792
0.000908244
0.000920003
0.000205135
0.000526489
0.00178735
0.00323427
-0.00206268
0.00327202
-0.00191894
0.00264558
-0.00153294
0.0017615
-0.00118269
0.000798562
-0.000736236
-5.77653e-05
-0.000260023
-0.00060144
9.73072e-05
-0.00082095
0.000203665
-0.000872364
0.00021146
-0.000847549
0.000200908
-0.000781856
0.000195135
-0.000692493
0.000195673
-0.000594375
0.000196451
-0.000508565
0.00018958
-0.000461988
0.000168769
-0.000482335
0.000133015
-0.000557078
0.000103259
-0.000657554
9.29507e-05
-0.000753398
0.000103726
-0.000827247
0.00012707
-0.000875209
0.000155591
-0.000899395
0.000185843
-0.000903572
0.000216578
-0.000893756
0.000244998
-0.000873274
0.00026881
-0.000842609
0.000285091
-0.000800706
0.000289826
-0.000746213
0.000278175
-0.000678913
0.000245365
-0.000601603
0.000188812
-0.00052078
0.000112562
-0.000438787
3.21061e-05
-0.00034059
-3.09464e-05
-0.000217619
-1.73989e-05
4.62434e-05
0.000181292
0.000555108
0.000670292
0.00103627
0.000438795
0.00111864
0.0052386
-0.000808296
0.00384086
-0.000521224
0.00240041
-9.25333e-05
0.000916353
0.000301305
-0.000318911
0.000498916
-0.00103873
0.000459723
-0.00128108
0.000339595
-0.00133688
0.000259418
-0.00132942
0.000203946
-0.00129639
0.000167835
-0.00125096
0.000149657
-0.00119982
0.000144491
-0.00114973
0.00014631
-0.00110938
0.000149181
-0.00108825
0.000147585
-0.00109398
0.000138701
-0.00111925
0.000128478
-0.00114982
0.00012347
-0.00117235
0.000126202
-0.00118029
0.000134958
-0.00117242
0.000147672
-0.00114972
0.000163093
-0.00111336
0.000180165
-0.00106527
0.000196855
-0.0010072
0.000210688
-0.000940803
0.000218648
-0.000868218
0.00021719
-0.000792647
0.000202554
-0.000718921
0.000171588
-0.000653565
0.000123406
-0.000603022
6.19693e-05
-0.000569929
-1.03679e-06
-0.000545398
-5.55259e-05
-0.000506532
-5.63131e-05
-0.000429938
0.000104651
-0.000198833
0.000439142
-9.97344e-05
0.00033965
0.000993301
-0.00115831
0.000322372
-0.00175139
7.17914e-05
-0.00201145
0.000167467
-0.00203887
0.00032866
-0.00195978
0.000419743
-0.00188218
0.000382059
-0.00182777
0.000285128
-0.0017766
0.000208198
-0.00172961
0.000156911
-0.00168741
0.000125582
-0.00164693
0.000109128
-0.0016054
0.000102908
-0.0015621
0.000102955
-0.00151879
0.000105817
-0.00147945
0.000108201
-0.00144866
0.000107854
-0.00142615
0.000105919
-0.00140742
0.000104683
-0.00138679
0.000105519
-0.00136027
0.000108383
-0.00132555
0.000112906
-0.00128124
0.000118727
-0.00122638
0.000125252
-0.00116089
0.000131314
-0.00108565
0.00013539
-0.00100272
0.000135669
-0.000915765
0.000130184
-0.000830394
0.000117131
-0.000754415
9.55574e-05
-0.000697567
6.6507e-05
-0.000669708
3.40595e-05
-0.000674511
3.71667e-06
-0.00071854
-1.15467e-05
-0.000774158
-7.43419e-07
-0.000730251
6.06963e-05
-0.000490551
0.000199394
-0.000470537
0.00031959
0.000490362
-0.00424565
-0.00407566
-0.0037935
-0.00376036
-0.00363223
-0.00334444
-0.00296716
-0.00262888
-0.00238828
-0.00222497
-0.0021131
-0.00203266
-0.00196874
-0.00191106
-0.00185335
-0.00179278
-0.0017298
-0.00166719
-0.00160656
-0.00154723
-0.00148714
-0.00142427
-0.00135693
-0.00128381
-0.00120415
-0.00111838
-0.00102842
-0.00093799
-0.000852775
-0.000780264
-0.000728914
-0.000706184
-0.000715528
-0.000755005
-0.0008097
-0.000853744
-0.00083625
-0.000679512
-0.000402802
)
;

boundaryField
{
    floor
    {
        type            calculated;
        value           nonuniform List<scalar> 
29
(
0
0
0
0
0
0
0
0
0
0
0
0
0
0
0
0
0
0
0
0
5.15793e-06
1.34748e-05
2.05119e-05
2.617e-05
3.46963e-06
3.63427e-06
8.5004e-06
1.35467e-05
2.12508e-05
)
;
    }
    ceiling
    {
        type            calculated;
        value           nonuniform List<scalar> 
43
(
4.58762e-05
4.34544e-05
4.0148e-05
3.85927e-05
3.92678e-05
4.08099e-05
4.24018e-05
4.37151e-05
4.44775e-05
4.48297e-05
4.49943e-05
4.50868e-05
4.51467e-05
4.51815e-05
4.51919e-05
4.51841e-05
4.51751e-05
4.51868e-05
4.523e-05
4.52994e-05
4.53801e-05
4.54564e-05
4.5516e-05
4.55484e-05
4.55434e-05
4.54896e-05
4.53744e-05
4.5186e-05
4.49165e-05
4.45671e-05
4.41554e-05
4.37245e-05
4.33522e-05
4.31435e-05
4.30979e-05
4.32509e-05
4.31536e-05
4.26066e-05
4.28308e-05
4.7737e-05
4.23124e-05
3.48316e-05
2.75855e-05
)
;
    }
    sWall
    {
        type            calculated;
        value           uniform 1.49771e-05;
    }
    nWall
    {
        type            calculated;
        value           nonuniform List<scalar> 6(2.27631e-05 2.24286e-05 2.10934e-05 2.55595e-05 3.23539e-05 3.97742e-05);
    }
    sideWalls
    {
        type            empty;
        value           nonuniform 0();
    }
    glass1
    {
        type            calculated;
        value           nonuniform List<scalar> 9(1.27236e-06 3.98887e-06 6.70896e-06 9.37866e-06 1.19727e-05 1.44009e-05 1.65569e-05 1.88413e-05 1.95476e-05);
    }
    glass2
    {
        type            calculated;
        value           nonuniform List<scalar> 2(0.000112673 0.000122717);
    }
    sun
    {
        type            calculated;
        value           uniform 0;
    }
    heatsource1
    {
        type            calculated;
        value           nonuniform List<scalar> 3(2.07316e-07 2.07689e-07 2.07957e-07);
    }
    heatsource2
    {
        type            calculated;
        value           nonuniform List<scalar> 4(5.19536e-08 5.2066e-08 0 0);
    }
    Table_master
    {
        type            calculated;
        value           nonuniform List<scalar> 9(-1.55816e-07 -1.55881e-07 -1.55902e-07 -1.55913e-07 -1.5592e-07 -1.55922e-07 -1.55918e-07 -1.55899e-07 -1.55853e-07);
    }
    Table_slave
    {
        type            calculated;
        value           nonuniform List<scalar> 9(1.55668e-07 1.55692e-07 1.55686e-07 1.55692e-07 1.55709e-07 1.55733e-07 1.55765e-07 1.55805e-07 1.55859e-07);
    }
    inlet
    {
        type            calculated;
        value           uniform -0.006493;
    }
    outlet
    {
        type            calculated;
        value           nonuniform List<scalar> 2(0.00418473 -0.000213511);
    }
}


// ************************************************************************* //
