// -*- C++ -*-
// File generated by PyFoam - sorry for the ugliness

FoamFile
{
 version 2.0;
 format ascii;
 class volVectorField;
 location "570";
 object U;
}

dimensions [ 0 1 -1 0 0 0 0 ];

internalField nonuniform List<vector> 459
(
  (0.0240076 0.0675709 0)
  (-0.131553 0.0210858 0)
  (-0.153518 0.0150961 0)
  (-0.179865 0.0103759 0)
  (-0.199333 0.00514761 0)
  (-0.210901 -0.000502425 0)
  (-0.212995 -0.00668734 0)
  (-0.20408 -0.0135448 0)
  (-0.184116 -0.0206583 0)
  (-0.1543 -0.0267874 0)
  (-0.117817 -0.0307128 0)
  (-0.0791783 -0.03156 0)
  (-0.0437846 -0.0287783 0)
  (-0.0177495 -0.0214432 0)
  (0.048577 0.00410401 0)
  (-0.100718 0.00636131 0)
  (0.0317749 -0.00773012 0)
  (0.0218276 -0.0111721 0)
  (0.0328781 -0.0112864 0)
  (0.0468609 -0.00963063 0)
  (0.0583088 -0.00718503 0)
  (0.0655164 -0.00414077 0)
  (0.0689384 -0.00240482 0)
  (0.0700222 -0.00179539 0)
  (0.0702012 -0.00159508 0)
  (0.0700913 -0.00144867 0)
  (0.0697158 -0.00125103 0)
  (0.0688981 -0.000906659 0)
  (0.0672633 -0.000182811 0)
  (0.0639611 0.00147309 0)
  (0.0572811 0.00499893 0)
  (0.046362 0.01027 0)
  (-0.00126551 0.0201546 0)
  (0.0909437 -0.00272305 0)
  (0.1582 0.138544 0)
  (-0.124509 0.0554621 0)
  (-0.126702 0.0448636 0)
  (-0.154227 0.0354309 0)
  (-0.173803 0.0245542 0)
  (-0.185822 0.0120766 0)
  (-0.188781 -0.00242119 0)
  (-0.180994 -0.0188665 0)
  (-0.162881 -0.035256 0)
  (-0.135991 -0.0485134 0)
  (-0.103726 -0.0560908 0)
  (-0.0702546 -0.0566307 0)
  (-0.0398515 -0.0498967 0)
  (-0.0159837 -0.0364466 0)
  (0.00652097 -0.0122 0)
  (0.0138334 0.00459096 0)
  (0.0123567 0.0172997 0)
  (-0.122673 0.00513565 0)
  (0.0345943 -0.0282567 0)
  (0.0345907 -0.0259754 0)
  (0.0447961 -0.0224845 0)
  (0.0558253 -0.0180618 0)
  (0.064383 -0.0127591 0)
  (0.068702 -0.00498815 0)
  (0.0695882 -0.000383398 0)
  (0.0694622 0.00141996 0)
  (0.0695467 0.00214192 0)
  (0.0698074 0.0026123 0)
  (0.06998 0.00305548 0)
  (0.0699977 0.00371914 0)
  (0.0698046 0.00509181 0)
  (0.0687954 0.00835116 0)
  (0.0642342 0.0168493 0)
  (0.0555437 0.0260359 0)
  (0.0101794 0.0371704 0)
  (0.134735 0.022732 0)
  (0.282518 0.20818 0)
  (-0.137711 0.0885095 0)
  (-0.0977137 0.0729865 0)
  (-0.124988 0.0561166 0)
  (-0.143071 0.0380203 0)
  (-0.154967 0.0176207 0)
  (-0.158617 -0.00595364 0)
  (-0.151162 -0.0323318 0)
  (-0.133818 -0.0580448 0)
  (-0.108958 -0.0777067 0)
  (-0.0803436 -0.087694 0)
  (-0.0516839 -0.0866583 0)
  (-0.0261908 -0.0750833 0)
  (-0.00581537 -0.0539918 0)
  (0.0104665 -0.0251685 0)
  (0.0202013 5.40573e-05 0)
  (0.0207989 0.0312735 0)
  (-0.0193487 -0.0296726 0)
  (0.0405426 -0.0399342 0)
  (0.0529254 -0.0383791 0)
  (0.0580478 -0.0325247 0)
  (0.0636254 -0.0261972 0)
  (0.0687318 -0.0211963 0)
  (0.0708547 -0.0158608 0)
  (0.0666528 -0.0105385 0)
  (0.0632604 -0.00775038 0)
  (0.0621653 -0.00622263 0)
  (0.0621772 -0.00522934 0)
  (0.0625981 -0.00443164 0)
  (0.0634715 -0.00358695 0)
  (0.0655232 -0.00221016 0)
  (0.0704859 0.00212323 0)
  (0.0712091 0.0221856 0)
  (0.0650059 0.0379824 0)
  (0.0188722 0.0545524 0)
  (0.159949 0.0537931 0)
  (0.396786 0.264884 0)
  (-0.164743 0.117748 0)
  (-0.0657798 0.0976828 0)
  (-0.0924481 0.0747146 0)
  (-0.106576 0.0515886 0)
  (-0.116834 0.0249233 0)
  (-0.120147 -0.00733488 0)
  (-0.111363 -0.0442817 0)
  (-0.094086 -0.079229 0)
  (-0.0718242 -0.104281 0)
  (-0.0480891 -0.115756 0)
  (-0.0254532 -0.112937 0)
  (-0.00580284 -0.09745 0)
  (0.0111364 -0.0713318 0)
  (0.0260884 -0.0410218 0)
  (0.0424428 -0.0120788 0)
  (0.0614137 0.014563 0)
  (0.0906726 -0.0364254 0)
  (0.0928585 -0.0381426 0)
  (0.0835304 -0.040102 0)
  (0.0738445 -0.0383813 0)
  (0.0676302 -0.0330661 0)
  (0.0644136 -0.0268534 0)
  (0.0621493 -0.020095 0)
  (0.0635301 -0.0123428 0)
  (0.0706829 -0.0089816 0)
  (0.0770486 -0.00722646 0)
  (0.0817917 -0.00618865 0)
  (0.0856553 -0.00530128 0)
  (0.0886217 -0.00420151 0)
  (0.0898383 -0.00250173 0)
  (0.0873625 0.000374014 0)
  (0.0788846 0.00499906 0)
  (0.0704237 0.0269002 0)
  (0.0702265 0.046635 0)
  (0.0316576 0.0685641 0)
  (0.175487 0.100856 0)
  (0.498946 0.309054 0)
  (-0.199122 0.141331 0)
  (-0.0320466 0.113255 0)
  (-0.0570691 0.0867353 0)
  (-0.0647684 0.0609306 0)
  (-0.0711651 0.0302391 0)
  (-0.0716326 -0.00920823 0)
  (-0.0586753 -0.056433 0)
  (-0.0421134 -0.0984542 0)
  (-0.0246728 -0.125933 0)
  (-0.00833313 -0.13682 0)
  (0.00616927 -0.131197 0)
  (0.0177399 -0.112694 0)
  (0.0280206 -0.0857553 0)
  (0.0384904 -0.0556056 0)
  (0.0509621 -0.0284622 0)
  (0.0669049 -0.011736 0)
  (0.0788497 -0.0167869 0)
  (0.0792139 -0.024427 0)
  (0.0709569 -0.0287612 0)
  (0.0624925 -0.0290555 0)
  (0.05598 -0.0264688 0)
  (0.0514358 -0.0224821 0)
  (0.0487596 -0.017324 0)
  (0.0492934 -0.0104726 0)
  (0.0529696 -0.00707553 0)
  (0.0571128 -0.00600086 0)
  (0.0610814 -0.00555619 0)
  (0.064972 -0.0047721 0)
  (0.0685928 -0.00297294 0)
  (0.0715211 0.000621179 0)
  (0.072975 0.00651714 0)
  (0.0721895 0.0153827 0)
  (0.0711667 0.030831 0)
  (0.0775182 0.0479646 0)
  (0.0660796 0.065007 0)
  (0.134815 0.0998665 0)
  (0.127796 0.0796642 0)
  (0.114927 0.0577783 0)
  (-0.153347 0.0581859 0)
  (0.577303 0.345836 0)
  (-0.234836 0.157022 0)
  (-0.00333051 0.113565 0)
  (-0.0203239 0.0911847 0)
  (-0.020258 0.0659971 0)
  (-0.0213239 0.0342878 0)
  (-0.0124586 -0.0108633 0)
  (0.00704106 -0.0709851 0)
  (0.0200459 -0.114902 0)
  (0.0296055 -0.14008 0)
  (0.0360298 -0.147773 0)
  (0.0396097 -0.139864 0)
  (0.0414261 -0.11986 0)
  (0.0427215 -0.0923988 0)
  (0.0447679 -0.063114 0)
  (0.0487385 -0.0376645 0)
  (0.054721 -0.0213297 0)
  (0.0581058 -0.0185529 0)
  (0.0554762 -0.0216244 0)
  (0.0487452 -0.0233459 0)
  (0.0415542 -0.0230225 0)
  (0.0354681 -0.021336 0)
  (0.0309677 -0.0188467 0)
  (0.0284325 -0.0156718 0)
  (0.0284536 -0.0121907 0)
  (0.0307869 -0.0106206 0)
  (0.0341402 -0.0103659 0)
  (0.0378938 -0.0102695 0)
  (0.0418815 -0.00956531 0)
  (0.0460206 -0.00761772 0)
  (0.0502433 -0.00356472 0)
  (0.0549646 0.00355535 0)
  (0.0588062 0.0136803 0)
  (0.0628903 0.0269462 0)
  (0.0710951 0.0407418 0)
  (0.072123 0.0492942 0)
  (0.0959652 0.0660749 0)
  (0.0938272 0.0533513 0)
  (0.111743 0.0518519 0)
  (-0.14803 0.0875042 0)
  (0.620528 0.378144 0)
  (-0.25672 0.145857 0)
  (0.0191251 0.079793 0)
  (0.0240243 0.0815637 0)
  (0.0301084 0.0638079 0)
  (0.0363772 0.0268381 0)
  (0.0615961 -0.0311051 0)
  (0.0798438 -0.0853377 0)
  (0.0870888 -0.123407 0)
  (0.086763 -0.143695 0)
  (0.081187 -0.147436 0)
  (0.0721742 -0.136981 0)
  (0.0618009 -0.115897 0)
  (0.051769 -0.0886386 0)
  (0.0434213 -0.060724 0)
  (0.0377401 -0.0372361 0)
  (0.0347467 -0.0220379 0)
  (0.0320627 -0.0165052 0)
  (0.0275101 -0.0163022 0)
  (0.0214766 -0.0168777 0)
  (0.0153295 -0.0169211 0)
  (0.0100051 -0.016431 0)
  (0.00600349 -0.0155976 0)
  (0.00373317 -0.0145513 0)
  (0.00352987 -0.0136292 0)
  (0.00508436 -0.0136048 0)
  (0.00757843 -0.0140829 0)
  (0.01052 -0.0143669 0)
  (0.0137518 -0.0139404 0)
  (0.0173358 -0.0123506 0)
  (0.021559 -0.00892932 0)
  (0.0271745 -0.00250708 0)
  (0.0351328 0.00760903 0)
  (0.0430358 0.0194962 0)
  (0.0526074 0.0310856 0)
  (0.0589666 0.038845 0)
  (0.0719781 0.0514459 0)
  (0.0771126 0.0570928 0)
  (0.122754 0.0753924 0)
  (-0.114409 0.144932 0)
  (0.710999 0.383592 0)
  (-0.0817904 0.118763 0)
  (0.0760784 0.0135504 0)
  (0.115822 0.0120919 0)
  (0.116682 0.00425386 0)
  (0.126816 -0.0313305 0)
  (0.154286 -0.0687189 0)
  (0.164206 -0.10087 0)
  (0.158525 -0.123402 0)
  (0.142614 -0.1339 0)
  (0.120637 -0.13207 0)
  (0.0959646 -0.119298 0)
  (0.0716415 -0.0983673 0)
  (0.0496418 -0.072788 0)
  (0.0313354 -0.0477504 0)
  (0.0176624 -0.0277789 0)
  (0.00880146 -0.0156385 0)
  (0.00285586 -0.0108794 0)
  (-0.00256306 -0.0102763 0)
  (-0.00792096 -0.0109141 0)
  (-0.0130002 -0.0115998 0)
  (-0.0173859 -0.0121934 0)
  (-0.0207882 -0.0127962 0)
  (-0.0229761 -0.0134842 0)
  (-0.0238605 -0.0143529 0)
  (-0.0236969 -0.0154957 0)
  (-0.0229217 -0.0166433 0)
  (-0.0218334 -0.0174111 0)
  (-0.020591 -0.0174897 0)
  (-0.0192253 -0.0166956 0)
  (-0.0174926 -0.0149109 0)
  (-0.0146094 -0.0116847 0)
  (-0.008141 -0.00586114 0)
  (0.00404831 0.00320079 0)
  (0.0145468 0.0113159 0)
  (0.0229024 0.0157093 0)
  (0.0341885 0.0211156 0)
  (0.043712 0.0232142 0)
  (0.122333 0.0767055 0)
  (-0.365191 0.212942 0)
  (0.830697 0.375304 0)
  (0.400392 0.261673 0)
  (0.403575 0.202494 0)
  (0.393154 0.139757 0)
  (0.359548 0.0887063 0)
  (0.334127 0.0392279 0)
  (0.302079 -0.0123119 0)
  (0.264631 -0.0554608 0)
  (0.223763 -0.0837809 0)
  (0.180751 -0.0965733 0)
  (0.137533 -0.0959125 0)
  (0.0963225 -0.0848959 0)
  (0.0596641 -0.0670585 0)
  (0.0287234 -0.0454852 0)
  (0.00482392 -0.0255773 0)
  (-0.0116861 -0.0115543 0)
  (-0.0209829 -0.00515776 0)
  (-0.0269806 -0.00308032 0)
  (-0.0316955 -0.00315772 0)
  (-0.0359916 -0.00404376 0)
  (-0.0399864 -0.00511674 0)
  (-0.0436535 -0.00626905 0)
  (-0.0469516 -0.00755897 0)
  (-0.0498185 -0.00898782 0)
  (-0.0522608 -0.0105302 0)
  (-0.0543879 -0.0121197 0)
  (-0.056342 -0.0135588 0)
  (-0.0582539 -0.0146082 0)
  (-0.0603774 -0.015063 0)
  (-0.0632718 -0.0147448 0)
  (-0.0677601 -0.0133365 0)
  (-0.0745446 -0.00977486 0)
  (-0.0841019 -0.00206814 0)
  (-0.0949495 0.0102473 0)
  (-0.108701 0.026701 0)
  (-0.132032 0.0486998 0)
  (-0.16444 0.0780409 0)
  (-0.205819 0.112226 0)
  (-0.273462 0.14493 0)
  (-0.546016 0.166871 0)
  (0.124297 0.0575273 0)
  (0.21681 0.0829604 0)
  (0.245163 0.0558977 0)
  (0.235826 0.0180991 0)
  (0.221242 -0.0139289 0)
  (0.199289 -0.0385078 0)
  (0.168787 -0.054191 0)
  (0.131147 -0.0606445 0)
  (0.0901512 -0.0583911 0)
  (0.0495826 -0.0489053 0)
  (0.0138351 -0.0345592 0)
  (-0.0162026 -0.0165936 0)
  (-0.033464 -0.00450969 0)
  (-0.0436555 0.00271058 0)
  (-0.0493472 0.00563155 0)
  (-0.05298 0.00640619 0)
  (-0.0558998 0.00604273 0)
  (-0.0587402 0.00502475 0)
  (-0.0616928 0.00390689 0)
  (-0.0649059 0.00285562 0)
  (-0.0684849 0.00185284 0)
  (-0.072485 0.00104388 0)
  (-0.076974 0.000604185 0)
  (-0.0819868 0.000763966 0)
  (-0.0874623 0.00186754 0)
  (-0.0932043 0.00433518 0)
  (-0.098966 0.00853878 0)
  (-0.104724 0.0144879 0)
  (-0.110806 0.0210265 0)
  (-0.117551 0.0261632 0)
  (-0.123887 0.0308779 0)
  (-0.129113 0.0380646 0)
  (-0.133304 0.0499717 0)
  (-0.136232 0.0676662 0)
  (-0.135289 0.0893828 0)
  (-0.126052 0.101052 0)
  (-0.112858 0.0599973 0)
  (-0.191662 -0.168914 0)
  (0.015447 0.160118 0)
  (0.0689238 0.101558 0)
  (0.0856416 0.0384907 0)
  (0.0945191 -0.0112788 0)
  (0.094035 -0.0472548 0)
  (0.0851183 -0.0627726 0)
  (0.0640877 -0.0666621 0)
  (0.0369396 -0.0662179 0)
  (0.00799631 -0.0637908 0)
  (-0.0191129 -0.0628468 0)
  (-0.0388874 -0.0643967 0)
  (-0.0532037 -0.0652873 0)
  (-0.0613148 -0.0670801 0)
  (-0.0656251 -0.0691334 0)
  (-0.0677487 -0.0712209 0)
  (-0.0691592 -0.0735223 0)
  (-0.0705064 -0.0758299 0)
  (-0.072151 -0.0778505 0)
  (-0.0742249 -0.0794293 0)
  (-0.0766791 -0.0805354 0)
  (-0.0795247 -0.0819389 0)
  (-0.0829092 -0.0839206 0)
  (-0.087035 -0.086788 0)
  (-0.0921372 -0.0908063 0)
  (-0.0984144 -0.096011 0)
  (-0.105842 -0.101932 0)
  (-0.113896 -0.107235 0)
  (-0.121494 -0.109418 0)
  (-0.127455 -0.107357 0)
  (-0.131063 -0.0989513 0)
  (-0.131824 -0.0840143 0)
  (-0.128283 -0.06306 0)
  (-0.118159 -0.0367282 0)
  (-0.0991827 -0.00666657 0)
  (-0.0708912 0.0222967 0)
  (-0.0375811 0.0355371 0)
  (0.0875334 -0.0662544 0)
  (-0.148245 -0.127403 0)
  (-0.038093 -0.255855 0)
  (-0.311657 -0.0488749 0)
  (-0.21775 0.179892 0)
  (-0.147704 0.156554 0)
  (-0.0878331 0.154009 0)
  (-0.0540287 0.176985 0)
  (-0.0423425 0.20559 0)
  (-0.0423625 0.20779 0)
  (-0.0525087 0.202974 0)
  (-0.0656806 0.204239 0)
  (-0.0770728 0.209406 0)
  (-0.0850919 0.217027 0)
  (-0.0893005 0.226313 0)
  (-0.0903456 0.233827 0)
  (-0.0897912 0.240201 0)
  (-0.0888144 0.245188 0)
  (-0.0879635 0.248689 0)
  (-0.087632 0.251484 0)
  (-0.0879861 0.253743 0)
  (-0.0890503 0.255315 0)
  (-0.0907905 0.255962 0)
  (-0.09313 0.255668 0)
  (-0.0960293 0.255709 0)
  (-0.099394 0.256599 0)
  (-0.103075 0.259011 0)
  (-0.106876 0.263581 0)
  (-0.110571 0.270613 0)
  (-0.113918 0.27966 0)
  (-0.116648 0.289027 0)
  (-0.118398 0.295451 0)
  (-0.11873 0.298257 0)
  (-0.116811 0.296066 0)
  (-0.111229 0.28952 0)
  (-0.100012 0.280341 0)
  (-0.0812886 0.270876 0)
  (-0.0552345 0.264495 0)
  (-0.0247027 0.264964 0)
  (0.0173675 0.272555 0)
  (0.133095 0.328139 0)
  (-0.293016 0.324418 0)
)
;

boundaryField
{
  floor
  {
    type noSlip;
  }
  ceiling
  {
    type noSlip;
  }
  sWall
  {
    type noSlip;
  }
  nWall
  {
    type noSlip;
  }
  sideWalls
  {
    type empty;
  }
  glass1
  {
    type noSlip;
  }
  glass2
  {
    type noSlip;
  }
  sun
  {
    type noSlip;
  }
  heatsource1
  {
    type noSlip;
  }
  heatsource2
  {
    type noSlip;
  }
  Table_master
  {
    type noSlip;
  }
  Table_slave
  {
    type noSlip;
  }
  inlet
  {
    type fixedValue;
    value uniform (0.277164 -0.114805 0);
  }
  outlet
  {
    type zeroGradient;
  }
} 	// ************************************************************************* //

