// -*- C++ -*-
// File generated by PyFoam - sorry for the ugliness

FoamFile
{
 version 2.0;
 format ascii;
 class volScalarField;
 location "100";
 object T;
}

dimensions [ 0 0 0 1 0 0 0 ];

internalField nonuniform List<scalar> 459
(
  301.558
  301.184
  301.177
  301.18
  301.183
  301.185
  301.187
  301.188
  301.189
  301.191
  301.19
  301.189
  301.185
  301.181
  301.177
  301.094
  301.046
  301.026
  301.011
  300.998
  300.987
  300.976
  300.965
  300.953
  300.938
  300.921
  300.902
  300.883
  300.863
  300.844
  300.825
  300.807
  300.791
  300.805
  301.822
  301.209
  301.182
  301.189
  301.197
  301.204
  301.21
  301.216
  301.22
  301.224
  301.223
  301.218
  301.208
  301.192
  301.171
  301.151
  301.112
  301.069
  301.039
  301.018
  301.002
  300.989
  300.976
  300.959
  300.94
  300.92
  300.898
  300.876
  300.852
  300.828
  300.805
  300.782
  300.762
  300.743
  300.729
  300.774
  302.075
  301.26
  301.202
  301.215
  301.231
  301.246
  301.26
  301.271
  301.28
  301.286
  301.285
  301.276
  301.258
  301.231
  301.199
  301.168
  301.145
  301.066
  301.045
  301.032
  301.016
  301.001
  300.988
  300.966
  300.937
  300.909
  300.881
  300.855
  300.828
  300.802
  300.777
  300.754
  300.74
  300.723
  300.713
  300.761
  302.309
  301.33
  301.227
  301.242
  301.267
  301.292
  301.315
  301.336
  301.352
  301.362
  301.363
  301.352
  301.326
  301.288
  301.242
  301.194
  301.15
  301.121
  301.095
  301.078
  301.059
  301.037
  301.018
  301.003
  300.986
  300.976
  300.969
  300.962
  300.956
  300.948
  300.939
  300.929
  300.915
  300.862
  300.801
  300.748
  300.767
  302.525
  301.417
  301.257
  301.264
  301.296
  301.33
  301.364
  301.396
  301.424
  301.442
  301.45
  301.44
  301.411
  301.367
  301.313
  301.257
  301.207
  301.169
  301.139
  301.115
  301.088
  301.057
  301.035
  301.02
  301.007
  300.998
  300.992
  300.985
  300.979
  300.97
  300.96
  300.946
  300.928
  300.895
  300.842
  300.781
  300.764
  300.842
  300.885
  300.904
  302.71
  301.524
  301.309
  301.283
  301.313
  301.352
  301.393
  301.434
  301.475
  301.508
  301.527
  301.523
  301.495
  301.448
  301.389
  301.326
  301.267
  301.219
  301.181
  301.15
  301.116
  301.074
  301.05
  301.035
  301.024
  301.016
  301.01
  301.005
  300.998
  300.99
  300.977
  300.96
  300.939
  300.91
  300.868
  300.813
  300.78
  300.799
  300.811
  300.853
  302.85
  301.704
  301.467
  301.357
  301.343
  301.369
  301.406
  301.447
  301.494
  301.548
  301.583
  301.586
  301.561
  301.515
  301.457
  301.392
  301.327
  301.267
  301.22
  301.182
  301.142
  301.09
  301.063
  301.049
  301.039
  301.033
  301.028
  301.024
  301.019
  301.011
  300.998
  300.978
  300.951
  300.923
  300.887
  300.844
  300.813
  300.812
  300.818
  300.852
  303.1
  302.236
  301.977
  301.734
  301.575
  301.501
  301.485
  301.502
  301.536
  301.596
  301.627
  301.625
  301.598
  301.555
  301.501
  301.441
  301.377
  301.31
  301.256
  301.211
  301.168
  301.104
  301.075
  301.062
  301.054
  301.05
  301.047
  301.044
  301.041
  301.035
  301.025
  301.009
  300.981
  300.949
  300.924
  300.898
  300.891
  300.916
  300.944
  301.15
  303.449
  303.085
  302.801
  302.498
  302.227
  302.025
  301.891
  301.812
  301.775
  301.74
  301.699
  301.653
  301.606
  301.556
  301.505
  301.453
  301.398
  301.342
  301.288
  301.237
  301.192
  301.117
  301.088
  301.076
  301.07
  301.067
  301.066
  301.066
  301.067
  301.067
  301.067
  301.07
  301.078
  301.089
  301.114
  301.155
  301.21
  301.262
  301.297
  301.383
  297.872
  300.165
  301.158
  301.482
  301.587
  301.617
  301.618
  301.607
  301.587
  301.56
  301.528
  301.494
  301.458
  301.421
  301.383
  301.343
  301.301
  301.259
  301.213
  301.131
  301.101
  301.092
  301.088
  301.087
  301.088
  301.091
  301.096
  301.102
  301.11
  301.119
  301.129
  301.144
  301.168
  301.2
  301.237
  301.266
  301.279
  301.295
  298.291
  300.12
  300.851
  301.18
  301.327
  301.39
  301.413
  301.415
  301.413
  301.406
  301.396
  301.384
  301.37
  301.354
  301.336
  301.316
  301.294
  301.27
  301.229
  301.14
  301.117
  301.113
  301.11
  301.109
  301.11
  301.112
  301.116
  301.121
  301.128
  301.135
  301.145
  301.157
  301.176
  301.2
  301.226
  301.247
  301.239
  301.274
  299.347
  299.299
  299.297
  300.393
  300.833
  301.146
  301.22
  301.258
  301.276
  301.284
  301.288
  301.291
  301.293
  301.295
  301.295
  301.295
  301.293
  301.291
  301.286
  301.279
  301.241
  301.163
  301.155
  301.154
  301.154
  301.154
  301.155
  301.156
  301.157
  301.158
  301.159
  301.161
  301.163
  301.168
  301.176
  301.197
  301.21
  301.219
  301.222
  301.261
)
;

boundaryField
{
  floor
  {
    type wallHeatTransfer;
    Tinf uniform 305.2;
    alphaWall uniform 0.24;
    value nonuniform List<scalar> 29
(
  301.659
  301.763
  301.668
  301.648
  301.631
  301.621
  301.624
  301.647
  301.673
  301.696
  301.718
  301.737
  301.755
  301.771
  301.784
  301.797
  301.809
  301.82
  301.791
  301.833
  301.833
  301.598
  301.477
  301.436
  301.659
  301.763
  301.606
  301.526
  301.494
)
;
  }
  ceiling
  {
    type wallHeatTransfer;
    Tinf uniform 303.2;
    alphaWall uniform 0.24;
    value nonuniform List<scalar> 43
(
  299.581
  299.528
  299.519
  300.546
  300.968
  301.273
  301.351
  301.392
  301.417
  301.432
  301.443
  301.453
  301.462
  301.47
  301.477
  301.484
  301.489
  301.491
  301.491
  301.489
  301.458
  301.373
  301.363
  301.36
  301.359
  301.359
  301.359
  301.36
  301.36
  301.359
  301.355
  301.351
  301.347
  301.343
  301.343
  301.353
  301.364
  301.375
  301.387
  301.433
  303.438
  303.089
  298.56
)
;
  }
  sWall
  {
    type wallHeatTransfer;
    Tinf uniform 315.2;
    alphaWall uniform 0.36;
    value uniform 300.755;
  }
  nWall
  {
    type wallHeatTransfer;
    Tinf uniform 307.2;
    alphaWall uniform 0.36;
    value nonuniform List<scalar> 6
(
  301.895
  301.805
  301.674
  302.035
  302.005
  302.021
)
;
  }
  sideWalls
  {
    type empty;
  }
  glass1
  {
    type wallHeatTransfer;
    Tinf uniform 315.2;
    alphaWall uniform 4.3;
    value nonuniform List<scalar> 9
(
  311.809
  310.762
  310.065
  309.53
  309.121
  308.795
  308.516
  308.57
  308.818
)
;
  }
  glass2
  {
    type wallHeatTransfer;
    Tinf uniform 307.2;
    alphaWall uniform 4.3;
    value nonuniform List<scalar> 2
(
  304.634
  304.845
)
;
  }
  sun
  {
    type wallHeatTransfer;
    Tinf uniform 305.2;
    alphaWall uniform 0.24;
    value nonuniform List<scalar> 14
(
  302.072
  301.738
  301.747
  301.736
  301.725
  301.717
  301.709
  301.702
  301.696
  301.689
  301.682
  301.676
  301.669
  301.663
)
;
  }
  heatsource1
  {
    type fixedGradient;
    gradient uniform 0;
  }
  heatsource2
  {
    type fixedGradient;
    gradient uniform 0;
  }
  Table_master
  {
    type zeroGradient;
  }
  Table_slave
  {
    type zeroGradient;
  }
  inlet
  {
    type fixedValue;
    value uniform 293.15;
  }
  outlet
  {
    type zeroGradient;
  }
} 	// ************************************************************************* //

