// -*- C++ -*-
// File generated by PyFoam - sorry for the ugliness

FoamFile
{
 version 2.0;
 format ascii;
 class volVectorField;
 location "100";
 object U;
}

dimensions [ 0 1 -1 0 0 0 0 ];

internalField nonuniform List<vector> 459
(
  (0.096712 0.0744419 0)
  (-0.148757 0.00574132 0)
  (-0.138498 0.00969705 0)
  (-0.159234 0.00932756 0)
  (-0.178329 0.00739659 0)
  (-0.194821 0.00477995 0)
  (-0.207706 0.00164884 0)
  (-0.216101 -0.00201482 0)
  (-0.219058 -0.00630455 0)
  (-0.215426 -0.0114039 0)
  (-0.203602 -0.017751 0)
  (-0.181209 -0.025727 0)
  (-0.147197 -0.0368218 0)
  (-0.110504 -0.0540224 0)
  (-0.102825 -0.0770028 0)
  (0.0955179 -0.00882353 0)
  (-0.0120186 -0.0100031 0)
  (0.0127922 -0.0103317 0)
  (0.0311731 -0.00979591 0)
  (0.0445975 -0.00983469 0)
  (0.0562777 -0.00821696 0)
  (0.064122 -0.00364835 0)
  (0.0656396 -0.000899791 0)
  (0.0631891 0.000159098 0)
  (0.0598596 0.000509821 0)
  (0.0568411 0.000635566 0)
  (0.0541791 0.00063294 0)
  (0.0517799 0.00054179 0)
  (0.0495937 0.000472792 0)
  (0.0473572 0.000719084 0)
  (0.0443518 0.00159713 0)
  (0.0400641 0.00180738 0)
  (0.0447236 0.000915037 0)
  (-0.0347477 0.0219107 0)
  (0.313313 0.161848 0)
  (-0.171668 0.0273074 0)
  (-0.124593 0.032671 0)
  (-0.151766 0.0315346 0)
  (-0.172318 0.0283796 0)
  (-0.189758 0.0239542 0)
  (-0.203512 0.0183133 0)
  (-0.212926 0.0113038 0)
  (-0.21717 0.00269221 0)
  (-0.215216 -0.00778375 0)
  (-0.206328 -0.0198258 0)
  (-0.189492 -0.0333201 0)
  (-0.165144 -0.049352 0)
  (-0.137333 -0.0699943 0)
  (-0.110898 -0.0904228 0)
  (-0.0792334 -0.086507 0)
  (-0.0102735 -0.0104926 0)
  (0.124575 -0.00781213 0)
  (0.0121057 -0.00524836 0)
  (0.0115665 -0.0101462 0)
  (0.0233734 -0.0149746 0)
  (0.0340843 -0.0180506 0)
  (0.0449267 -0.0162943 0)
  (0.0536154 -0.00353947 0)
  (0.0546007 0.00325062 0)
  (0.0531554 0.00522905 0)
  (0.0523867 0.00548511 0)
  (0.0522972 0.00527872 0)
  (0.0523525 0.00490528 0)
  (0.0523792 0.00450089 0)
  (0.0523838 0.00429543 0)
  (0.0519452 0.00491855 0)
  (0.0492205 0.00818402 0)
  (0.0419683 0.00936344 0)
  (0.0528118 0.00793394 0)
  (-0.0938989 0.0472327 0)
  (0.497661 0.247958 0)
  (-0.221153 0.059083 0)
  (-0.101925 0.0590116 0)
  (-0.137161 0.0524178 0)
  (-0.157318 0.0456566 0)
  (-0.174873 0.0373764 0)
  (-0.189222 0.0272276 0)
  (-0.19985 0.0149879 0)
  (-0.205958 0.000553767 0)
  (-0.206435 -0.0159042 0)
  (-0.201073 -0.0342726 0)
  (-0.190259 -0.0538548 0)
  (-0.175479 -0.0741459 0)
  (-0.159196 -0.0942373 0)
  (-0.142345 -0.109528 0)
  (-0.127685 -0.113669 0)
  (-0.138428 -0.114248 0)
  (0.0698533 0.00253157 0)
  (-0.0325433 -0.00650433 0)
  (-0.0144482 -0.0174427 0)
  (0.00331754 -0.026023 0)
  (0.0166069 -0.0307498 0)
  (0.0275039 -0.0328754 0)
  (0.042753 -0.0171971 0)
  (0.040658 -0.00737349 0)
  (0.0389368 -0.00356928 0)
  (0.0410633 -0.00223176 0)
  (0.0443767 -0.00175359 0)
  (0.0473683 -0.00167862 0)
  (0.0498566 -0.00179964 0)
  (0.0521759 -0.00184328 0)
  (0.054869 7.79229e-05 0)
  (0.0534133 0.0135559 0)
  (0.0403508 0.0192496 0)
  (0.0663837 0.0187846 0)
  (-0.142749 0.0708436 0)
  (0.649639 0.320367 0)
  (-0.275213 0.0958748 0)
  (-0.0720887 0.084955 0)
  (-0.116584 0.0731072 0)
  (-0.133935 0.064114 0)
  (-0.149781 0.05357 0)
  (-0.16334 0.0406737 0)
  (-0.174116 0.024977 0)
  (-0.181291 0.0062276 0)
  (-0.183579 -0.0153261 0)
  (-0.180761 -0.0385925 0)
  (-0.174657 -0.061849 0)
  (-0.167413 -0.083341 0)
  (-0.161531 -0.10112 0)
  (-0.159341 -0.111899 0)
  (-0.166055 -0.111165 0)
  (-0.183377 -0.0871432 0)
  (-0.166903 -0.0154632 0)
  (-0.108259 -0.0226287 0)
  (-0.0718775 -0.0305785 0)
  (-0.0388328 -0.0412484 0)
  (-0.0156417 -0.0427333 0)
  (-0.00268463 -0.0426274 0)
  (0.00221028 -0.0410666 0)
  (0.011159 -0.0235733 0)
  (0.0330557 -0.018313 0)
  (0.0514491 -0.0155214 0)
  (0.0670697 -0.0135419 0)
  (0.0805027 -0.0114759 0)
  (0.0910638 -0.00869414 0)
  (0.0971025 -0.00479971 0)
  (0.0958045 0.000480216 0)
  (0.0854318 0.00753496 0)
  (0.0673353 0.0244531 0)
  (0.044324 0.0377625 0)
  (0.0777458 0.0448736 0)
  (-0.220436 0.0902401 0)
  (0.772472 0.380292 0)
  (-0.324084 0.133716 0)
  (-0.038767 0.10481 0)
  (-0.0910461 0.089605 0)
  (-0.103978 0.0792383 0)
  (-0.116094 0.0670013 0)
  (-0.126759 0.051917 0)
  (-0.135554 0.0333895 0)
  (-0.14174 0.0110634 0)
  (-0.143711 -0.0146599 0)
  (-0.140922 -0.0416283 0)
  (-0.136303 -0.0666559 0)
  (-0.131968 -0.0874644 0)
  (-0.129868 -0.102939 0)
  (-0.131365 -0.112444 0)
  (-0.136822 -0.114817 0)
  (-0.140035 -0.104243 0)
  (-0.128916 -0.0741819 0)
  (-0.102976 -0.06293 0)
  (-0.0729371 -0.065608 0)
  (-0.04436 -0.0691957 0)
  (-0.0224864 -0.0600928 0)
  (-0.0103817 -0.0531026 0)
  (-0.00213595 -0.0457816 0)
  (0.00961834 -0.0332627 0)
  (0.0242354 -0.0270966 0)
  (0.038179 -0.0237949 0)
  (0.0511714 -0.0212571 0)
  (0.0632168 -0.0179322 0)
  (0.0737651 -0.0123918 0)
  (0.08158 -0.00346612 0)
  (0.0847297 0.00839852 0)
  (0.0815564 0.0223899 0)
  (0.0731108 0.0398201 0)
  (0.0552432 0.0569426 0)
  (0.0858665 0.0748185 0)
  (-0.058149 0.0995539 0)
  (0.0589545 0.0195394 0)
  (-0.0707669 -0.0351172 0)
  (-0.316545 -0.0621189 0)
  (0.855851 0.433708 0)
  (-0.36489 0.167148 0)
  (-0.0107291 0.112159 0)
  (-0.0603125 0.101331 0)
  (-0.0691438 0.0901148 0)
  (-0.0766539 0.0763662 0)
  (-0.0827743 0.0597578 0)
  (-0.0876038 0.0394155 0)
  (-0.0908128 0.0145481 0)
  (-0.089786 -0.0148419 0)
  (-0.085309 -0.0451357 0)
  (-0.0813199 -0.0707515 0)
  (-0.0791645 -0.0896852 0)
  (-0.0799434 -0.10193 0)
  (-0.0841341 -0.1079 0)
  (-0.0907414 -0.107267 0)
  (-0.0949895 -0.098937 0)
  (-0.0915319 -0.0872783 0)
  (-0.0800595 -0.0842144 0)
  (-0.0623533 -0.0900401 0)
  (-0.0409108 -0.0932068 0)
  (-0.0229654 -0.0745077 0)
  (-0.0140792 -0.0625785 0)
  (-0.00699357 -0.05356 0)
  (0.0011086 -0.044227 0)
  (0.0106631 -0.0385924 0)
  (0.0203083 -0.0355017 0)
  (0.0300698 -0.0331142 0)
  (0.0399878 -0.0296996 0)
  (0.0500268 -0.0232849 0)
  (0.0597024 -0.0118247 0)
  (0.0686126 0.00524791 0)
  (0.072377 0.0244305 0)
  (0.0732595 0.0444576 0)
  (0.068763 0.06382 0)
  (0.0954976 0.0868635 0)
  (0.0589125 0.097003 0)
  (0.113236 0.0656086 0)
  (0.135824 0.0464531 0)
  (-0.139002 -0.00227715 0)
  (0.877449 0.482095 0)
  (-0.384859 0.166153 0)
  (0.00995329 0.0809917 0)
  (-0.0124429 0.108579 0)
  (-0.0239136 0.102064 0)
  (-0.0301901 0.0823358 0)
  (-0.0319019 0.0625261 0)
  (-0.0313986 0.0407644 0)
  (-0.0297336 0.0139899 0)
  (-0.0202977 -0.0192356 0)
  (-0.0138309 -0.0507771 0)
  (-0.0118928 -0.0742264 0)
  (-0.0135654 -0.0897032 0)
  (-0.0186701 -0.098471 0)
  (-0.0267604 -0.101717 0)
  (-0.0364629 -0.0999822 0)
  (-0.0448621 -0.0941198 0)
  (-0.0498709 -0.0891091 0)
  (-0.0514694 -0.091787 0)
  (-0.0461973 -0.104224 0)
  (-0.0324 -0.113034 0)
  (-0.0199933 -0.0848771 0)
  (-0.016213 -0.0688648 0)
  (-0.0131425 -0.0587447 0)
  (-0.0100168 -0.0507797 0)
  (-0.00628855 -0.0457134 0)
  (-0.00212916 -0.0429777 0)
  (0.00269713 -0.0412658 0)
  (0.00827619 -0.0389583 0)
  (0.0151712 -0.0339438 0)
  (0.0238894 -0.0235806 0)
  (0.0360614 -0.00529503 0)
  (0.0496574 0.0175617 0)
  (0.0596559 0.0386956 0)
  (0.0676288 0.0565751 0)
  (0.0932125 0.0755109 0)
  (0.106018 0.0753978 0)
  (0.144165 0.0457589 0)
  (0.188859 0.0427338 0)
  (-0.0237526 0.108838 0)
  (0.979995 0.503651 0)
  (-0.14654 0.151314 0)
  (0.077539 0.0224469 0)
  (0.108319 0.0586897 0)
  (0.0749676 0.0790295 0)
  (0.051668 0.064434 0)
  (0.046353 0.0420624 0)
  (0.0491565 0.019714 0)
  (0.0540955 -0.00840808 0)
  (0.0702698 -0.0345788 0)
  (0.0741174 -0.0562222 0)
  (0.0702341 -0.0726157 0)
  (0.0616461 -0.0834727 0)
  (0.0497634 -0.089188 0)
  (0.0356621 -0.0905872 0)
  (0.0205755 -0.0885236 0)
  (0.00626099 -0.0841297 0)
  (-0.00697398 -0.0812836 0)
  (-0.0203764 -0.0872574 0)
  (-0.0268571 -0.10823 0)
  (-0.0202687 -0.128778 0)
  (-0.0145311 -0.0907517 0)
  (-0.0168221 -0.0710855 0)
  (-0.0195733 -0.0600182 0)
  (-0.0222281 -0.052038 0)
  (-0.0249148 -0.0470448 0)
  (-0.0274942 -0.0444859 0)
  (-0.0298803 -0.0432659 0)
  (-0.0317966 -0.0420879 0)
  (-0.032614 -0.0395445 0)
  (-0.0313337 -0.034116 0)
  (-0.0257975 -0.0242607 0)
  (-0.00688192 -0.00854199 0)
  (0.0115486 0.0118808 0)
  (0.023621 0.0242236 0)
  (0.0439611 0.0332333 0)
  (0.0573868 0.0221312 0)
  (0.0686689 -0.00441165 0)
  (0.138522 0.0672879 0)
  (-0.55894 0.261968 0)
  (1.11479 0.458728 0)
  (0.53985 0.304581 0)
  (0.530812 0.252815 0)
  (0.480178 0.213655 0)
  (0.383818 0.182116 0)
  (0.304346 0.138674 0)
  (0.258528 0.0929603 0)
  (0.234057 0.0526939 0)
  (0.221454 0.017993 0)
  (0.202799 -0.0133103 0)
  (0.182471 -0.0384246 0)
  (0.161385 -0.0562971 0)
  (0.139661 -0.0673903 0)
  (0.11748 -0.072908 0)
  (0.095306 -0.0742502 0)
  (0.0737699 -0.0727483 0)
  (0.0535509 -0.0697181 0)
  (0.0341866 -0.0674815 0)
  (0.0110906 -0.0717586 0)
  (-0.0056047 -0.0978438 0)
  (-0.00526052 -0.134651 0)
  (-0.00754469 -0.0865575 0)
  (-0.0159176 -0.0656033 0)
  (-0.0255365 -0.0555822 0)
  (-0.0340895 -0.0482505 0)
  (-0.0430488 -0.0433707 0)
  (-0.0526339 -0.040357 0)
  (-0.063343 -0.0381473 0)
  (-0.0756428 -0.0354662 0)
  (-0.0898067 -0.0308382 0)
  (-0.106173 -0.0226206 0)
  (-0.125347 -0.00904356 0)
  (-0.146535 0.0106301 0)
  (-0.166261 0.033563 0)
  (-0.197722 0.0573451 0)
  (-0.245907 0.0786863 0)
  (-0.313682 0.0917702 0)
  (-0.386391 0.0933474 0)
  (-0.463904 0.0842028 0)
  (-0.751235 0.0625425 0)
  (-0.166329 0.145084 0)
  (0.185324 0.210201 0)
  (0.259938 0.193311 0)
  (0.253638 0.152103 0)
  (0.25366 0.105529 0)
  (0.256726 0.0623686 0)
  (0.255817 0.0261268 0)
  (0.248052 -0.00275261 0)
  (0.232422 -0.0238409 0)
  (0.211585 -0.0377842 0)
  (0.18776 -0.0458502 0)
  (0.162704 -0.0493851 0)
  (0.137768 -0.0496624 0)
  (0.113893 -0.0477942 0)
  (0.0914805 -0.0446868 0)
  (0.0689207 -0.0414148 0)
  (0.0404433 -0.0416038 0)
  (0.0213721 -0.0618662 0)
  (0.0120566 -0.118491 0)
  (-0.00433473 -0.056803 0)
  (-0.0179402 -0.0378397 0)
  (-0.0335474 -0.0329652 0)
  (-0.0455979 -0.0295273 0)
  (-0.0573639 -0.027875 0)
  (-0.0693824 -0.0273438 0)
  (-0.0825517 -0.0270623 0)
  (-0.0975116 -0.0258182 0)
  (-0.113631 -0.0218104 0)
  (-0.128689 -0.0129971 0)
  (-0.14032 0.00249576 0)
  (-0.148197 0.023614 0)
  (-0.153907 0.0507308 0)
  (-0.16014 0.0806196 0)
  (-0.168576 0.105886 0)
  (-0.175147 0.113806 0)
  (-0.157733 0.0826307 0)
  (-0.0899579 -0.0356724 0)
  (-0.293194 -0.2731 0)
  (-0.0950116 0.291343 0)
  (0.0746343 0.218257 0)
  (0.106021 0.163442 0)
  (0.144423 0.128756 0)
  (0.183238 0.0932301 0)
  (0.212616 0.0637849 0)
  (0.227892 0.0438168 0)
  (0.230107 0.0334351 0)
  (0.223215 0.0282698 0)
  (0.210484 0.0245807 0)
  (0.194205 0.0226229 0)
  (0.175872 0.0225686 0)
  (0.156663 0.0244305 0)
  (0.137534 0.0280377 0)
  (0.119197 0.0337744 0)
  (0.101108 0.0445232 0)
  (0.0795916 0.0523658 0)
  (0.0657308 -0.00482718 0)
  (0.0321265 -0.105448 0)
  (-0.0193014 0.000424154 0)
  (-0.0342016 0.028252 0)
  (-0.0525493 0.0311791 0)
  (-0.0655994 0.0415968 0)
  (-0.0762676 0.0495104 0)
  (-0.0850326 0.0558651 0)
  (-0.092359 0.0618638 0)
  (-0.0988223 0.0664818 0)
  (-0.104809 0.0677501 0)
  (-0.109873 0.0630251 0)
  (-0.111802 0.057842 0)
  (-0.107555 0.0586873 0)
  (-0.0956316 0.0687407 0)
  (-0.0771633 0.0876185 0)
  (-0.0536533 0.107524 0)
  (-0.026968 0.117556 0)
  (0.0169517 0.0991911 0)
  (0.142095 0.0121465 0)
  (-0.192723 -0.187803 0)
  (-0.257665 -0.421083 0)
  (-0.507315 -0.107452 0)
  (-0.358826 0.185626 0)
  (-0.192712 0.0807835 0)
  (-0.0776418 0.0438626 0)
  (0.0548885 0.013931 0)
  (0.12009 -0.0174781 0)
  (0.172073 -0.0464147 0)
  (0.203762 -0.0723694 0)
  (0.217949 -0.0964081 0)
  (0.220307 -0.118242 0)
  (0.21494 -0.136297 0)
  (0.20442 -0.152181 0)
  (0.190714 -0.167067 0)
  (0.175379 -0.181779 0)
  (0.159591 -0.196752 0)
  (0.144272 -0.211797 0)
  (0.13106 -0.225772 0)
  (0.12259 -0.238095 0)
  (0.112902 -0.25352 0)
  (0.0438247 -0.276646 0)
  (-0.0571782 -0.266354 0)
  (-0.0542367 -0.256918 0)
  (-0.0726371 -0.251129 0)
  (-0.0881923 -0.246137 0)
  (-0.10045 -0.243037 0)
  (-0.110672 -0.24045 0)
  (-0.11857 -0.236668 0)
  (-0.123475 -0.229712 0)
  (-0.124905 -0.217078 0)
  (-0.122444 -0.19579 0)
  (-0.114665 -0.169975 0)
  (-0.0974402 -0.139695 0)
  (-0.0675121 -0.106331 0)
  (-0.0272517 -0.0698614 0)
  (0.04693 -0.0288709 0)
  (0.106878 -0.0321661 0)
  (0.163665 -0.0652403 0)
  (0.209383 -0.126792 0)
  (-0.10835 -0.210642 0)
)
;

boundaryField
{
  floor
  {
    type noSlip;
  }
  ceiling
  {
    type noSlip;
  }
  sWall
  {
    type noSlip;
  }
  nWall
  {
    type noSlip;
  }
  sideWalls
  {
    type empty;
  }
  glass1
  {
    type noSlip;
  }
  glass2
  {
    type noSlip;
  }
  sun
  {
    type noSlip;
  }
  heatsource1
  {
    type noSlip;
  }
  heatsource2
  {
    type noSlip;
  }
  Table_master
  {
    type noSlip;
  }
  Table_slave
  {
    type noSlip;
  }
  inlet
  {
    type fixedValue;
    value uniform (0.277164 -0.114805 0);
  }
  outlet
  {
    type zeroGradient;
  }
} 	// ************************************************************************* //

