/*--------------------------------*- C++ -*----------------------------------*\
  =========                 |
  \\      /  F ield         | OpenFOAM: The Open Source CFD Toolbox
   \\    /   O peration     | Website:  https://openfoam.org
    \\  /    A nd           | Version:  6
     \\/     M anipulation  |
\*---------------------------------------------------------------------------*/
FoamFile
{
    version     2.0;
    format      ascii;
    class       volScalarField;
    location    "250";
    object      alphat;
}
// * * * * * * * * * * * * * * * * * * * * * * * * * * * * * * * * * * * * * //

dimensions      [1 -1 -1 0 0 0 0];

internalField   nonuniform List<scalar> 
459
(
0.00141903
0.00174847
0.00175858
0.00168211
0.00159784
0.00152076
0.00145101
0.0013888
0.00133145
0.00127667
0.00122238
0.00116626
0.00110504
0.00103244
0.000948354
0.000680041
0.000888586
0.000952899
0.000964684
0.000927904
0.000883667
0.000828165
0.000773927
0.000725636
0.000683431
0.00064651
0.000613979
0.000584873
0.000558755
0.000534255
0.000509737
0.000483692
0.000444287
0.000425345
0.00164355
0.00507546
0.00431757
0.00392553
0.00366094
0.00349023
0.00338019
0.00325886
0.00311651
0.00294571
0.00273491
0.00247153
0.00214707
0.00175753
0.00134067
0.000924247
0.000820547
0.00103056
0.00310059
0.00267559
0.00276977
0.00293173
0.00289099
0.00223112
0.00189497
0.00166479
0.00149405
0.00136255
0.00125914
0.00117808
0.00109309
0.00099705
0.00090562
0.000882764
0.000801129
0.000528636
0.00169228
0.00565534
0.00414258
0.00386078
0.00372308
0.00373517
0.00383939
0.0039186
0.00391871
0.00381309
0.0035934
0.00326345
0.00283852
0.00234429
0.00183011
0.00135327
0.000833362
0.00107798
0.00314287
0.00277248
0.00307267
0.00347983
0.00343361
0.00108963
0.000963371
0.000858655
0.000772586
0.000701705
0.00064304
0.000594378
0.0005558
0.000528028
0.000593347
0.000776636
0.00097667
0.00060422
0.00167712
0.00514293
0.00359899
0.00384643
0.00387447
0.00408622
0.00436823
0.00451076
0.0045072
0.00436825
0.00410758
0.00374178
0.0032925
0.00278753
0.0022594
0.00174696
0.00118922
0.000848454
0.0015986
0.00218164
0.00309012
0.00400262
0.0046328
0.00445417
0.00118634
0.00109012
0.00101386
0.000947744
0.000885743
0.000824265
0.000760842
0.000693183
0.000615889
0.000581462
0.000730729
0.00117256
0.000701044
0.00168057
0.004231
0.00320588
0.00406195
0.00431011
0.00476114
0.00501111
0.00501149
0.00491699
0.00473493
0.00446673
0.0041195
0.00371031
0.00326719
0.00281706
0.00240518
0.00206978
0.00218462
0.00298023
0.00410145
0.00515317
0.00592908
0.0063656
0.00637685
0.00548806
0.00494985
0.00442177
0.00389849
0.00337223
0.00284135
0.00230512
0.00176601
0.00122038
0.000833109
0.00079794
0.0011813
0.000999458
0.00077863
0.00085316
0.00125893
0.00166289
0.003524
0.00297152
0.00417474
0.00468088
0.00524721
0.00549972
0.00545664
0.00534302
0.00518463
0.00497692
0.00471363
0.0044116
0.00411371
0.0038605
0.00374456
0.00387297
0.00464497
0.00570488
0.00662625
0.00728846
0.00766117
0.00777193
0.00764688
0.00724226
0.00667076
0.00597556
0.00522028
0.00443901
0.00365233
0.00287456
0.00212691
0.00146032
0.00107857
0.00102263
0.00118708
0.00116548
0.00124533
0.00183742
0.00167543
0.0016329
0.00295051
0.00267219
0.00441065
0.00508218
0.00548067
0.00577623
0.00579187
0.00574504
0.00567909
0.00559489
0.00549705
0.00540352
0.00534497
0.00539483
0.00565068
0.00620145
0.00710042
0.00786744
0.00836299
0.00859295
0.00858229
0.00838532
0.00804175
0.00753117
0.00688911
0.00615719
0.00536744
0.00455469
0.00375636
0.00301521
0.00238256
0.00191579
0.00168336
0.00161409
0.00157195
0.0013825
0.00175054
0.00332188
0.00228271
0.00158271
0.00231669
0.00217963
0.00462156
0.00573611
0.00584649
0.00588274
0.00585521
0.00586721
0.00590343
0.0059539
0.00602539
0.00613697
0.00631992
0.00662029
0.00709805
0.00772455
0.00837199
0.00876906
0.00887946
0.00874054
0.00839047
0.00786937
0.007288
0.00669699
0.00609376
0.00546807
0.00482904
0.00420997
0.00365792
0.0032216
0.00293654
0.00280578
0.00277829
0.00271611
0.00253294
0.00202434
0.00238653
0.00604419
0.00316069
0.00153531
0.00143014
0.00148589
0.00454919
0.00648278
0.00654819
0.00642337
0.00639509
0.00644661
0.00652626
0.0066214
0.00673954
0.0068962
0.00711039
0.00739929
0.00776334
0.00814145
0.00840935
0.00844179
0.00821616
0.00777704
0.00722381
0.00665993
0.00613738
0.00567874
0.00527985
0.00493172
0.00464103
0.00442869
0.00431756
0.00431962
0.00442457
0.00458728
0.00471454
0.00467834
0.00439917
0.00373
0.00388123
0.00818629
0.00356799
0.00106753
0.00405855
0.00713824
0.00753062
0.00763623
0.00775684
0.00787574
0.00797386
0.00805218
0.00811929
0.00818438
0.00825415
0.0083292
0.00839697
0.00842343
0.00836224
0.00818922
0.00792492
0.00761211
0.0072935
0.00699819
0.00674156
0.00652973
0.00636614
0.00625666
0.00621143
0.00624199
0.00635584
0.00654956
0.00680008
0.00705386
0.00721923
0.00717036
0.00684152
0.00620575
0.00613253
0.00865985
0.00303918
0.00270686
0.0078919
0.00872974
0.00875024
0.00886366
0.0090286
0.00916731
0.00925844
0.00930765
0.0093251
0.00931899
0.00929539
0.00925916
0.00921329
0.00915621
0.00908042
0.00897649
0.00884418
0.00869445
0.0085413
0.00839459
0.00826108
0.00814793
0.00806415
0.00802021
0.00802721
0.00809532
0.0082313
0.00843442
0.00868881
0.00895019
0.00912667
0.00906614
0.00866138
0.00796135
0.00733552
0.0067523
0.00254635
0.00151932
0.00161067
0.00194777
0.00213976
0.00216592
0.00219064
0.00220311
0.00221126
0.00221586
0.00221772
0.00221786
0.0022172
0.00221653
0.00221645
0.00221716
0.00221812
0.00221791
0.00221488
0.00220838
0.00219915
0.00218855
0.00217788
0.00216819
0.00216032
0.00215495
0.00215276
0.00215435
0.00216031
0.00217095
0.0021861
0.00220459
0.00222347
0.00223687
0.00223609
0.00221812
0.00219781
0.00221664
0.00229642
0.00235582
0.00212335
)
;

boundaryField
{
    floor
    {
        type            compressible::alphatWallFunction;
        Prt             0.85;
        value           nonuniform List<scalar> 
29
(
0.000135371
9.66444e-05
0.000126896
0.000136044
0.000137714
0.0001325
0.000126195
0.000118231
0.000110387
0.000103346
9.71469e-05
9.16852e-05
8.68411e-05
8.24802e-05
7.85439e-05
7.48307e-05
7.10932e-05
6.70978e-05
6.1e-05
5.80461e-05
5.80453e-05
7.39818e-05
8.53909e-05
9.97521e-05
0.000135369
9.66433e-05
0.000146999
0.000153633
0.000121125
)
;
    }
    ceiling
    {
        type            compressible::alphatWallFunction;
        Prt             0.85;
        value           nonuniform List<scalar> 
43
(
0.000214069
0.000226296
0.000270798
0.000295761
0.000299146
0.000302339
0.000303948
0.000304999
0.000305592
0.000305832
0.000305851
0.000305766
0.00030568
0.00030567
0.000305763
0.000305887
0.00030586
0.000305469
0.000304632
0.000303442
0.000302073
0.000300695
0.000299444
0.000298426
0.000297732
0.000297448
0.000297653
0.000298422
0.000299796
0.000301751
0.000304135
0.000306566
0.000308291
0.000308188
0.000305872
0.000303252
0.000305679
0.000315942
0.000323557
0.000293633
0.000216078
0.000201914
0.000368151
)
;
    }
    sWall
    {
        type            compressible::alphatWallFunction;
        Prt             0.85;
        value           uniform 0.000214033;
    }
    nWall
    {
        type            compressible::alphatWallFunction;
        Prt             0.85;
        value           nonuniform List<scalar> 6(0.000178774 0.000234962 0.00031423 0.000409888 0.000347905 0.000293688);
    }
    sideWalls
    {
        type            empty;
    }
    glass1
    {
        type            compressible::alphatWallFunction;
        Prt             0.85;
        value           nonuniform List<scalar> 9(0.000200913 0.000231106 0.000237589 0.000235563 0.00023601 0.000233636 0.000229601 0.000222841 0.000216428);
    }
    glass2
    {
        type            compressible::alphatWallFunction;
        Prt             0.85;
        value           nonuniform List<scalar> 2(0.000427376 0.000477775);
    }
    sun
    {
        type            compressible::alphatWallFunction;
        Prt             0.85;
        value           nonuniform List<scalar> 
14
(
0.000200449
0.000244504
0.000245844
0.000235717
0.000224494
0.000214173
0.000204781
0.000196363
0.000188564
0.000181079
0.000173625
0.000165879
0.00015738
0.000147232
)
;
    }
    heatsource1
    {
        type            compressible::alphatWallFunction;
        Prt             0.85;
        value           nonuniform List<scalar> 3(0.000110799 0.000121552 0.000178394);
    }
    heatsource2
    {
        type            compressible::alphatWallFunction;
        Prt             0.85;
        value           nonuniform List<scalar> 4(0.000131707 0.000116863 0.000116862 0.000118708);
    }
    Table_master
    {
        type            compressible::alphatWallFunction;
        Prt             0.85;
        value           nonuniform List<scalar> 9(0.000154983 0.000137251 0.000122339 0.00010992 9.95689e-05 9.09052e-05 8.36456e-05 7.78382e-05 7.36265e-05);
    }
    Table_slave
    {
        type            compressible::alphatWallFunction;
        Prt             0.85;
        value           nonuniform List<scalar> 9(0.000168405 0.000155054 0.000144375 0.000135042 0.000126219 0.000117399 0.000108217 9.83191e-05 8.68666e-05);
    }
    inlet
    {
        type            fixedValue;
        value           uniform 1.94e-05;
    }
    outlet
    {
        type            zeroGradient;
    }
}


// ************************************************************************* //
