/*--------------------------------*- C++ -*----------------------------------*\
  =========                 |
  \\      /  F ield         | OpenFOAM: The Open Source CFD Toolbox
   \\    /   O peration     | Website:  https://openfoam.org
    \\  /    A nd           | Version:  6
     \\/     M anipulation  |
\*---------------------------------------------------------------------------*/
FoamFile
{
    version     2.0;
    format      ascii;
    class       volScalarField;
    location    "250";
    object      epsilon;
}
// * * * * * * * * * * * * * * * * * * * * * * * * * * * * * * * * * * * * * //

dimensions      [0 2 -3 0 0 0 0];

internalField   nonuniform List<scalar> 
459
(
0.000636807
0.00119173
0.00121317
0.00106216
0.000910631
0.000785251
0.000682165
0.000598209
0.000527173
0.000464794
0.00040803
0.000354407
0.000301503
0.000245925
0.000190604
7.07234e-05
0.000157701
0.000194414
0.000201728
0.000179563
0.00015512
0.000127712
0.000104244
8.59365e-05
7.18081e-05
6.0797e-05
5.20815e-05
4.5027e-05
3.92662e-05
3.43297e-05
2.98219e-05
2.5485e-05
1.97553e-05
1.73442e-05
0.000989514
0.00248794
0.00138817
0.00093575
0.000693845
0.00055408
0.000468389
0.000409908
0.000365855
0.000328531
0.000293603
0.000258915
0.000224112
0.000189416
0.000158288
0.000176573
0.00012359
0.000246116
0.000637948
0.000300505
0.00021171
0.000168363
0.000139368
0.000128331
0.000103898
8.23554e-05
6.5471e-05
5.25478e-05
4.26655e-05
3.49961e-05
2.90827e-05
2.46388e-05
2.22814e-05
2.61086e-05
2.77232e-05
3.33087e-05
0.00108009
0.00269511
0.00110343
0.000668199
0.000465535
0.000371013
0.000326696
0.000302927
0.0002842
0.000263352
0.000238268
0.00020988
0.000180864
0.000153608
0.000131454
0.000123673
0.000129511
0.000281402
0.000756769
0.000357128
0.000231028
0.0001753
0.00014971
0.000290994
0.000201151
0.000142464
0.000103801
7.7793e-05
5.98835e-05
4.73046e-05
3.86888e-05
3.31815e-05
2.48971e-05
2.6685e-05
4.32174e-05
4.97491e-05
0.00105118
0.00205897
0.000684092
0.000437996
0.000283531
0.000225827
0.000212718
0.000214193
0.000212457
0.000202833
0.000186464
0.000166248
0.00014532
0.000126211
0.000111714
0.000103158
0.000107259
0.00013675
0.000236763
0.000201166
0.000176821
0.000162446
0.00014951
0.000145799
0.000376037
0.000291893
0.000234914
0.000191968
0.000156765
0.000126385
9.94371e-05
7.52293e-05
5.27868e-05
2.84411e-05
2.56174e-05
8.6151e-05
7.77257e-05
0.00105747
0.00141065
0.000532693
0.000417806
0.000212399
0.00014434
0.000139357
0.000148561
0.000152229
0.000148977
0.000140708
0.000129621
0.000117957
0.000108016
0.000102259
0.000100159
0.000112514
0.00012281
0.000135491
0.000158141
0.000174761
0.000178712
0.000170371
0.000156746
0.000157574
0.000151757
0.000145171
0.000134818
0.000120255
0.000102526
8.28495e-05
6.25165e-05
4.12434e-05
2.49176e-05
2.22174e-05
7.6352e-05
9.50422e-05
0.00010655
0.000140314
0.000452593
0.00102407
0.0011103
0.000586984
0.000523946
0.000228908
0.000123187
0.00010601
0.000109412
0.000113033
0.000113769
0.000112023
0.000108757
0.000105515
0.000104558
0.000108868
0.000120425
0.000146949
0.000177716
0.000211426
0.000237662
0.000247421
0.000237744
0.000214026
0.000185534
0.000162631
0.000146271
0.00013303
0.000118649
0.000101981
8.36418e-05
6.46523e-05
4.64769e-05
2.98646e-05
2.1189e-05
2.18431e-05
4.99179e-05
8.37672e-05
0.00016785
0.00069858
0.00106631
0.000968957
0.000989761
0.000714393
0.000745932
0.000339716
0.000158821
0.000116135
0.000111755
0.00011369
0.000115899
0.000117773
0.000119941
0.000123742
0.000131821
0.000147443
0.000174415
0.000217488
0.00026957
0.000312489
0.000331411
0.00032106
0.000286986
0.00024212
0.000197499
0.000161484
0.000138226
0.000120455
0.000103289
8.59757e-05
6.92491e-05
5.42305e-05
4.21186e-05
3.36727e-05
3.10674e-05
3.3437e-05
4.59905e-05
9.02414e-05
0.00037102
0.00224385
0.00269667
0.000881403
0.000910512
0.000891435
0.00109283
0.000552707
0.000268214
0.000199041
0.000190384
0.000192939
0.000197117
0.000201826
0.00020791
0.000217035
0.00023185
0.000256145
0.000296527
0.000350938
0.000405458
0.000432967
0.000424273
0.000378898
0.000317586
0.000259723
0.000212204
0.000177291
0.000152943
0.000134085
0.000118244
0.000105278
9.59947e-05
9.13489e-05
9.1942e-05
9.73639e-05
0.000105395
0.000111671
0.000124966
0.000194536
0.00096953
0.00897634
0.0071599
0.000803626
0.000648677
0.00111785
0.00149461
0.000860767
0.000514995
0.000463251
0.000465944
0.000477496
0.000487658
0.000495779
0.000503534
0.000513247
0.000527667
0.000549744
0.000581179
0.000616098
0.000638077
0.000627974
0.000586693
0.000526815
0.000463512
0.000405958
0.000360171
0.000326044
0.000301821
0.00028579
0.000277729
0.000278595
0.000289777
0.000312336
0.000345916
0.000386816
0.000425829
0.00045214
0.000460137
0.000566562
0.00192333
0.0135825
0.0103024
0.00144547
0.00176187
0.00133849
0.00123562
0.00127567
0.00133846
0.00138674
0.0014158
0.00142901
0.0014308
0.00142513
0.00141558
0.00140525
0.00139533
0.00138277
0.00136056
0.00132359
0.00127417
0.00121959
0.00116622
0.00111707
0.00107414
0.00103939
0.00101525
0.00100483
0.00101186
0.00104047
0.00109477
0.00117764
0.00128772
0.0014141
0.0015326
0.00162476
0.00161818
0.00175053
0.00313644
0.0104735
0.00636739
0.00448893
0.00455008
0.0037618
0.00342212
0.00352581
0.00369894
0.00382696
0.00389444
0.00391291
0.00389549
0.00385309
0.00379633
0.00373764
0.0036901
0.00366147
0.00364665
0.00362705
0.00358861
0.00353213
0.00346512
0.00339324
0.00332149
0.00325707
0.00320902
0.00318713
0.00320178
0.00326432
0.00338717
0.00358218
0.00385355
0.00417805
0.00446695
0.00453437
0.00428886
0.00393958
0.0041974
0.0055765
0.00374601
0.000797189
0.000949507
0.00167867
0.00222602
0.00230953
0.00238999
0.00243132
0.00245859
0.0024741
0.00248049
0.00248112
0.00247907
0.002477
0.00247693
0.00247953
0.00248292
0.00248234
0.00247224
0.00245058
0.00241991
0.00238495
0.00235006
0.00231866
0.00229328
0.00227603
0.00226883
0.00227362
0.00229223
0.00232593
0.00237458
0.00243488
0.00249739
0.00254221
0.00253891
0.00247759
0.00240968
0.00247178
0.00274824
0.00296732
0.0021731
)
;

boundaryField
{
    floor
    {
        Cmu             0.09;
        kappa           0.41;
        E               9.8;
        type            epsilonWallFunction;
        value           nonuniform List<scalar> 
29
(
0.000190604
7.07234e-05
0.000157701
0.000194414
0.000201728
0.000179563
0.00015512
0.000127712
0.000104244
8.59365e-05
7.18081e-05
6.0797e-05
5.20815e-05
4.5027e-05
3.92662e-05
3.43297e-05
2.98219e-05
2.5485e-05
1.97553e-05
1.73442e-05
1.73442e-05
3.33087e-05
4.97491e-05
7.77257e-05
0.000190604
7.07234e-05
0.000246116
0.000281402
0.00013675
)
;
    }
    ceiling
    {
        Cmu             0.09;
        kappa           0.41;
        E               9.8;
        type            epsilonWallFunction;
        value           nonuniform List<scalar> 
43
(
0.000797189
0.000949507
0.00167867
0.00222602
0.00230953
0.00238999
0.00243132
0.00245859
0.0024741
0.00248049
0.00248112
0.00247907
0.002477
0.00247693
0.00247953
0.00248292
0.00248234
0.00247224
0.00245058
0.00241991
0.00238495
0.00235006
0.00231866
0.00229328
0.00227603
0.00226883
0.00227362
0.00229223
0.00232593
0.00237458
0.00243488
0.00249739
0.00254221
0.00253891
0.00247759
0.00240968
0.00247178
0.00274824
0.00296732
0.0021731
0.000803626
0.000648677
0.00448893
)
;
    }
    sWall
    {
        Cmu             0.09;
        kappa           0.41;
        E               9.8;
        type            epsilonWallFunction;
        value           uniform 0.000797189;
    }
    nWall
    {
        Cmu             0.09;
        kappa           0.41;
        E               9.8;
        type            epsilonWallFunction;
        value           nonuniform List<scalar> 6(0.000452593 0.00106631 0.00269667 0.00636739 0.00374601 0.0021731);
    }
    sideWalls
    {
        type            empty;
    }
    glass1
    {
        Cmu             0.09;
        kappa           0.41;
        E               9.8;
        type            epsilonWallFunction;
        value           nonuniform List<scalar> 9(0.000636807 0.000989514 0.00108009 0.00105118 0.00105747 0.00102407 0.000968957 0.000881403 0.000803626);
    }
    glass2
    {
        Cmu             0.09;
        kappa           0.41;
        E               9.8;
        type            epsilonWallFunction;
        value           nonuniform List<scalar> 2(0.0071599 0.0103024);
    }
    sun
    {
        Cmu             0.09;
        kappa           0.41;
        E               9.8;
        type            epsilonWallFunction;
        value           nonuniform List<scalar> 
14
(
0.000636807
0.00119173
0.00121317
0.00106216
0.000910631
0.000785251
0.000682165
0.000598209
0.000527173
0.000464794
0.00040803
0.000354407
0.000301503
0.000245925
)
;
    }
    heatsource1
    {
        Cmu             0.09;
        kappa           0.41;
        E               9.8;
        type            epsilonWallFunction;
        value           nonuniform List<scalar> 3(0.00010655 0.000140314 0.000452593);
    }
    heatsource2
    {
        Cmu             0.09;
        kappa           0.41;
        E               9.8;
        type            epsilonWallFunction;
        value           nonuniform List<scalar> 4(0.000176573 0.00012359 0.00012359 0.000129511);
    }
    Table_master
    {
        Cmu             0.09;
        kappa           0.41;
        E               9.8;
        type            epsilonWallFunction;
        value           nonuniform List<scalar> 9(0.000290994 0.000201151 0.000142464 0.000103801 7.7793e-05 5.98835e-05 4.73046e-05 3.86888e-05 3.31815e-05);
    }
    Table_slave
    {
        Cmu             0.09;
        kappa           0.41;
        E               9.8;
        type            epsilonWallFunction;
        value           nonuniform List<scalar> 9(0.000376037 0.000291893 0.000234914 0.000191968 0.000156765 0.000126385 9.94371e-05 7.52293e-05 5.27868e-05);
    }
    inlet
    {
        type            turbulentMixingLengthDissipationRateInlet;
        mixingLength    0.01;
        phi             phi;
        k               k;
        value           uniform 0.000101881;
    }
    outlet
    {
        type            zeroGradient;
    }
}


// ************************************************************************* //
