/*--------------------------------*- C++ -*----------------------------------*\
  =========                 |
  \\      /  F ield         | OpenFOAM: The Open Source CFD Toolbox
   \\    /   O peration     | Website:  https://openfoam.org
    \\  /    A nd           | Version:  6
     \\/     M anipulation  |
\*---------------------------------------------------------------------------*/
FoamFile
{
    version     2.0;
    format      ascii;
    class       surfaceScalarField;
    location    "900";
    object      phi;
}
// * * * * * * * * * * * * * * * * * * * * * * * * * * * * * * * * * * * * * //

dimensions      [1 0 -1 0 0 0 0];

internalField   nonuniform List<scalar> 
852
(
-0.00293733
0.00299351
-0.00397811
0.00104079
-0.00476823
0.000790114
-0.00538557
0.000617334
-0.00580097
0.000415403
-0.00599185
0.000190881
-0.00593646
-5.53932e-05
-0.00561756
-0.0003189
-0.00504802
-0.000569549
-0.0042802
-0.000767819
-0.00339516
-0.000885037
-0.00248181
-0.000913353
-0.0016151
-0.00086671
-0.000817741
-0.000797365
-0.000816312
-0.000676235
0.000678896
-0.000346729
-0.000329508
0.000261906
-0.000608637
0.000736901
-0.000474996
0.00105242
-0.00031552
0.00124865
-0.000196235
0.0013554
-0.00010675
0.00140852
-5.31182e-05
0.00143857
-3.00591e-05
0.00145701
-1.84399e-05
0.00146734
-1.0331e-05
0.00147065
-3.31519e-06
0.00146497
5.68585e-06
0.00144181
2.31546e-05
0.00137859
6.32167e-05
0.0012373
0.000141291
0.00100282
0.000234475
0.000707866
0.000294955
0.000711443
-0.00209511
0.0052399
-0.00310112
0.0020468
-0.00390731
0.0015963
-0.00451111
0.00122113
-0.00491658
0.000820867
-0.00511004
0.000384344
-0.00506632
-9.91193e-05
-0.00477129
-0.000613933
-0.00424892
-0.00109192
-0.00356098
-0.00145576
-0.00278996
-0.00165606
-0.00201627
-0.00168704
-0.00131206
-0.00157092
-0.000764882
-0.00134455
-0.000561231
-0.00101996
-7.19809e-05
-0.000489303
-7.20342e-05
0.000374848
0.000311629
0.000801648
-0.00075631
0.00105252
-0.000859514
0.00126257
-0.000685044
0.00141869
-0.000471645
0.00150997
-0.000287519
0.00152412
-0.000120899
0.00152797
-5.69713e-05
0.00153259
-3.46788e-05
0.00153645
-2.23033e-05
0.00153904
-1.29195e-05
0.00154032
-4.60045e-06
0.00153943
6.58104e-06
0.00153275
2.98272e-05
0.00149143
0.000104535
0.00131608
0.000316641
0.00101276
0.00053779
0.00062944
0.000678275
0.00135011
-0.00146596
0.00693725
-0.00232915
0.00290998
-0.00303753
0.00230468
-0.00354824
0.00173184
-0.00389677
0.00116939
-0.00406495
0.00055253
-0.004008
-0.000156079
-0.00370455
-0.000917381
-0.00320044
-0.00159604
-0.00257168
-0.00208452
-0.00190027
-0.00232748
-0.00124988
-0.00233743
-0.000671144
-0.00214966
-0.000214784
-0.00180091
8.86853e-05
-0.00132344
0.000286162
-0.000686782
0.000214126
0.00148681
-0.00116723
0.00170139
-0.000970884
0.00168165
-0.000839785
0.00168277
-0.000686161
0.00170466
-0.000493537
0.00171623
-0.000299087
0.00159548
0.00153866
0.00150413
0.00148198
0.00146921
0.00146476
0.00147149
0.00150147
0.00160616
0.00132604
0.000596761
0.000985129
0.000878698
0.000550664
0.00111274
0.00191486
-0.00102354
0.0082604
-0.00170473
0.00359117
-0.00216554
0.00276549
-0.00249194
0.00205823
-0.00271391
0.00139136
-0.00279893
0.000637551
-0.00267218
-0.000282828
-0.00232315
-0.00126642
-0.00183627
-0.00208291
-0.00129446
-0.00262633
-0.000764928
-0.00285701
-0.000282401
-0.00281996
0.000135422
-0.00256748
0.000483637
-0.00214913
0.0007901
-0.0016299
0.00115812
-0.0010548
0.00192165
-0.000549404
0.00245338
-0.00052452
0.00205343
-0.00076728
0.00192588
-0.000843328
0.00181496
-0.000728869
0.00172057
-0.000591777
0.00166907
-0.000442031
0.00164782
-0.000277845
0.00176144
-0.000113771
0.00183283
-7.15449e-05
0.00189023
-5.75503e-05
0.00193415
-4.40774e-05
0.00195087
-1.6878e-05
0.00191963
3.10851e-05
0.00181594
0.000103536
0.00160757
0.000208222
0.00124041
0.000367002
0.00111115
0.000726023
0.000826486
0.00116336
0.000391578
0.00154764
0.00232492
-0.000717509
0.00933545
-0.00123283
0.0041065
-0.00131879
0.00285145
-0.00136935
0.00210879
-0.00138837
0.00141037
-0.00129458
0.00054376
-0.00100895
-0.000568455
-0.000597022
-0.00167835
-0.00016441
-0.00251553
0.000223093
-0.00301384
0.00053977
-0.00317369
0.000783631
-0.00306382
0.000968238
-0.00275209
0.0011216
-0.00230249
0.00127469
-0.00178299
0.00147896
-0.00125908
0.001765
-0.000835448
0.0019021
-0.000661622
0.00180447
-0.000669649
0.00162936
-0.000668215
0.00148169
-0.000581208
0.00136106
-0.000471139
0.00127833
-0.000359307
0.00124654
-0.000246053
0.00128701
-0.000154244
0.00133355
-0.000118091
0.00138487
-0.000108866
0.00143763
-9.68384e-05
0.00148141
-6.06655e-05
0.00149695
1.55506e-05
0.001464
0.000136483
0.00137064
0.000301583
0.00121735
0.000520289
0.00108426
0.000859111
0.000941905
0.00130571
0.000626099
0.00186345
0.000558032
0.00239298
-0.000966955
0.00152478
-0.0014302
0.000463042
-0.00138334
-0.000626105
0.010368
-0.00097811
0.0044585
-0.000549827
0.00242316
-0.000181719
0.00174068
0.000102581
0.00112607
0.000499634
0.000146705
0.00100364
-0.00107246
0.00142503
-0.00209974
0.00170913
-0.00279963
0.00185332
-0.00315802
0.0018885
-0.00320888
0.00184275
-0.00301808
0.00174676
-0.0026561
0.00163671
-0.00219244
0.00154574
-0.00169203
0.00149939
-0.00121273
0.00149155
-0.000827611
0.00143737
-0.00060744
0.00129323
-0.000525509
0.00110272
-0.000477709
0.000934934
-0.000413422
0.000806882
-0.000343089
0.000724582
-0.000277008
0.000695531
-0.000217003
0.00071684
-0.000175554
0.000764184
-0.000165436
0.000826713
-0.000171396
0.000899817
-0.000169944
0.000978013
-0.000138862
0.00104927
-5.57072e-05
0.00109618
8.95687e-05
0.00111486
0.000282902
0.00111308
0.000522072
0.00113808
0.000834106
0.00123746
0.00120633
0.00142438
0.00167652
0.00186733
0.00195003
0.00212787
0.00126423
0.00173877
0.00085214
0.000411871
-0.000679609
0.0114982
-0.000556791
0.00433568
0.000582309
0.00128406
0.00138369
0.000939302
0.00207899
0.000430759
0.0027877
-0.000562004
0.00332933
-0.00161409
0.00361182
-0.00238224
0.00364158
-0.00282939
0.00346469
-0.00298114
0.00314384
-0.00288804
0.00274014
-0.00261437
0.00230694
-0.0022229
0.00189093
-0.00177643
0.00152742
-0.00132853
0.00123227
-0.000917575
0.00100377
-0.000599109
0.000806184
-0.000409858
0.00060679
-0.000326116
0.000416849
-0.000287769
0.000261405
-0.000257979
0.000150273
-0.000231958
8.46162e-05
-0.000211353
6.48009e-05
-0.000197189
8.43272e-05
-0.000195081
0.00012824
-0.000209349
0.00018714
-0.000230298
0.000259966
-0.000242771
0.000350816
-0.000229713
0.000464565
-0.000169457
0.00058873
-3.45974e-05
0.000713092
0.000158539
0.00084893
0.000386233
0.00103385
0.000649185
0.00131607
0.000924112
0.00175671
0.00123588
0.00242282
0.00128392
0.00296322
0.000723836
0.00298676
0.000828603
0.00345972
0.00259713
0.00940533
0.00330387
0.00362893
0.00371248
0.000875455
0.00441671
0.000235066
0.00524323
-0.000395759
0.00586832
-0.0011871
0.0060816
-0.00182737
0.00591549
-0.00221613
0.00544798
-0.00236189
0.00477172
-0.00230488
0.00398217
-0.00209849
0.00316307
-0.00179528
0.00237595
-0.00143578
0.00166956
-0.00107004
0.00107639
-0.000735353
0.000602441
-0.00044363
0.0002532
-0.000249869
-3.96673e-07
-0.000156263
-0.000195371
-0.000131144
-0.000348561
-0.000134581
-0.000464606
-0.000141935
-0.000545651
-0.000150915
-0.000595082
-0.000161923
-0.000616301
-0.00017597
-0.00061587
-0.000195514
-0.000603883
-0.000221337
-0.000586181
-0.000248
-0.000561904
-0.000267049
-0.000522777
-0.000268841
-0.00045016
-0.000242075
-0.000315407
-0.000169351
-0.000134811
-2.20589e-05
7.75222e-05
0.000173899
0.000345948
0.000380759
0.000682202
0.000587857
0.00112723
0.000790849
0.00161927
0.000791885
0.0018308
0.000512301
0.00109074
0.00156866
0.00479912
0.00995836
0.0135792
0.0124568
0.00199782
0.0117563
0.000935552
0.0110994
0.000261151
0.0102123
-0.000299977
0.00906115
-0.000676233
0.00775102
-0.000906
0.00637584
-0.000986713
0.00500942
-0.000938454
0.00371891
-0.000807988
0.00255633
-0.000632701
0.00154329
-0.000422739
0.000703599
-0.000230351
4.3531e-05
-7.52858e-05
-0.000420236
2.01362e-05
-0.000705419
3.53137e-05
-0.00088182
2.01363e-05
-0.00100693
-6.03193e-06
-0.0011077
-3.38107e-05
-0.00119026
-5.93758e-05
-0.00125705
-8.41264e-05
-0.0013115
-0.000107476
-0.00135765
-0.00012982
-0.00140198
-0.000151183
-0.001453
-0.000170325
-0.00151828
-0.000182714
-0.00160506
-0.00018027
-0.001722
-0.000151903
-0.00187933
-8.47443e-05
-0.00208255
3.38653e-05
-0.00231854
0.000213932
-0.00261428
0.000469632
-0.00305117
0.000817653
-0.00372002
0.0012567
-0.00468794
0.00175877
-0.00607174
0.00217568
-0.00775485
0.00219541
-0.00728848
0.0011023
-0.00221432
0.00467315
0.0035043
0.00377207
0.00183662
0.00414501
-0.000111795
0.00415107
-0.000306043
0.00374622
-0.000271377
0.00311423
-0.000274015
0.00236249
-0.000234968
0.0015585
-0.000134472
0.000744887
5.62846e-06
-2.35988e-05
0.000135785
-0.000656564
0.000210226
-0.0011023
0.000215387
-0.00138426
0.000206673
-0.00154445
0.000180327
-0.00164567
0.000136526
-0.0017186
9.30667e-05
-0.00177969
5.50583e-05
-0.00183744
2.39345e-05
-0.00189647
-3.4785e-07
-0.00195847
-2.21268e-05
-0.00202406
-4.18851e-05
-0.002095
-5.88768e-05
-0.00217443
-7.17561e-05
-0.00226523
-7.95264e-05
-0.00236834
-7.96024e-05
-0.00248275
-6.58608e-05
-0.00260464
-3.00175e-05
-0.00272616
3.67783e-05
-0.00283539
0.000143095
-0.00292921
0.000307747
-0.00301514
0.000555561
-0.00309842
0.000900929
-0.00317461
0.00133289
-0.00319877
0.00178293
-0.00311944
0.00209635
-0.00275822
0.00183419
-0.00149675
-0.000159176
-0.0036393
-0.000529607
0.00409898
0.000305076
0.00100194
-8.57316e-05
0.000279011
-0.000473829
8.20542e-05
-0.000813703
6.84967e-05
-0.00117849
9.07725e-05
-0.00154434
0.000130883
-0.00185939
0.000180576
-0.00207909
0.000225333
-0.00220016
0.000256856
-0.00225435
0.000264408
-0.00227725
0.000238286
-0.00227371
0.00020314
-0.00226058
0.000167194
-0.0022566
0.000132541
-0.00226646
0.000102933
-0.00228978
7.83684e-05
-0.00232407
5.82245e-05
-0.00236602
4.16015e-05
-0.00241687
2.87273e-05
-0.00247565
1.68871e-05
-0.00254029
5.77075e-06
-0.00260803
-4.01608e-06
-0.00267623
-1.13312e-05
-0.00274117
-1.46624e-05
-0.00279601
-1.10195e-05
-0.00283
3.96722e-06
-0.00283345
4.02264e-05
-0.00279609
0.000105733
-0.00269641
0.000208064
-0.00250335
0.000362499
-0.00219016
0.000587741
-0.00173733
0.000880055
-0.00111631
0.00116191
-0.000156825
0.00113686
0.00114082
0.000536538
0.00158341
-0.000601767
-0.00197729
-0.00721536
-0.0101182
-0.00597643
-0.00495467
-0.00466464
-0.00457584
-0.00450321
-0.00441029
-0.00427888
-0.00409914
-0.00387588
-0.00362226
-0.00336223
-0.00312937
-0.00293256
-0.00277242
-0.00264749
-0.00255261
-0.00248263
-0.00243306
-0.0024003
-0.00238056
-0.00237275
-0.0023761
-0.00238922
-0.00240959
-0.00243318
-0.00245296
-0.00245755
-0.00242563
-0.00232792
-0.0021276
-0.00177254
-0.00119195
-0.000318786
0.000836463
0.00196664
0.00249625
0.00188715
)
;

boundaryField
{
    floor
    {
        type            calculated;
        value           nonuniform List<scalar> 
29
(
0
0
0
0
0
0
0
0
0
0
0
0
0
0
0
0
0
0
0
0
-3.57869e-06
-9.22911e-06
-1.40846e-05
-1.84832e-05
-1.4309e-06
-2.66259e-06
-7.5821e-06
-7.95775e-06
-7.21768e-06
)
;
    }
    ceiling
    {
        type            calculated;
        value           nonuniform List<scalar> 
43
(
-4.54092e-05
-4.40942e-05
-4.27879e-05
-1.98238e-05
-1.10183e-05
-6.75063e-06
-4.12859e-06
-2.1465e-06
-5.34282e-07
8.40074e-07
2.07393e-06
3.23726e-06
4.37263e-06
5.42705e-06
6.32816e-06
7.05082e-06
7.61403e-06
8.05043e-06
8.38838e-06
8.64812e-06
8.84414e-06
8.98559e-06
9.07844e-06
9.12013e-06
9.10586e-06
9.03821e-06
8.92295e-06
8.76121e-06
8.55395e-06
8.30326e-06
8.02747e-06
7.73733e-06
7.4415e-06
7.15118e-06
6.88656e-06
6.6613e-06
6.68788e-06
6.9299e-06
7.3323e-06
8.57541e-06
1.11554e-05
8.09969e-06
-6.50688e-05
)
;
    }
    sWall
    {
        type            calculated;
        value           uniform -0.000275196;
    }
    nWall
    {
        type            calculated;
        value           nonuniform List<scalar> 6(-4.70695e-05 -5.64358e-05 -6.10989e-05 -7.17684e-05 -7.86015e-05 -9.87197e-05);
    }
    sideWalls
    {
        type            empty;
        value           nonuniform 0();
    }
    glass1
    {
        type            calculated;
        value           nonuniform List<scalar> 9(-5.61857e-05 -0.000151289 -0.00023139 -0.000299608 -0.00035754 -0.000406408 -0.000450654 -0.000504243 -0.000564181);
    }
    glass2
    {
        type            calculated;
        value           nonuniform List<scalar> 2(-0.000248664 -0.000275038);
    }
    sun
    {
        type            calculated;
        value           uniform 0;
    }
    heatsource1
    {
        type            calculated;
        value           nonuniform List<scalar> 3(2.03939e-07 2.03898e-07 2.03915e-07);
    }
    heatsource2
    {
        type            calculated;
        value           nonuniform List<scalar> 4(5.1096e-08 5.12171e-08 0 0);
    }
    Table_master
    {
        type            calculated;
        value           nonuniform List<scalar> 9(-1.52954e-07 -1.53036e-07 -1.53065e-07 -1.53085e-07 -1.53099e-07 -1.53108e-07 -1.53112e-07 -1.53105e-07 -1.53072e-07);
    }
    Table_slave
    {
        type            calculated;
        value           nonuniform List<scalar> 9(1.52832e-07 1.52858e-07 1.52842e-07 1.52828e-07 1.52824e-07 1.52827e-07 1.52844e-07 1.52886e-07 1.52966e-07);
    }
    inlet
    {
        type            calculated;
        value           uniform -0.00617964;
    }
    outlet
    {
        type            calculated;
        value           nonuniform List<scalar> 2(0.00753597 0.00294693);
    }
}


// ************************************************************************* //
