// -*- C++ -*-
// File generated by PyFoam - sorry for the ugliness

FoamFile
{
 version 2.0;
 format ascii;
 class volVectorField;
 location "700";
 object U;
}

dimensions [ 0 1 -1 0 0 0 0 ];

internalField nonuniform List<vector> 459
(
  (0.0656902 0.0785872 0)
  (-0.154177 0.0151342 0)
  (-0.163939 0.0149322 0)
  (-0.192745 0.0121434 0)
  (-0.217692 0.00856179 0)
  (-0.238298 0.00464415 0)
  (-0.253883 0.000367184 0)
  (-0.263689 -0.00440455 0)
  (-0.266701 -0.00985182 0)
  (-0.261523 -0.0162626 0)
  (-0.246687 -0.0241655 0)
  (-0.219586 -0.0339445 0)
  (-0.178863 -0.0473574 0)
  (-0.134099 -0.0681937 0)
  (-0.120531 -0.0972659 0)
  (0.0774349 -0.0394931 0)
  (0.0500864 -0.0253908 0)
  (0.0646312 -0.0159089 0)
  (0.0793471 -0.0107019 0)
  (0.0868065 -0.00763373 0)
  (0.0899679 -0.00538732 0)
  (0.0911236 -0.00360401 0)
  (0.0907796 -0.00250044 0)
  (0.0896796 -0.00190051 0)
  (0.0883858 -0.00153937 0)
  (0.0870622 -0.00127004 0)
  (0.0856582 -0.00102008 0)
  (0.0840304 -0.000700768 0)
  (0.0818654 -0.00013096 0)
  (0.0784499 0.00108558 0)
  (0.0723899 0.00351567 0)
  (0.062144 0.00641075 0)
  (0.0504685 0.00930903 0)
  (-0.00570671 0.0251014 0)
  (0.265443 0.166492 0)
  (-0.161738 0.0462702 0)
  (-0.13806 0.0470074 0)
  (-0.170678 0.0420811 0)
  (-0.195982 0.0362487 0)
  (-0.216817 0.029774 0)
  (-0.232809 0.0223531 0)
  (-0.243364 0.0135805 0)
  (-0.247544 0.00303997 0)
  (-0.243929 -0.00956467 0)
  (-0.23238 -0.0234424 0)
  (-0.212118 -0.0381546 0)
  (-0.184697 -0.0548679 0)
  (-0.157148 -0.0759542 0)
  (-0.13714 -0.0938901 0)
  (-0.104419 -0.0745412 0)
  (-0.0572877 -0.0645173 0)
  (0.0834976 -0.0631413 0)
  (0.0359329 -0.0330523 0)
  (0.0459732 -0.0159955 0)
  (0.058576 -0.0087715 0)
  (0.0655302 -0.00519443 0)
  (0.0692077 -0.00204723 0)
  (0.0712399 0.00143617 0)
  (0.0715387 0.00327939 0)
  (0.071462 0.00391452 0)
  (0.0715733 0.0040799 0)
  (0.0718002 0.00413433 0)
  (0.0720057 0.00423391 0)
  (0.0721395 0.00456205 0)
  (0.0721314 0.0055049 0)
  (0.071396 0.00802461 0)
  (0.0673266 0.0148702 0)
  (0.0568413 0.0211453 0)
  (0.0499112 0.0258689 0)
  (-0.0475735 0.0524445 0)
  (0.44449 0.252375 0)
  (-0.200286 0.0803907 0)
  (-0.105635 0.078268 0)
  (-0.142032 0.0666347 0)
  (-0.164341 0.0556581 0)
  (-0.183169 0.0439168 0)
  (-0.198012 0.0306474 0)
  (-0.208293 0.0153217 0)
  (-0.212938 -0.00233028 0)
  (-0.210137 -0.022025 0)
  (-0.200107 -0.0432573 0)
  (-0.183235 -0.0645802 0)
  (-0.161872 -0.0853027 0)
  (-0.139804 -0.104349 0)
  (-0.116948 -0.114849 0)
  (-0.0870007 -0.107094 0)
  (-0.062982 -0.106277 0)
  (0.0620413 -0.0801676 0)
  (0.0178053 -0.0445695 0)
  (0.0276329 -0.0257943 0)
  (0.0390823 -0.0178278 0)
  (0.0468791 -0.0129653 0)
  (0.0521174 -0.00865521 0)
  (0.0547645 -0.00656123 0)
  (0.0542745 -0.00488806 0)
  (0.0540461 -0.0041042 0)
  (0.0547942 -0.00372797 0)
  (0.0559875 -0.00348551 0)
  (0.0572996 -0.00324906 0)
  (0.058826 -0.00285993 0)
  (0.0611516 -0.00193639 0)
  (0.0657528 0.00155982 0)
  (0.0649993 0.0201333 0)
  (0.0519795 0.0336687 0)
  (0.0547461 0.0429527 0)
  (-0.0855031 0.0800133 0)
  (0.599119 0.323193 0)
  (-0.252612 0.114964 0)
  (-0.067973 0.105709 0)
  (-0.110147 0.0884565 0)
  (-0.126699 0.0747775 0)
  (-0.14181 0.0603289 0)
  (-0.154474 0.0437759 0)
  (-0.164006 0.0241905 0)
  (-0.168952 0.000902691 0)
  (-0.166788 -0.0258506 0)
  (-0.157961 -0.0540797 0)
  (-0.144087 -0.0810285 0)
  (-0.127737 -0.104798 0)
  (-0.111389 -0.123609 0)
  (-0.0951258 -0.133953 0)
  (-0.0783478 -0.133181 0)
  (-0.0643518 -0.114664 0)
  (-0.0346706 -0.0369912 0)
  (0.0156376 -0.0780579 0)
  (0.0120954 -0.0537297 0)
  (0.017897 -0.03544 0)
  (0.026164 -0.0259839 0)
  (0.0335654 -0.0197037 0)
  (0.0402734 -0.0133781 0)
  (0.0488941 -0.0107766 0)
  (0.0601228 -0.00986242 0)
  (0.070271 -0.00891841 0)
  (0.0787012 -0.00771845 0)
  (0.0849605 -0.00604798 0)
  (0.0882368 -0.00382993 0)
  (0.0870914 -0.000988861 0)
  (0.0805509 0.00268463 0)
  (0.0663322 0.0078253 0)
  (0.0532173 0.0300762 0)
  (0.04072 0.0488338 0)
  (0.0594806 0.0632838 0)
  (-0.126308 0.103415 0)
  (0.727559 0.380342 0)
  (-0.305385 0.14778 0)
  (-0.0278143 0.122825 0)
  (-0.0761362 0.103032 0)
  (-0.0855633 0.0883634 0)
  (-0.0954994 0.0723698 0)
  (-0.104471 0.0534767 0)
  (-0.111919 0.0304897 0)
  (-0.116126 0.00238717 0)
  (-0.113121 -0.0304108 0)
  (-0.104572 -0.0643355 0)
  (-0.0933005 -0.0946495 0)
  (-0.0815265 -0.119114 0)
  (-0.070841 -0.136976 0)
  (-0.0612968 -0.147613 0)
  (-0.0512331 -0.150452 0)
  (-0.0380594 -0.138786 0)
  (-0.017234 -0.100882 0)
  (0.00364851 -0.0839735 0)
  (0.00605437 -0.0591968 0)
  (0.00966279 -0.0422371 0)
  (0.01513 -0.0328127 0)
  (0.0212602 -0.0267013 0)
  (0.0281747 -0.0215823 0)
  (0.0364947 -0.0175398 0)
  (0.0457431 -0.015097 0)
  (0.0543955 -0.0131459 0)
  (0.0620718 -0.0106148 0)
  (0.0683749 -0.00673605 0)
  (0.0725771 -0.00105536 0)
  (0.0734055 0.00595758 0)
  (0.0700708 0.0138897 0)
  (0.0625935 0.0233982 0)
  (0.0535126 0.0403699 0)
  (0.0408324 0.0609582 0)
  (0.067474 0.0833834 0)
  (-0.0343154 0.117811 0)
  (0.0410876 0.0214638 0)
  (-0.0748406 -0.0423176 0)
  (-0.282164 -0.0651121 0)
  (0.816475 0.430419 0)
  (-0.350571 0.174752 0)
  (0.00513555 0.122695 0)
  (-0.0392475 0.110617 0)
  (-0.0422344 0.0965454 0)
  (-0.0469045 0.0796218 0)
  (-0.0510966 0.0596943 0)
  (-0.0549414 0.0352136 0)
  (-0.056707 0.00382447 0)
  (-0.0490414 -0.0351579 0)
  (-0.0404301 -0.073582 0)
  (-0.0326933 -0.104959 0)
  (-0.0266075 -0.128208 0)
  (-0.022725 -0.144112 0)
  (-0.0208064 -0.153751 0)
  (-0.0182979 -0.157339 0)
  (-0.013316 -0.147455 0)
  (-0.0051365 -0.11656 0)
  (0.000449345 -0.0858767 0)
  (0.000578143 -0.0603584 0)
  (0.00144903 -0.0454104 0)
  (0.00384415 -0.0372447 0)
  (0.00757109 -0.0321159 0)
  (0.0125231 -0.0281584 0)
  (0.0186103 -0.0251404 0)
  (0.0253498 -0.0232041 0)
  (0.0321738 -0.0212898 0)
  (0.038833 -0.0183467 0)
  (0.0451366 -0.0133971 0)
  (0.050661 -0.00558243 0)
  (0.0548857 0.00483739 0)
  (0.0556306 0.0162634 0)
  (0.0541111 0.0286575 0)
  (0.0527078 0.0445651 0)
  (0.0486269 0.0644332 0)
  (0.0759205 0.0901171 0)
  (0.0458456 0.112217 0)
  (0.0939413 0.0720882 0)
  (0.120661 0.0449639 0)
  (-0.145908 -0.017139 0)
  (0.842316 0.475285 0)
  (-0.372273 0.165778 0)
  (0.0253267 0.078575 0)
  (0.0113065 0.109321 0)
  (0.00911273 0.106216 0)
  (0.00611733 0.0851646 0)
  (0.00617901 0.061537 0)
  (0.00687731 0.0354943 0)
  (0.0116618 -0.000237202 0)
  (0.0271384 -0.0448755 0)
  (0.0338641 -0.0819574 0)
  (0.0355786 -0.109978 0)
  (0.0336916 -0.129795 0)
  (0.0288314 -0.142981 0)
  (0.0216814 -0.151314 0)
  (0.0152593 -0.155999 0)
  (0.0104599 -0.149041 0)
  (0.00744145 -0.119308 0)
  (0.00140694 -0.0835525 0)
  (-0.00430373 -0.0571513 0)
  (-0.00731438 -0.0447488 0)
  (-0.00868877 -0.0383892 0)
  (-0.00842661 -0.0345999 0)
  (-0.0068678 -0.0319878 0)
  (-0.00422836 -0.0301598 0)
  (-0.000799654 -0.0288386 0)
  (0.00321406 -0.0272773 0)
  (0.00761259 -0.0246558 0)
  (0.0125788 -0.0199521 0)
  (0.0182171 -0.0118918 0)
  (0.0261506 0.000543573 0)
  (0.0327528 0.0140452 0)
  (0.0374523 0.0271435 0)
  (0.0437972 0.041456 0)
  (0.0498355 0.0576057 0)
  (0.0757407 0.0787854 0)
  (0.08615 0.0883622 0)
  (0.123058 0.0573396 0)
  (0.166173 0.0426066 0)
  (-0.0366826 0.093744 0)
  (0.939972 0.490598 0)
  (-0.126949 0.147958 0)
  (0.0874815 0.00851035 0)
  (0.128379 0.0445002 0)
  (0.108047 0.0709097 0)
  (0.0917977 0.0606707 0)
  (0.0892425 0.0369056 0)
  (0.0923586 0.0079273 0)
  (0.107171 -0.0263914 0)
  (0.117994 -0.0574565 0)
  (0.117433 -0.084215 0)
  (0.109046 -0.105345 0)
  (0.0957329 -0.120779 0)
  (0.0793436 -0.131474 0)
  (0.0612485 -0.139114 0)
  (0.0451735 -0.145311 0)
  (0.0308539 -0.140848 0)
  (0.0187823 -0.11106 0)
  (0.00186137 -0.0732643 0)
  (-0.0108383 -0.049347 0)
  (-0.017981 -0.0402615 0)
  (-0.0232054 -0.0359922 0)
  (-0.0267299 -0.0335993 0)
  (-0.0290705 -0.0321314 0)
  (-0.0305398 -0.0312263 0)
  (-0.0313896 -0.0305488 0)
  (-0.0317425 -0.0296188 0)
  (-0.0315439 -0.027897 0)
  (-0.0305285 -0.0247974 0)
  (-0.0281658 -0.0196802 0)
  (-0.0228757 -0.011838 0)
  (-0.00852482 -0.000517045 0)
  (0.000322218 0.0116474 0)
  (0.0122143 0.0214708 0)
  (0.0240123 0.0294277 0)
  (0.0474888 0.039084 0)
  (0.0682211 0.032399 0)
  (0.0900664 -0.0036382 0)
  (0.152826 0.0389263 0)
  (-0.444132 0.215245 0)
  (1.06762 0.45151 0)
  (0.517501 0.301692 0)
  (0.519673 0.232494 0)
  (0.490539 0.194162 0)
  (0.409006 0.167809 0)
  (0.337945 0.129735 0)
  (0.29728 0.0868769 0)
  (0.276386 0.0455124 0)
  (0.259948 0.00624434 0)
  (0.236222 -0.030012 0)
  (0.209115 -0.0596379 0)
  (0.180248 -0.0814975 0)
  (0.150286 -0.0966244 0)
  (0.119937 -0.107072 0)
  (0.0900006 -0.115484 0)
  (0.0651646 -0.124652 0)
  (0.0425284 -0.1232 0)
  (0.0245407 -0.0921266 0)
  (-0.00220995 -0.055246 0)
  (-0.0203357 -0.0381663 0)
  (-0.0309366 -0.0332582 0)
  (-0.0393427 -0.0311223 0)
  (-0.046401 -0.0298859 0)
  (-0.05269 -0.0291143 0)
  (-0.058569 -0.0285862 0)
  (-0.0643172 -0.0280186 0)
  (-0.0701456 -0.0270003 0)
  (-0.0762238 -0.0250084 0)
  (-0.0827616 -0.0214167 0)
  (-0.0900927 -0.0155355 0)
  (-0.0985695 -0.00672589 0)
  (-0.108201 0.00524669 0)
  (-0.116253 0.0190984 0)
  (-0.13123 0.034958 0)
  (-0.15656 0.053123 0)
  (-0.19418 0.0721053 0)
  (-0.248777 0.0867035 0)
  (-0.312326 0.094224 0)
  (-0.384193 0.0957464 0)
  (-0.6516 0.0915678 0)
  (-0.242397 0.0988459 0)
  (0.174842 0.170984 0)
  (0.266153 0.165116 0)
  (0.263748 0.134177 0)
  (0.264314 0.0938797 0)
  (0.265644 0.0524916 0)
  (0.260729 0.0158096 0)
  (0.247275 -0.0138797 0)
  (0.225407 -0.0360676 0)
  (0.197735 -0.0520153 0)
  (0.166146 -0.0632618 0)
  (0.132277 -0.0715848 0)
  (0.0975815 -0.0797281 0)
  (0.0690979 -0.0925555 0)
  (0.0376882 -0.0951267 0)
  (0.0171876 -0.0590882 0)
  (-0.0148535 -0.0283017 0)
  (-0.0332432 -0.0223732 0)
  (-0.0451767 -0.0217628 0)
  (-0.0549911 -0.0217962 0)
  (-0.064182 -0.0218537 0)
  (-0.0731365 -0.0218616 0)
  (-0.0820827 -0.0217209 0)
  (-0.0911884 -0.0212272 0)
  (-0.100508 -0.0200419 0)
  (-0.109935 -0.0176934 0)
  (-0.119177 -0.0136031 0)
  (-0.127709 -0.00715797 0)
  (-0.134676 0.0021888 0)
  (-0.138866 0.0145413 0)
  (-0.141269 0.0303875 0)
  (-0.143117 0.0499319 0)
  (-0.145672 0.0722087 0)
  (-0.14963 0.0930457 0)
  (-0.151905 0.100937 0)
  (-0.133935 0.0732473 0)
  (-0.0832923 -0.0308713 0)
  (-0.290262 -0.220242 0)
  (-0.121374 0.251631 0)
  (0.0906098 0.179815 0)
  (0.107107 0.131294 0)
  (0.138016 0.107112 0)
  (0.170868 0.0782068 0)
  (0.194699 0.0486273 0)
  (0.205101 0.0249539 0)
  (0.20335 0.00896519 0)
  (0.191832 -0.0032322 0)
  (0.172854 -0.0128262 0)
  (0.148424 -0.0206108 0)
  (0.119921 -0.0278251 0)
  (0.0881326 -0.0383115 0)
  (0.0597855 -0.0624337 0)
  (0.00883797 -0.0706409 0)
  (-0.018872 -0.000478206 0)
  (-0.037281 0.0287111 0)
  (-0.0511058 0.0235772 0)
  (-0.0604081 0.0188959 0)
  (-0.0689432 0.016832 0)
  (-0.077388 0.0152625 0)
  (-0.0857162 0.0137594 0)
  (-0.0939135 0.0124016 0)
  (-0.101937 0.0113113 0)
  (-0.109654 0.0106139 0)
  (-0.116814 0.0104438 0)
  (-0.123035 0.0109515 0)
  (-0.127754 0.0123158 0)
  (-0.130007 0.0148049 0)
  (-0.128435 0.0205046 0)
  (-0.12144 0.0306456 0)
  (-0.108006 0.0459093 0)
  (-0.0884996 0.0658591 0)
  (-0.0644575 0.0858909 0)
  (-0.0391053 0.0974095 0)
  (0.0038967 0.0793382 0)
  (0.146895 0.00285842 0)
  (-0.210622 -0.132358 0)
  (-0.145431 -0.362596 0)
  (-0.441026 -0.0999446 0)
  (-0.320893 0.151129 0)
  (-0.168922 0.0584423 0)
  (-0.0838105 0.0338462 0)
  (0.0150604 0.0318897 0)
  (0.0791918 0.0118145 0)
  (0.124122 -0.00905006 0)
  (0.150796 -0.0278538 0)
  (0.160174 -0.044576 0)
  (0.157043 -0.0575158 0)
  (0.144371 -0.0683421 0)
  (0.125064 -0.0785907 0)
  (0.10093 -0.0899211 0)
  (0.0719563 -0.105601 0)
  (0.0428472 -0.132359 0)
  (-0.0491533 -0.129415 0)
  (-0.0646859 -0.11753 0)
  (-0.0674674 -0.112404 0)
  (-0.0702515 -0.108667 0)
  (-0.0761223 -0.103451 0)
  (-0.0829523 -0.0971983 0)
  (-0.0898807 -0.0907015 0)
  (-0.0967438 -0.0842893 0)
  (-0.103475 -0.0780444 0)
  (-0.109946 -0.0719264 0)
  (-0.115914 -0.0658028 0)
  (-0.12099 -0.0594526 0)
  (-0.124613 -0.0525534 0)
  (-0.126006 -0.0446469 0)
  (-0.124049 -0.035154 0)
  (-0.11671 -0.0247597 0)
  (-0.101095 -0.0128071 0)
  (-0.0750786 0.00169182 0)
  (-0.0396475 0.0195174 0)
  (0.0173018 0.0420589 0)
  (0.0690971 0.043866 0)
  (0.117723 0.0228616 0)
  (0.174502 -0.0160784 0)
  (-0.190415 -0.0823262 0)
)
;

boundaryField
{
  floor
  {
    type noSlip;
  }
  ceiling
  {
    type noSlip;
  }
  sWall
  {
    type noSlip;
  }
  nWall
  {
    type noSlip;
  }
  sideWalls
  {
    type empty;
  }
  glass1
  {
    type noSlip;
  }
  glass2
  {
    type noSlip;
  }
  sun
  {
    type noSlip;
  }
  heatsource1
  {
    type noSlip;
  }
  heatsource2
  {
    type noSlip;
  }
  Table_master
  {
    type noSlip;
  }
  Table_slave
  {
    type noSlip;
  }
  inlet
  {
    type fixedValue;
    value uniform (0.277164 -0.114805 0);
  }
  outlet
  {
    type zeroGradient;
  }
} 	// ************************************************************************* //

