/*--------------------------------*- C++ -*----------------------------------*\
  =========                 |
  \\      /  F ield         | OpenFOAM: The Open Source CFD Toolbox
   \\    /   O peration     | Website:  https://openfoam.org
    \\  /    A nd           | Version:  6
     \\/     M anipulation  |
\*---------------------------------------------------------------------------*/
FoamFile
{
    version     2.0;
    format      ascii;
    class       volScalarField;
    location    "270";
    object      T;
}
// * * * * * * * * * * * * * * * * * * * * * * * * * * * * * * * * * * * * * //

dimensions      [0 0 0 1 0 0 0];

internalField   nonuniform List<scalar> 
459
(
305.719
305.547
305.543
305.544
305.544
305.544
305.543
305.539
305.532
305.523
305.513
305.506
305.499
305.486
305.44
305.405
305.475
305.518
305.539
305.551
305.558
305.559
305.557
305.554
305.551
305.548
305.545
305.542
305.538
305.535
305.531
305.525
305.511
305.416
305.846
305.596
305.588
305.595
305.6
305.601
305.599
305.589
305.572
305.551
305.533
305.522
305.516
305.511
305.5
305.507
305.511
305.508
305.549
305.568
305.584
305.597
305.607
305.61
305.611
305.612
305.612
305.613
305.613
305.613
305.611
305.607
305.599
305.583
305.557
305.548
305.972
305.639
305.622
305.635
305.647
305.654
305.654
305.638
305.606
305.569
305.54
305.522
305.517
305.517
305.517
305.518
305.518
305.542
305.562
305.582
305.602
305.619
305.633
305.634
305.635
305.636
305.638
305.639
305.641
305.642
305.643
305.641
305.636
305.62
305.594
305.582
306.099
305.685
305.654
305.673
305.698
305.716
305.721
305.695
305.642
305.584
305.541
305.518
305.513
305.517
305.522
305.526
305.527
305.531
305.548
305.57
305.595
305.621
305.645
305.665
305.683
305.698
305.712
305.724
305.735
305.745
305.753
305.76
305.764
305.731
305.69
305.646
305.618
306.223
305.739
305.685
305.706
305.743
305.78
305.79
305.748
305.669
305.59
305.536
305.51
305.506
305.515
305.527
305.537
305.545
305.559
305.578
305.602
305.63
305.657
305.683
305.706
305.727
305.745
305.76
305.773
305.783
305.792
305.797
305.799
305.797
305.78
305.746
305.702
305.658
305.66
305.664
305.689
306.337
305.808
305.731
305.739
305.78
305.839
305.837
305.771
305.674
305.582
305.521
305.495
305.497
305.515
305.537
305.556
305.574
305.593
305.617
305.645
305.674
305.702
305.728
305.751
305.771
305.787
305.8
305.811
305.819
305.824
305.827
305.826
305.821
305.809
305.786
305.755
305.715
305.698
305.69
305.702
306.442
305.915
305.832
305.825
305.854
305.896
305.861
305.762
305.642
305.542
305.484
305.47
305.488
305.522
305.558
305.588
305.615
305.64
305.668
305.697
305.726
305.753
305.776
305.796
305.812
305.824
305.833
305.839
305.842
305.844
305.843
305.841
305.836
305.826
305.809
305.787
305.755
305.731
305.714
305.715
306.591
306.187
306.087
306.038
306.034
305.977
305.848
305.685
305.542
305.452
305.423
305.443
305.491
305.547
305.599
305.64
305.672
305.7
305.727
305.754
305.78
305.802
305.819
305.833
305.842
305.848
305.851
305.852
305.851
305.849
305.846
305.841
305.836
305.828
305.816
305.8
305.777
305.756
305.739
305.789
306.802
306.609
306.435
306.291
306.153
305.903
305.632
305.424
305.317
305.305
305.357
305.441
305.53
305.606
305.669
305.71
305.739
305.764
305.786
305.806
305.824
305.837
305.846
305.852
305.855
305.856
305.854
305.852
305.848
305.844
305.839
305.832
305.826
305.819
305.813
305.809
305.808
305.815
305.828
305.864
302.026
303.22
303.682
304.017
304.343
304.663
304.957
305.199
305.388
305.538
305.637
305.701
305.744
305.773
305.795
305.813
305.828
305.839
305.848
305.854
305.856
305.857
305.856
305.854
305.852
305.848
305.844
305.84
305.835
305.83
305.826
305.823
305.821
305.82
305.823
305.832
305.848
305.889
302.174
303.081
303.564
304.066
304.526
304.924
305.235
305.433
305.571
305.665
305.726
305.766
305.793
305.812
305.827
305.837
305.846
305.851
305.855
305.856
305.856
305.855
305.853
305.851
305.849
305.846
305.844
305.841
305.839
305.836
305.833
305.831
305.829
305.829
305.83
305.836
305.852
305.877
303.249
303.144
303.14
304.167
304.753
305.047
305.274
305.449
305.574
305.657
305.714
305.755
305.783
305.803
305.816
305.825
305.832
305.836
305.839
305.84
305.84
305.839
305.837
305.836
305.834
305.832
305.831
305.83
305.83
305.829
305.83
305.83
305.83
305.831
305.831
305.832
305.833
305.839
305.845
305.879
)
;

boundaryField
{
    floor
    {
        type            wallHeatTransfer;
        Tinf            uniform 301.25;
        alphaWall       uniform 0.24;
        value           nonuniform List<scalar> 
29
(
304.913
304.73
304.895
304.923
304.934
304.935
304.925
304.898
304.864
304.828
304.792
304.757
304.724
304.691
304.659
304.627
304.591
304.552
304.493
304.466
304.466
304.708
304.792
304.883
304.913
304.73
304.973
305.047
305.124
)
;
    }
    ceiling
    {
        type            wallHeatTransfer;
        Tinf            uniform 301.25;
        alphaWall       uniform 0.24;
        value           nonuniform List<scalar> 
43
(
303.081
302.994
302.999
303.956
304.501
304.786
305.007
305.175
305.292
305.366
305.414
305.444
305.464
305.477
305.487
305.494
305.5
305.504
305.506
305.507
305.507
305.506
305.504
305.502
305.5
305.498
305.494
305.49
305.484
305.477
305.468
305.459
305.448
305.439
305.43
305.424
305.419
305.418
305.435
305.455
306.515
306.37
302.112
)
;
    }
    sWall
    {
        type            wallHeatTransfer;
        Tinf            uniform 314.15;
        alphaWall       uniform 0.36;
        value           uniform 304.578;
    }
    nWall
    {
        type            wallHeatTransfer;
        Tinf            uniform 308.15;
        alphaWall       uniform 0.36;
        value           nonuniform List<scalar> 6(306.252 306.196 306.156 306.177 306.138 306.178);
    }
    sideWalls
    {
        type            empty;
    }
    glass1
    {
        type            wallHeatTransfer;
        Tinf            uniform 314.15;
        alphaWall       uniform 4.3;
        value           nonuniform List<scalar> 9(311.619 311.203 310.936 310.729 310.554 310.393 310.268 310.307 310.453);
    }
    glass2
    {
        type            wallHeatTransfer;
        Tinf            uniform 308.15;
        alphaWall       uniform 4.3;
        value           nonuniform List<scalar> 2(307.417 307.406);
    }
    sun
    {
        type            wallHeatTransfer;
        Tinf            uniform 301.25;
        alphaWall       uniform 0.24;
        value           nonuniform List<scalar> 
14
(
305.212
305.093
305.098
305.116
305.131
305.144
305.156
305.162
305.161
305.153
305.14
305.12
305.092
305.034
)
;
    }
    heatsource1
    {
        type            fixedGradient;
        gradient        uniform 0;
    }
    heatsource2
    {
        type            fixedGradient;
        gradient        uniform 0;
    }
    Table_master
    {
        type            zeroGradient;
    }
    Table_slave
    {
        type            zeroGradient;
    }
    inlet
    {
        type            fixedValue;
        value           uniform 299.15;
    }
    outlet
    {
        type            zeroGradient;
    }
}


// ************************************************************************* //
