/*--------------------------------*- C++ -*----------------------------------*\
  =========                 |
  \\      /  F ield         | OpenFOAM: The Open Source CFD Toolbox
   \\    /   O peration     | Website:  https://openfoam.org
    \\  /    A nd           | Version:  6
     \\/     M anipulation  |
\*---------------------------------------------------------------------------*/
FoamFile
{
    version     2.0;
    format      ascii;
    class       volVectorField;
    location    "270";
    object      U;
}
// * * * * * * * * * * * * * * * * * * * * * * * * * * * * * * * * * * * * * //

dimensions      [0 1 -1 0 0 0 0];

internalField   nonuniform List<vector> 
459
(
(0.0239606 0.0749579 0)
(-0.146687 0.0232533 0)
(-0.170499 0.0150424 0)
(-0.197016 0.00891534 0)
(-0.214189 0.00218125 0)
(-0.220581 -0.00500351 0)
(-0.214287 -0.0125924 0)
(-0.195746 -0.0203414 0)
(-0.16644 -0.026881 0)
(-0.129935 -0.0309283 0)
(-0.0908319 -0.0318244 0)
(-0.0538548 -0.0294438 0)
(-0.0234935 -0.0236739 0)
(-0.00311479 -0.0113771 0)
(0.0600534 0.00794702 0)
(-0.116483 0.0032809 0)
(0.0366161 -0.00424115 0)
(0.0197959 -0.00868852 0)
(0.0289425 -0.0110382 0)
(0.0432087 -0.0103176 0)
(0.0556518 -0.00804644 0)
(0.0637827 -0.00466517 0)
(0.0678287 -0.00268028 0)
(0.0692219 -0.0019672 0)
(0.0695455 -0.00172182 0)
(0.0695338 -0.00154816 0)
(0.0692415 -0.00132463 0)
(0.0684859 -0.00095086 0)
(0.0668758 -0.000187509 0)
(0.063544 0.00152412 0)
(0.0567775 0.00513643 0)
(0.0473369 0.0105706 0)
(-0.0176098 0.0216368 0)
(0.125541 -0.00873899 0)
(0.170172 0.153536 0)
(-0.135792 0.061947 0)
(-0.138006 0.0467688 0)
(-0.165445 0.0340825 0)
(-0.182728 0.0194253 0)
(-0.189619 0.00274501 0)
(-0.184053 -0.0157657 0)
(-0.166852 -0.033944 0)
(-0.140118 -0.0483876 0)
(-0.107736 -0.0565013 0)
(-0.0740158 -0.0575182 0)
(-0.0427405 -0.0519747 0)
(-0.0168705 -0.0409664 0)
(0.00244586 -0.0250054 0)
(0.02204 -0.00268022 0)
(0.0241845 0.0108126 0)
(0.0177782 0.0208661 0)
(-0.143027 0.000934014 0)
(0.0351518 -0.0234698 0)
(0.0318729 -0.0234579 0)
(0.0419005 -0.0225888 0)
(0.0535248 -0.019371 0)
(0.0628258 -0.0143437 0)
(0.0675757 -0.00588804 0)
(0.0686535 -0.000794418 0)
(0.0685714 0.00118196 0)
(0.0686768 0.00195248 0)
(0.0689582 0.00244534 0)
(0.0691502 0.00291243 0)
(0.0691735 0.00360789 0)
(0.068975 0.00503277 0)
(0.0679511 0.00836129 0)
(0.0633604 0.0169359 0)
(0.0563423 0.0264103 0)
(-0.0024316 0.0380514 0)
(0.171623 0.0211906 0)
(0.304915 0.229724 0)
(-0.147628 0.0977309 0)
(-0.104869 0.075273 0)
(-0.131575 0.0532638 0)
(-0.147503 0.0291351 0)
(-0.153977 0.00186238 0)
(-0.147475 -0.0279424 0)
(-0.129882 -0.0563954 0)
(-0.104478 -0.0776314 0)
(-0.0756741 -0.088077 0)
(-0.0472932 -0.0875409 0)
(-0.0218458 -0.077511 0)
(-0.00107204 -0.0601741 0)
(0.0141656 -0.0376423 0)
(0.0253128 -0.0126097 0)
(0.0304739 0.0104424 0)
(0.0271489 0.0403416 0)
(-0.0663905 -0.0202147 0)
(0.0389069 -0.036868 0)
(0.0516507 -0.0381177 0)
(0.0570236 -0.0337487 0)
(0.0632606 -0.0281799 0)
(0.0689052 -0.0235437 0)
(0.071006 -0.0175765 0)
(0.0661309 -0.0113999 0)
(0.0622187 -0.00817472 0)
(0.0608974 -0.00642607 0)
(0.0608029 -0.00530775 0)
(0.0611342 -0.00444167 0)
(0.0619408 -0.00354185 0)
(0.0639743 -0.00209963 0)
(0.0689949 0.00236722 0)
(0.0699741 0.0223095 0)
(0.0659496 0.0380669 0)
(0.00877281 0.0543799 0)
(0.199182 0.052645 0)
(0.427887 0.291163 0)
(-0.174711 0.129095 0)
(-0.0697259 0.100006 0)
(-0.0949504 0.0703036 0)
(-0.107333 0.038755 0)
(-0.111169 0.00148121 0)
(-0.10036 -0.0403218 0)
(-0.0810583 -0.0786136 0)
(-0.0574859 -0.104982 0)
(-0.0337298 -0.115999 0)
(-0.012327 -0.113064 0)
(0.00639592 -0.0983491 0)
(0.0208108 -0.0765872 0)
(0.032424 -0.0506456 0)
(0.0429799 -0.0228323 0)
(0.0546646 0.00388942 0)
(0.0699965 0.0274366 0)
(0.0973698 -0.0409153 0)
(0.0961717 -0.0360233 0)
(0.0881923 -0.0395769 0)
(0.0776936 -0.0392709 0)
(0.0706854 -0.0347207 0)
(0.0670178 -0.0289186 0)
(0.064169 -0.022256 0)
(0.0650817 -0.0134558 0)
(0.0723748 -0.00939853 0)
(0.0785442 -0.00725944 0)
(0.082667 -0.00602023 0)
(0.0857663 -0.00505267 0)
(0.0880642 -0.0039721 0)
(0.0888026 -0.0023672 0)
(0.0861843 0.000361021 0)
(0.077944 0.00480449 0)
(0.0699329 0.0262117 0)
(0.0719123 0.0456316 0)
(0.0246285 0.0665748 0)
(0.214519 0.101771 0)
(0.535993 0.338674 0)
(-0.209512 0.15413 0)
(-0.0343716 0.114745 0)
(-0.0555138 0.0805581 0)
(-0.0619115 0.0445926 0)
(-0.0579042 -0.00115271 0)
(-0.0393665 -0.0552119 0)
(-0.019118 -0.100107 0)
(3.65636e-05 -0.12762 0)
(0.0159029 -0.13593 0)
(0.0279092 -0.129092 0)
(0.03705 -0.111582 0)
(0.0439908 -0.0874171 0)
(0.0498953 -0.0601905 0)
(0.0564572 -0.033007 0)
(0.0659794 -0.00968081 0)
(0.0796595 0.00396346 0)
(0.0903747 -0.00731352 0)
(0.0892096 -0.0175295 0)
(0.0798254 -0.0254386 0)
(0.0703112 -0.0283341 0)
(0.062651 -0.0271069 0)
(0.0569489 -0.0236253 0)
(0.0530211 -0.0183146 0)
(0.052402 -0.0105837 0)
(0.0550558 -0.00643544 0)
(0.0581713 -0.00491955 0)
(0.0610663 -0.00431035 0)
(0.0639729 -0.00359295 0)
(0.0668257 -0.0020651 0)
(0.0693192 0.00107075 0)
(0.0706873 0.00641733 0)
(0.0703139 0.0147308 0)
(0.0701749 0.0293384 0)
(0.0787293 0.0454446 0)
(0.0635661 0.060219 0)
(0.149151 0.0987031 0)
(0.138156 0.0805149 0)
(0.114238 0.0608163 0)
(-0.110212 0.0643377 0)
(0.616561 0.37794 0)
(-0.245033 0.170244 0)
(-0.00660612 0.11237 0)
(-0.0141191 0.08189 0)
(-0.0118789 0.0452607 0)
(0.0111219 -0.0146644 0)
(0.0353002 -0.0756201 0)
(0.0524075 -0.118351 0)
(0.0630811 -0.140822 0)
(0.0681532 -0.145062 0)
(0.0690511 -0.134989 0)
(0.0672419 -0.115053 0)
(0.0641793 -0.0896745 0)
(0.0613901 -0.0627047 0)
(0.0603776 -0.0373933 0)
(0.0624733 -0.0171748 0)
(0.0675944 -0.00622831 0)
(0.0703643 -0.00867362 0)
(0.0669053 -0.0152606 0)
(0.0593435 -0.0197293 0)
(0.0511628 -0.021373 0)
(0.0437605 -0.0207467 0)
(0.0377047 -0.0185721 0)
(0.0334598 -0.0151355 0)
(0.0317921 -0.0109221 0)
(0.0326248 -0.00865734 0)
(0.0346784 -0.00804525 0)
(0.037315 -0.00794006 0)
(0.0403939 -0.00751796 0)
(0.0438507 -0.00611164 0)
(0.0476302 -0.00284489 0)
(0.0521867 0.00329713 0)
(0.0563259 0.0124027 0)
(0.0610444 0.024481 0)
(0.0702648 0.0367766 0)
(0.0697546 0.042282 0)
(0.0962154 0.0608133 0)
(0.0940719 0.0519096 0)
(0.104089 0.0532495 0)
(-0.123485 0.0940074 0)
(0.666732 0.413031 0)
(-0.263904 0.156858 0)
(0.0186991 0.0697372 0)
(0.0393104 0.0584623 0)
(0.0563002 0.0246423 0)
(0.094973 -0.0416948 0)
(0.118484 -0.0962083 0)
(0.128485 -0.130042 0)
(0.127748 -0.144362 0)
(0.119185 -0.142453 0)
(0.10587 -0.128394 0)
(0.090482 -0.106531 0)
(0.0752676 -0.0811332 0)
(0.0621232 -0.0557717 0)
(0.0523524 -0.0332434 0)
(0.0466448 -0.0162221 0)
(0.0443955 -0.00692546 0)
(0.0423398 -0.00630439 0)
(0.0379293 -0.00955778 0)
(0.0315292 -0.0125103 0)
(0.0245037 -0.0140762 0)
(0.0178256 -0.0143081 0)
(0.0121604 -0.0135557 0)
(0.00811115 -0.0121413 0)
(0.00623544 -0.0106124 0)
(0.00641808 -0.0101373 0)
(0.00786309 -0.0105415 0)
(0.0100198 -0.0110949 0)
(0.0126758 -0.0111987 0)
(0.0158316 -0.010362 0)
(0.0197134 -0.0079341 0)
(0.0249491 -0.00282836 0)
(0.0327687 0.00590674 0)
(0.0408321 0.0165052 0)
(0.0504708 0.0268126 0)
(0.0553721 0.032873 0)
(0.0671737 0.0466975 0)
(0.0717985 0.0560466 0)
(0.112184 0.076196 0)
(-0.10742 0.147954 0)
(0.763745 0.413411 0)
(-0.0625988 0.129368 0)
(0.0932838 -0.0107752 0)
(0.151088 -0.0399075 0)
(0.186135 -0.0633477 0)
(0.209658 -0.0923485 0)
(0.216411 -0.116826 0)
(0.207478 -0.130341 0)
(0.186435 -0.131812 0)
(0.158035 -0.122678 0)
(0.126899 -0.10557 0)
(0.0963638 -0.083636 0)
(0.0688694 -0.060404 0)
(0.0463433 -0.0388016 0)
(0.0296455 -0.02088 0)
(0.0189503 -0.00852083 0)
(0.0130154 -0.00234516 0)
(0.00909203 -0.0017604 0)
(0.0048104 -0.00381195 0)
(-0.000561654 -0.00605031 0)
(-0.00642438 -0.00759344 0)
(-0.0120286 -0.00847066 0)
(-0.0168058 -0.00898635 0)
(-0.0202542 -0.00938538 0)
(-0.0221232 -0.00994584 0)
(-0.0226312 -0.0109963 0)
(-0.0222698 -0.0123465 0)
(-0.0214096 -0.0135732 0)
(-0.0202667 -0.0143065 0)
(-0.0189311 -0.0143186 0)
(-0.0172406 -0.0134433 0)
(-0.0145734 -0.0113084 0)
(-0.00922868 -0.00695049 0)
(0.0024045 0.000585001 0)
(0.0122287 0.00813852 0)
(0.0185077 0.0124619 0)
(0.0273135 0.0204005 0)
(0.0349718 0.0276215 0)
(0.109513 0.0823494 0)
(-0.362826 0.212882 0)
(0.897443 0.404454 0)
(0.427608 0.279881 0)
(0.431527 0.17594 0)
(0.447202 0.102729 0)
(0.4215 0.0463621 0)
(0.371518 -0.0084931 0)
(0.319174 -0.0512014 0)
(0.266265 -0.0755825 0)
(0.211968 -0.0827834 0)
(0.159077 -0.0773182 0)
(0.111059 -0.0639691 0)
(0.0693621 -0.0466131 0)
(0.0351602 -0.0291129 0)
(0.00950107 -0.0140529 0)
(-0.00830774 -0.00261133 0)
(-0.0182534 0.00320556 0)
(-0.0235766 0.00505685 0)
(-0.0268184 0.00436684 0)
(-0.0299727 0.00269961 0)
(-0.0336508 0.00103647 0)
(-0.0377839 -0.00035918 0)
(-0.0419002 -0.00160678 0)
(-0.045572 -0.00287226 0)
(-0.0485449 -0.00420366 0)
(-0.0508479 -0.00564804 0)
(-0.0526994 -0.00728654 0)
(-0.0543153 -0.00897109 0)
(-0.0558722 -0.0104408 0)
(-0.0576196 -0.0114552 0)
(-0.0600351 -0.0118462 0)
(-0.0638306 -0.0113255 0)
(-0.0698087 -0.00900178 0)
(-0.0788027 -0.00293589 0)
(-0.090169 0.00813479 0)
(-0.103889 0.0239209 0)
(-0.126779 0.0458034 0)
(-0.158124 0.0756189 0)
(-0.198881 0.110174 0)
(-0.266277 0.141556 0)
(-0.525208 0.15761 0)
(-0.214336 0.0502934 0)
(0.101674 0.0188202 0)
(0.171257 -0.0318646 0)
(0.159842 -0.0526753 0)
(0.14589 -0.0565057 0)
(0.124418 -0.0534568 0)
(0.0932243 -0.0459532 0)
(0.0581062 -0.0355548 0)
(0.0245863 -0.0231029 0)
(-0.00594479 -0.00918083 0)
(-0.0285432 0.00118309 0)
(-0.0430477 0.00761474 0)
(-0.051219 0.0112239 0)
(-0.0548901 0.0124959 0)
(-0.0568052 0.0125151 0)
(-0.058218 0.0118156 0)
(-0.05985 0.0109217 0)
(-0.0618248 0.0101108 0)
(-0.063975 0.00935878 0)
(-0.0662638 0.00851686 0)
(-0.0687872 0.00730887 0)
(-0.0715882 0.00612548 0)
(-0.0748062 0.0052807 0)
(-0.0785849 0.00484204 0)
(-0.0829416 0.00514057 0)
(-0.0877789 0.00666287 0)
(-0.0929232 0.00993767 0)
(-0.0982578 0.0151637 0)
(-0.103853 0.0216982 0)
(-0.109995 0.0276992 0)
(-0.116101 0.033234 0)
(-0.121464 0.0404063 0)
(-0.125937 0.0516729 0)
(-0.129047 0.0689573 0)
(-0.128343 0.0918076 0)
(-0.121091 0.107675 0)
(-0.110588 0.074442 0)
(-0.153189 -0.168305 0)
(-0.144483 0.105728 0)
(0.0942183 0.00558792 0)
(0.0813923 -0.064058 0)
(0.0534372 -0.075131 0)
(0.0297227 -0.0715088 0)
(0.00676884 -0.0674438 0)
(-0.0175755 -0.064979 0)
(-0.0390861 -0.0639088 0)
(-0.0571008 -0.062158 0)
(-0.0690644 -0.0626766 0)
(-0.0753581 -0.064852 0)
(-0.0785274 -0.067743 0)
(-0.079654 -0.0707856 0)
(-0.0795315 -0.0738164 0)
(-0.0789693 -0.0766486 0)
(-0.078426 -0.0794412 0)
(-0.0781711 -0.0822196 0)
(-0.0782744 -0.0849679 0)
(-0.078733 -0.0876925 0)
(-0.0795736 -0.0903551 0)
(-0.0809188 -0.0927821 0)
(-0.082919 -0.095189 0)
(-0.0856034 -0.0975609 0)
(-0.0890664 -0.100827 0)
(-0.0935312 -0.105291 0)
(-0.0990894 -0.110774 0)
(-0.105459 -0.116301 0)
(-0.111917 -0.120469 0)
(-0.117522 -0.121993 0)
(-0.121538 -0.11808 0)
(-0.123309 -0.107315 0)
(-0.121289 -0.089317 0)
(-0.112837 -0.0641998 0)
(-0.0949065 -0.0337266 0)
(-0.0661566 -0.0032108 0)
(-0.0302456 0.0109821 0)
(0.0749063 -0.0979797 0)
(-0.105561 -0.165267 0)
(0.285191 -0.150982 0)
(-0.246732 -0.0567463 0)
(-0.160322 0.191675 0)
(-0.0692024 0.211805 0)
(-0.0848367 0.235215 0)
(-0.0915264 0.230846 0)
(-0.103616 0.229077 0)
(-0.114209 0.229914 0)
(-0.121916 0.234011 0)
(-0.125613 0.240348 0)
(-0.125062 0.246809 0)
(-0.121937 0.256176 0)
(-0.117227 0.265506 0)
(-0.112126 0.273554 0)
(-0.107306 0.28002 0)
(-0.103171 0.285044 0)
(-0.0998903 0.288927 0)
(-0.0974916 0.292126 0)
(-0.0959636 0.294905 0)
(-0.0952621 0.297398 0)
(-0.0953562 0.299683 0)
(-0.0962326 0.301754 0)
(-0.0978267 0.303472 0)
(-0.10006 0.305102 0)
(-0.102785 0.306665 0)
(-0.105862 0.309811 0)
(-0.109099 0.315217 0)
(-0.112249 0.32292 0)
(-0.114982 0.331823 0)
(-0.116898 0.340404 0)
(-0.117551 0.347754 0)
(-0.11613 0.351519 0)
(-0.111317 0.350968 0)
(-0.101286 0.346645 0)
(-0.0842034 0.340065 0)
(-0.0599803 0.334708 0)
(-0.0313925 0.336191 0)
(0.00986313 0.347046 0)
(0.117672 0.422298 0)
(-0.274195 0.44341 0)
)
;

boundaryField
{
    floor
    {
        type            noSlip;
    }
    ceiling
    {
        type            noSlip;
    }
    sWall
    {
        type            noSlip;
    }
    nWall
    {
        type            noSlip;
    }
    sideWalls
    {
        type            empty;
    }
    glass1
    {
        type            noSlip;
    }
    glass2
    {
        type            noSlip;
    }
    sun
    {
        type            noSlip;
    }
    heatsource1
    {
        type            noSlip;
    }
    heatsource2
    {
        type            noSlip;
    }
    Table_master
    {
        type            noSlip;
    }
    Table_slave
    {
        type            noSlip;
    }
    inlet
    {
        type            fixedValue;
        value           uniform (0.2 0 0);
    }
    outlet
    {
        type            zeroGradient;
    }
}


// ************************************************************************* //
