/*--------------------------------*- C++ -*----------------------------------*\
  =========                 |
  \\      /  F ield         | OpenFOAM: The Open Source CFD Toolbox
   \\    /   O peration     | Website:  https://openfoam.org
    \\  /    A nd           | Version:  6
     \\/     M anipulation  |
\*---------------------------------------------------------------------------*/
FoamFile
{
    version     2.0;
    format      ascii;
    class       surfaceScalarField;
    location    "200";
    object      phi;
}
// * * * * * * * * * * * * * * * * * * * * * * * * * * * * * * * * * * * * * //

dimensions      [1 0 -1 0 0 0 0];

internalField   nonuniform List<scalar> 
852
(
-7.84007e-06
3.09145e-05
0.00453412
-0.00454177
0.00708952
-0.00255521
0.00832704
-0.00123733
0.00899293
-0.000665701
0.00935024
-0.000357124
0.00945582
-0.000105398
0.00933715
0.000118854
0.00901063
0.000326702
0.00847801
0.000532805
0.0077266
0.000751594
0.00672261
0.00100416
0.00538169
0.0013411
0.0034403
0.00194157
0.00343749
0.000141845
-0.00014571
-1.5352e-05
0.00015718
-0.000101414
8.60517e-05
-0.000241468
0.000140051
-0.00037411
0.000132641
-0.000469833
9.57225e-05
-0.000531249
6.14146e-05
-0.000571321
4.00707e-05
-0.000599473
2.81512e-05
-0.000619327
1.98529e-05
-0.00063234
1.30151e-05
-0.000640086
7.74941e-06
-0.000643145
3.06664e-06
-0.000626401
-1.67325e-05
-0.000539023
-8.73621e-05
-0.000366423
-0.00017258
-0.000235059
-0.000131347
-0.000263521
2.84791e-05
-0.000266754
0.00561477
-0.00552532
0.00646929
-0.00539609
0.00716408
-0.00324981
0.00768375
-0.00175682
0.00802213
-0.00100389
0.00820373
-0.000538546
0.0082371
-0.000138579
0.00810623
0.000249901
0.00780288
0.000630233
0.00731965
0.00101621
0.00665117
0.00142026
0.00580251
0.001853
0.0048159
0.00232788
0.00391548
0.00284216
0.00401299
0.00334015
0.00144989
0.00256322
0.00145
-0.000225297
6.93242e-05
-0.000228026
0.000159907
-0.000395947
0.000253973
-0.00049907
0.000243175
-0.000578361
0.000211936
-0.000623582
0.000140947
-0.000634646
7.24839e-05
-0.000634842
4.02731e-05
-0.000634473
2.77886e-05
-0.000633115
1.85036e-05
-0.000629878
9.78865e-06
-0.000624093
1.9786e-06
-0.000616839
-4.16849e-06
-0.000607518
-2.60279e-05
-0.000557941
-0.000136908
-0.000377854
-0.000352632
-0.000188445
-0.000320721
1.67831e-05
-0.000176719
-0.000258035
0.00367281
-0.00910476
0.00459179
-0.00631487
0.00484867
-0.0035065
0.00511261
-0.00202057
0.00536655
-0.00125765
0.00555316
-0.000724989
0.00567416
-0.000259404
0.0057041
0.000220131
0.00560577
0.000728737
0.00535303
0.00126912
0.00493777
0.0018357
0.00437382
0.00241712
0.00370922
0.00299265
0.00302331
0.00352825
0.00234072
0.00402291
0.00117382
0.0037303
0.00262397
-0.000604823
0.000657406
-0.000623293
0.000178386
-0.00065373
0.000284416
-0.000688026
0.000277478
-0.000703589
0.000227506
-0.000709064
0.00014643
-0.000636423
-0.000595991
-0.000568043
-0.000549377
-0.000539423
-0.000537274
-0.000541266
-0.00056711
-0.000703827
-0.00044644
-0.000609971
-0.000177169
-0.000589944
0.000123543
-0.000477386
-0.000146946
0.00202376
-0.0110013
0.00256179
-0.0068527
0.00270041
-0.00364494
0.00277266
-0.00209265
0.00293542
-0.00142024
0.00312647
-0.000915887
0.00331568
-0.000448458
0.00345329
8.26671e-05
0.00348501
0.000697182
0.00338806
0.00136623
0.00315203
0.00207189
0.00278069
0.00278863
0.00228689
0.00348662
0.00168093
0.00413438
0.000996348
0.00470766
0.000204622
0.00452219
-0.000462279
0.00329093
-0.000961928
0.000480407
-0.000856019
0.000551514
-0.000907031
0.00022942
-0.000951427
0.000328835
-0.0010061
0.00033218
-0.00107322
0.000294651
-0.0011382
0.000211437
-0.00126068
0.000122366
-0.00132629
6.5504e-05
-0.00135042
2.40201e-05
-0.00134218
-8.34008e-06
-0.00130436
-3.79176e-05
-0.00123544
-6.90204e-05
-0.00112843
-0.000107106
-0.000960385
-0.000168144
-0.000655619
-0.000304861
-0.000670957
-0.000594581
-0.000480841
-0.000780005
-8.86104e-05
-0.00086956
-0.000253521
0.000850766
-0.0116919
0.00108659
-0.00708831
0.00112362
-0.00368179
0.000916614
-0.00188548
0.0010004
-0.00150388
0.00120415
-0.00111949
0.00141216
-0.00065633
0.00156802
-7.30493e-05
0.00164095
0.000624394
0.00161343
0.00139391
0.00147605
0.00220943
0.00122713
0.00303772
0.000865089
0.00384883
0.000400635
0.00459901
-7.7162e-05
0.00518562
-0.000483784
0.00492894
-0.000640791
0.00344794
-0.000943728
0.000783355
-0.000909731
0.000517544
-0.00102203
0.000341751
-0.0010524
0.000359234
-0.00106114
0.000340945
-0.0010622
0.000295749
-0.00107382
0.000223095
-0.00109538
0.000143964
-0.00110874
7.89016e-05
-0.00110999
2.53161e-05
-0.00109827
-2.00156e-05
-0.00107505
-6.10933e-05
-0.00104156
-0.000102456
-0.000996611
-0.000152005
-0.000939255
-0.000225447
-0.000897132
-0.00034693
-0.000986109
-0.000505548
-0.00115956
-0.000606493
-0.00147008
-0.000558987
-0.00137581
-0.000347726
-0.00115864
-0.000217306
-0.000923542
-0.000235231
-0.000933055
1.28875e-06
-0.011501
4.71531e-05
-0.00713397
-0.000174389
-0.00346008
-0.000634472
-0.00142526
-0.000607966
-0.00153025
-0.000428593
-0.00129873
-0.000250965
-0.000833819
-0.000119642
-0.000204232
-4.42497e-05
0.000549148
-3.26696e-05
0.00138248
-8.9192e-05
0.00226611
-0.000218752
0.00316744
-0.000422487
0.00405273
-0.000677348
0.00485404
-0.000878751
0.00538718
-0.000977693
0.00502797
-0.000908601
0.00337883
-0.00106323
0.000938001
-0.00103668
0.000491032
-0.00106099
0.000366097
-0.00103941
0.00033769
-0.000995015
0.000296584
-0.000942639
0.000243411
-0.000898297
0.000178794
-0.000865684
0.000111393
-0.000837619
5.08803e-05
-0.00080947
-2.78736e-06
-0.000779876
-4.95619e-05
-0.000749564
-9.1357e-05
-0.000718574
-0.000133397
-0.000688555
-0.000181973
-0.000667145
-0.000246806
-0.00067732
-0.000336702
-0.000745888
-0.000436927
-0.000857462
-0.000494864
-0.000951924
-0.00046447
-0.000914715
-0.000384878
-0.000745409
-0.000386552
-0.000496894
-0.000483686
-0.00143978
-0.000733517
-0.0105453
-0.00115611
-0.00671116
-0.0016702
-0.00294582
-0.00227595
-0.000819355
-0.00227712
-0.00152893
-0.00210568
-0.00147003
-0.00192262
-0.00101674
-0.001773
-0.000353702
-0.00165885
0.000435147
-0.00157514
0.00129893
-0.00151573
0.00220685
-0.00148254
0.00313442
-0.00147374
0.0040441
-0.00146761
0.00484806
-0.00139685
0.00531655
-0.00124617
0.00487736
-0.00102302
0.00315565
-0.00105088
0.000965893
-0.00103006
0.000470247
-0.000995027
0.000331108
-0.00091755
0.000260258
-0.000816715
0.000195795
-0.000711223
0.000137966
-0.000617192
8.48107e-05
-0.000540065
3.43158e-05
-0.000476327
-1.28065e-05
-0.000424309
-5.47547e-05
-0.000382246
-9.15751e-05
-0.000346343
-0.00012721
-0.000314959
-0.000164729
-0.000289091
-0.000207791
-0.000274498
-0.000261347
-0.000282395
-0.000328754
-0.000317513
-0.000401757
-0.000358504
-0.000453822
-0.000359779
-0.000463142
-0.000297902
-0.000446701
-0.000199175
-0.000485224
-1.19414e-05
-0.000670862
-0.00146214
-0.00272119
-0.00757534
-0.00413828
-0.00529384
-0.00423183
-0.00285208
-0.0044936
-0.000557429
-0.0041232
-0.00189919
-0.00374908
-0.001844
-0.00347082
-0.00129485
-0.00326486
-0.000559515
-0.00309019
0.000260628
-0.00291683
0.00112572
-0.00271915
0.00200933
-0.00249051
0.00290595
-0.00222828
0.00378202
-0.00192727
0.00454719
-0.00157743
0.00496682
-0.00121706
0.00451703
-0.000897147
0.00283571
-0.000858865
0.000927649
-0.000816483
0.000427917
-0.00073308
0.000247758
-0.000595655
0.000122891
-0.000437055
3.72545e-05
-0.000285236
-1.37927e-05
-0.000157632
-4.27328e-05
-5.93927e-05
-6.38637e-05
1.2317e-05
-8.44595e-05
6.39282e-05
-0.000106311
0.00010256
-0.000130153
0.000132207
-0.000156804
0.00015457
-0.00018704
0.000169404
-0.000222572
0.000174023
-0.000265915
0.000164283
-0.000318962
0.000141937
-0.00037936
0.000126898
-0.000438732
0.000156627
-0.000492819
0.000269914
-0.000559935
0.000472063
-0.00068732
0.000673278
-0.000872024
-0.000849109
-0.00733435
-0.0126513
-0.00872247
-0.00678068
-0.00632105
-0.00295865
-0.00540441
-0.00281567
-0.00489942
-0.00234884
-0.004597
-0.00159713
-0.00439605
-0.00076032
-0.00421666
8.13876e-05
-0.00396693
0.000876141
-0.00362706
0.00166962
-0.00318976
0.00246879
-0.00265396
0.00324637
-0.00203614
0.00392949
-0.00139295
0.00432373
-0.000832416
0.00395653
-0.000359995
0.00236329
-0.000304353
0.000872057
-0.000234467
0.000358092
-9.40954e-05
0.000107452
0.000110547
-8.16811e-05
0.000291086
-0.000143213
0.000419178
-0.000141816
0.000506058
-0.000129547
0.000565913
-0.000123655
0.000607749
-0.000126233
0.000636994
-0.000135496
0.000656493
-0.000149593
0.000667327
-0.000167581
0.000669817
-0.000189475
0.000663589
-0.00021629
0.00064745
-0.000249723
0.000619895
-0.000291355
0.000581895
-0.000341307
0.000541226
-0.000398012
0.000511505
-0.000463047
0.00050816
-0.00055654
0.000562951
-0.000742059
0.000729508
-0.00103853
-0.000188324
-0.00699603
0.00039497
-0.00570807
-0.00424633
-0.00530627
-0.00321726
-0.00527267
-0.0023823
-0.00527169
-0.00159797
-0.00517196
-0.000859912
-0.0049689
-0.000121528
-0.00464865
0.000556027
-0.00419955
0.00122067
-0.00358046
0.00184985
-0.00278626
0.00245231
-0.00184193
0.00298528
-0.000878045
0.00335993
4.14059e-05
0.00303712
0.000701875
0.00170285
0.00085699
0.000717001
0.000973385
0.000241765
0.00109263
-1.17142e-05
0.00118324
-0.000172216
0.00122496
-0.000184868
0.00124177
-0.000158546
0.00124943
-0.000137137
0.00125323
-0.000127387
0.00125366
-0.000126598
0.0012494
-0.000131164
0.00123873
-0.00013886
0.00122022
-0.000149016
0.00119288
-0.000162071
0.0011558
-0.000179151
0.00110778
-0.000201651
0.00104717
-0.000230694
0.000972248
-0.000266332
0.000881161
-0.000306873
0.000767226
-0.000349062
0.000600117
-0.00038938
0.000279916
-0.000421809
-0.00035093
-0.000407631
-0.00055457
-0.000261487
0.000617686
-0.00251362
-0.00199378
-0.00352195
-0.00220863
-0.00452121
-0.00138289
-0.00527698
-0.000842063
-0.00568772
-0.000449041
-0.0056843
-0.000124809
-0.00538558
0.000257445
-0.00481738
0.000652607
-0.00399276
0.00102536
-0.00292099
0.00138067
-0.00160766
0.00167207
-5.82619e-05
0.00181064
0.00140708
0.00157183
0.00217153
0.000938469
0.00243063
0.000457976
0.00246621
0.000206269
0.00238942
6.51542e-05
0.00222255
-5.26658e-06
0.00208465
-4.68944e-05
0.0019975
-7.13087e-05
0.0019453
-8.48636e-05
0.00190929
-9.13063e-05
0.00187524
-9.24719e-05
0.00183458
-9.04359e-05
0.00178344
-8.76434e-05
0.00172078
-8.62941e-05
0.00164672
-8.79539e-05
0.00156122
-9.35892e-05
0.00146345
-0.000103821
0.00135198
-0.000119169
0.00122583
-0.000140126
0.00108605
-0.000167036
0.000937422
-0.000200388
0.000793398
-0.000245307
0.000685517
-0.000313879
0.000565017
-0.000287081
-3.6533e-06
0.00330114
0.00172371
0.00223788
0.000138434
-0.00215417
-0.00362059
-0.00454898
-0.00508774
-0.00530508
-0.00514174
-0.00458487
-0.00365689
-0.00237495
-0.000802664
0.000907602
0.00238126
0.00322713
0.00359864
0.0037245
0.00371465
0.00363885
0.00352481
0.0033884
0.00323944
0.0030844
0.00292825
0.0027741
0.00262276
0.00247287
0.00232151
0.00216474
0.00199801
0.00181619
0.00161366
0.00138444
0.00112204
0.000814855
0.000439127
8.93052e-05
)
;

boundaryField
{
    floor
    {
        type            calculated;
        value           nonuniform List<scalar> 
29
(
0
0
0
0
0
0
0
0
0
0
0
0
0
0
0
0
0
0
0
0
3.25524e-06
8.09695e-06
1.24992e-05
1.8015e-05
2.98644e-06
3.86148e-06
1.02577e-05
1.67503e-05
1.92511e-05
)
;
    }
    ceiling
    {
        type            calculated;
        value           nonuniform List<scalar> 
43
(
0.000228099
0.000218198
0.000104064
0.000106229
8.44903e-05
8.36827e-05
8.64555e-05
8.98495e-05
9.2659e-05
9.42357e-05
9.58684e-05
9.75052e-05
9.88513e-05
9.99119e-05
0.000100485
9.82628e-05
9.27021e-05
8.65607e-05
8.05048e-05
7.50953e-05
7.06263e-05
6.72349e-05
6.51902e-05
6.41847e-05
6.38184e-05
6.37616e-05
6.37883e-05
6.37721e-05
6.36668e-05
6.34788e-05
6.32374e-05
6.29735e-05
6.27096e-05
6.24608e-05
6.22403e-05
6.20613e-05
6.19303e-05
6.18984e-05
6.27908e-05
6.87107e-05
2.78949e-05
2.33788e-05
3.91208e-05
)
;
    }
    sWall
    {
        type            calculated;
        value           uniform -2.53847e-05;
    }
    nWall
    {
        type            calculated;
        value           nonuniform List<scalar> 6(9.38028e-06 9.89044e-06 1.0479e-05 1.53686e-05 1.41521e-05 1.69941e-05);
    }
    sideWalls
    {
        type            empty;
        value           nonuniform 0();
    }
    glass1
    {
        type            calculated;
        value           nonuniform List<scalar> 9(-2.28813e-05 -5.83443e-05 -9.31862e-05 -0.000127009 -0.000159975 -0.000191929 -0.000222008 -0.000248549 -0.000268642);
    }
    glass2
    {
        type            calculated;
        value           nonuniform List<scalar> 2(6.03035e-05 6.87797e-05);
    }
    sun
    {
        type            calculated;
        value           uniform 0;
    }
    heatsource1
    {
        type            calculated;
        value           nonuniform List<scalar> 3(1.97724e-07 1.97829e-07 1.98014e-07);
    }
    heatsource2
    {
        type            calculated;
        value           nonuniform List<scalar> 4(4.87381e-08 4.90412e-08 0 0);
    }
    Table_master
    {
        type            calculated;
        value           nonuniform List<scalar> 9(-1.48833e-07 -1.48847e-07 -1.48849e-07 -1.48846e-07 -1.48837e-07 -1.48822e-07 -1.48798e-07 -1.48757e-07 -1.48644e-07);
    }
    Table_slave
    {
        type            calculated;
        value           nonuniform List<scalar> 9(1.48481e-07 1.48447e-07 1.48427e-07 1.48417e-07 1.4841e-07 1.48412e-07 1.48425e-07 1.48448e-07 1.48456e-07);
    }
    inlet
    {
        type            calculated;
        value           uniform -0.000179297;
    }
    outlet
    {
        type            calculated;
        value           nonuniform List<scalar> 2(-0.00350305 0.00136003);
    }
}


// ************************************************************************* //
