// -*- C++ -*-
// File generated by PyFoam - sorry for the ugliness

FoamFile
{
 version 2.0;
 format ascii;
 class volScalarField;
 location "370";
 object T;
}

dimensions [ 0 0 0 1 0 0 0 ];

internalField nonuniform List<scalar> 459
(
  303.726
  303.582
  303.58
  303.581
  303.582
  303.582
  303.582
  303.579
  303.574
  303.567
  303.561
  303.558
  303.556
  303.545
  303.507
  303.494
  303.579
  303.617
  303.638
  303.649
  303.654
  303.656
  303.656
  303.655
  303.654
  303.654
  303.654
  303.653
  303.653
  303.652
  303.652
  303.651
  303.643
  303.598
  303.832
  303.624
  303.619
  303.626
  303.63
  303.632
  303.63
  303.621
  303.606
  303.588
  303.574
  303.568
  303.569
  303.57
  303.561
  303.569
  303.576
  303.59
  303.615
  303.641
  303.657
  303.671
  303.683
  303.69
  303.697
  303.704
  303.71
  303.717
  303.724
  303.73
  303.735
  303.736
  303.732
  303.72
  303.697
  303.71
  303.938
  303.66
  303.649
  303.661
  303.672
  303.678
  303.678
  303.664
  303.635
  303.6
  303.574
  303.565
  303.568
  303.575
  303.579
  303.581
  303.583
  303.608
  303.628
  303.643
  303.66
  303.678
  303.693
  303.699
  303.706
  303.714
  303.723
  303.733
  303.742
  303.752
  303.762
  303.768
  303.768
  303.757
  303.737
  303.742
  304.045
  303.697
  303.675
  303.694
  303.716
  303.734
  303.74
  303.718
  303.668
  303.61
  303.571
  303.557
  303.564
  303.576
  303.586
  303.59
  303.592
  303.595
  303.608
  303.625
  303.647
  303.671
  303.695
  303.715
  303.733
  303.75
  303.765
  303.78
  303.795
  303.81
  303.824
  303.839
  303.852
  303.834
  303.808
  303.78
  303.771
  304.152
  303.74
  303.699
  303.719
  303.753
  303.787
  303.803
  303.769
  303.694
  303.613
  303.563
  303.548
  303.558
  303.578
  303.596
  303.606
  303.613
  303.623
  303.638
  303.659
  303.683
  303.71
  303.736
  303.76
  303.782
  303.803
  303.822
  303.839
  303.854
  303.868
  303.88
  303.889
  303.895
  303.883
  303.857
  303.828
  303.8
  303.809
  303.893
  304.104
  304.251
  303.795
  303.732
  303.741
  303.778
  303.832
  303.847
  303.793
  303.698
  303.606
  303.549
  303.536
  303.554
  303.586
  303.615
  303.635
  303.649
  303.667
  303.687
  303.712
  303.739
  303.767
  303.794
  303.818
  303.841
  303.862
  303.88
  303.895
  303.909
  303.921
  303.931
  303.937
  303.937
  303.928
  303.908
  303.891
  303.846
  303.839
  303.939
  304.115
  304.342
  303.883
  303.809
  303.804
  303.831
  303.882
  303.871
  303.788
  303.669
  303.567
  303.516
  303.518
  303.556
  303.606
  303.651
  303.684
  303.709
  303.732
  303.758
  303.785
  303.812
  303.84
  303.866
  303.889
  303.91
  303.926
  303.941
  303.954
  303.965
  303.974
  303.981
  303.984
  303.982
  303.973
  303.957
  303.94
  303.884
  303.87
  303.967
  304.139
  304.472
  304.117
  304.026
  303.982
  303.986
  303.973
  303.879
  303.728
  303.579
  303.484
  303.463
  303.504
  303.577
  303.653
  303.715
  303.759
  303.791
  303.817
  303.845
  303.873
  303.9
  303.925
  303.948
  303.966
  303.98
  303.992
  304.003
  304.013
  304.021
  304.027
  304.031
  304.032
  304.029
  304.021
  304.007
  303.984
  303.928
  303.907
  303.983
  304.183
  304.653
  304.483
  304.363
  304.264
  304.18
  303.989
  303.732
  303.503
  303.368
  303.346
  303.412
  303.526
  303.645
  303.744
  303.815
  303.861
  303.889
  303.913
  303.939
  303.964
  303.988
  304.008
  304.024
  304.037
  304.048
  304.056
  304.063
  304.07
  304.074
  304.078
  304.079
  304.078
  304.074
  304.066
  304.053
  304.031
  303.986
  303.962
  304.017
  304.191
  301.51
  302.043
  302.237
  302.363
  302.529
  302.739
  302.984
  303.238
  303.467
  303.658
  303.799
  303.88
  303.929
  303.96
  303.983
  304.005
  304.026
  304.046
  304.063
  304.077
  304.087
  304.095
  304.101
  304.106
  304.11
  304.112
  304.114
  304.114
  304.112
  304.109
  304.104
  304.097
  304.086
  304.07
  304.047
  304.033
  304.071
  304.165
  301.574
  301.941
  302.155
  302.399
  302.702
  303.007
  303.304
  303.556
  303.728
  303.851
  303.932
  303.981
  304.012
  304.035
  304.054
  304.071
  304.087
  304.1
  304.111
  304.119
  304.126
  304.13
  304.133
  304.135
  304.136
  304.136
  304.135
  304.133
  304.13
  304.125
  304.12
  304.114
  304.106
  304.098
  304.091
  304.091
  304.119
  304.162
  302.289
  302.219
  302.214
  302.554
  302.921
  303.235
  303.442
  303.618
  303.761
  303.868
  303.942
  303.992
  304.028
  304.053
  304.071
  304.086
  304.099
  304.11
  304.119
  304.127
  304.133
  304.137
  304.139
  304.141
  304.141
  304.141
  304.14
  304.137
  304.135
  304.131
  304.127
  304.123
  304.118
  304.115
  304.113
  304.113
  304.115
  304.122
  304.141
  304.169
)
;

boundaryField
{
  floor
  {
    type wallHeatTransfer;
    Tinf uniform 298.85;
    alphaWall uniform 0.24;
    value nonuniform List<scalar> 29
(
  302.937
  302.735
  302.894
  302.908
  302.96
  302.951
  302.927
  302.88
  302.825
  302.771
  302.72
  302.672
  302.626
  302.582
  302.541
  302.5
  302.458
  302.426
  302.464
  302.644
  302.644
  302.865
  302.968
  303.048
  302.937
  302.735
  303.017
  303.088
  303.153
)
;
  }
  ceiling
  {
    type wallHeatTransfer;
    Tinf uniform 298.85;
    alphaWall uniform 0.24;
    value nonuniform List<scalar> 43
(
  301.978
  301.931
  301.941
  302.282
  302.637
  302.936
  303.14
  303.313
  303.452
  303.551
  303.614
  303.654
  303.679
  303.696
  303.71
  303.722
  303.733
  303.743
  303.751
  303.758
  303.763
  303.766
  303.768
  303.77
  303.77
  303.77
  303.769
  303.768
  303.766
  303.764
  303.762
  303.759
  303.756
  303.752
  303.748
  303.747
  303.755
  303.776
  303.805
  303.803
  304.338
  304.22
  301.341
)
;
  }
  sWall
  {
    type wallHeatTransfer;
    Tinf uniform 311.144;
    alphaWall uniform 0.36;
    value uniform 303.44;
  }
  nWall
  {
    type wallHeatTransfer;
    Tinf uniform 299.15;
    alphaWall uniform 0.36;
    value nonuniform List<scalar> 6
(
  303.415
  303.559
  303.693
  303.793
  303.733
  303.669
)
;
  }
  sideWalls
  {
    type empty;
  }
  glass1
  {
    type wallHeatTransfer;
    Tinf uniform 311.144;
    alphaWall uniform 4.3;
    value nonuniform List<scalar> 9
(
  308.923
  308.596
  308.38
  308.211
  308.065
  307.927
  307.815
  307.841
  307.959
)
;
  }
  glass2
  {
    type wallHeatTransfer;
    Tinf uniform 299.15;
    alphaWall uniform 4.3;
    value nonuniform List<scalar> 2
(
  301.801
  301.921
)
;
  }
  sun
  {
    type wallHeatTransfer;
    Tinf uniform 298.85;
    alphaWall uniform 0.24;
    value nonuniform List<scalar> 14
(
  303.17
  303.081
  303.091
  303.111
  303.128
  303.143
  303.157
  303.166
  303.169
  303.165
  303.157
  303.142
  303.118
  303.048
)
;
  }
  heatsource1
  {
    type fixedGradient;
    gradient uniform 0;
  }
  heatsource2
  {
    type fixedGradient;
    gradient uniform 0;
  }
  Table_master
  {
    type zeroGradient;
  }
  Table_slave
  {
    type zeroGradient;
  }
  inlet
  {
    type fixedValue;
    value uniform 300.15;
  }
  outlet
  {
    type zeroGradient;
  }
} 	// ************************************************************************* //

