/*--------------------------------*- C++ -*----------------------------------*\
  =========                 |
  \\      /  F ield         | OpenFOAM: The Open Source CFD Toolbox
   \\    /   O peration     | Website:  https://openfoam.org
    \\  /    A nd           | Version:  6
     \\/     M anipulation  |
\*---------------------------------------------------------------------------*/
FoamFile
{
    version     2.0;
    format      ascii;
    class       surfaceScalarField;
    location    "800";
    object      phi;
}
// * * * * * * * * * * * * * * * * * * * * * * * * * * * * * * * * * * * * * //

dimensions      [1 0 -1 0 0 0 0];

internalField   nonuniform List<scalar> 
852
(
-0.00293166
0.0029878
-0.00396583
0.00103417
-0.00475407
0.000788228
-0.00537361
0.000619541
-0.00579595
0.000422337
-0.00599922
0.00020327
-0.00596195
-3.72833e-05
-0.00566543
-0.000296517
-0.00511839
-0.000547044
-0.00436837
-0.000750024
-0.00349254
-0.000875841
-0.00257801
-0.000914529
-0.00169823
-0.000879785
-0.000872171
-0.000826061
-0.000870765
-0.000661107
0.000663749
-0.000317421
-0.000343689
0.000293928
-0.000611351
0.000763604
-0.000469677
0.00107215
-0.000308549
0.00126188
-0.000189727
0.00136433
-0.000102456
0.00141551
-5.11816e-05
0.00144449
-2.89849e-05
0.00146213
-1.7637e-05
0.00147182
-9.6962e-06
0.0014746
-2.77556e-06
0.00146838
6.21255e-06
0.00144461
2.37738e-05
0.00138055
6.40542e-05
0.00123803
0.00014252
0.00100176
0.000236267
0.000705452
0.000296309
0.000709013
-0.0020902
0.00522918
-0.00309091
0.00203488
-0.0038951
0.00159241
-0.0045003
0.00122474
-0.00491171
0.000833741
-0.00511675
0.000408312
-0.00509061
-6.34319e-05
-0.00481696
-0.000570166
-0.00431499
-0.00104902
-0.00364218
-0.00142284
-0.00287836
-0.00163967
-0.00210411
-0.00168878
-0.00139249
-0.00159141
-0.000835788
-0.00138276
-0.00063408
-0.00107248
-0.000105113
-0.000529021
-0.000105167
0.00039903
0.000272218
0.000826639
-0.0007713
0.00107346
-0.000858174
0.00128023
-0.000676453
0.00143193
-0.000460249
0.0015186
-0.000276399
0.0015314
-0.000115253
0.00153502
-5.48025e-05
0.00153934
-3.33114e-05
0.00154295
-2.12448e-05
0.00154536
-1.21133e-05
0.00154652
-3.9338e-06
0.00154551
7.2256e-06
0.00153868
3.05972e-05
0.00149706
0.000105675
0.0013209
0.000318681
0.00101599
0.000541176
0.000630064
0.00068223
0.00134825
-0.00146243
0.00692279
-0.00232176
0.00289421
-0.00302783
0.00229847
-0.00353885
0.00173576
-0.00389213
0.00118702
-0.0040713
0.000587484
-0.00403291
-0.00010183
-0.00375103
-0.000852054
-0.00326483
-0.00153522
-0.00264717
-0.0020405
-0.00197867
-0.00230818
-0.00132547
-0.00234198
-0.000739894
-0.00217699
-0.000277867
-0.00184479
3.07668e-05
-0.00138111
0.0002451
-0.000743358
0.00013993
0.00148622
-0.00120617
0.00169986
-0.000984938
0.00168205
-0.00084037
0.00168444
-0.000678844
0.00170574
-0.000481543
0.00171155
-0.000282214
0.00159645
0.0015418
0.00150864
0.00148755
0.00147558
0.0014718
0.00147918
0.00150993
0.00161575
0.00133546
0.000598972
0.000993215
0.000883423
0.000554789
0.00112066
0.00191704
-0.00102155
0.00824361
-0.00170083
0.00357348
-0.00215929
0.00275694
-0.00248529
0.00206175
-0.00271126
0.00141298
-0.00280824
0.000684464
-0.00270329
-0.000206791
-0.00237518
-0.00118017
-0.00190095
-0.00200946
-0.00136393
-0.00257753
-0.000832009
-0.0028401
-0.000344303
-0.00282969
8.02729e-05
-0.00260157
0.000435049
-0.00219957
0.00074482
-0.00169089
0.00111919
-0.00111773
0.00186923
-0.000610105
0.00243527
-0.000558902
0.00202648
-0.000797379
0.00190254
-0.000861003
0.00179717
-0.000734997
0.00170846
-0.00059014
0.00166279
-0.000435878
0.00165089
-0.000270312
0.00176183
-0.0001111
0.00183327
-7.15904e-05
0.00189128
-5.81641e-05
0.00193584
-4.47077e-05
0.00195311
-1.74273e-05
0.00192236
3.05936e-05
0.00181929
0.000102918
0.00161196
0.00020718
0.00124656
0.000365245
0.00111952
0.000726009
0.000835834
0.00116711
0.000400148
0.00155634
0.00233558
-0.000716784
0.00931746
-0.00123212
0.00408881
-0.00131687
0.00284168
-0.0013674
0.00211228
-0.00139033
0.00143591
-0.00131426
0.000608387
-0.00105405
-0.000467005
-0.000657367
-0.00157685
-0.000228347
-0.00243848
0.000163884
-0.00296977
0.000488628
-0.00316485
0.000740907
-0.00308197
0.000931336
-0.00279201
0.00108867
-0.00235691
0.00124294
-0.00184516
0.00144724
-0.00132204
0.00172988
-0.000892748
0.00187522
-0.000704247
0.00177804
-0.000700196
0.00160532
-0.00068829
0.00146222
-0.000591891
0.00134716
-0.000475081
0.00127065
-0.000359371
0.00124528
-0.000244942
0.00128917
-0.000154994
0.0013381
-0.000120516
0.00139148
-0.000111552
0.00144574
-9.89611e-05
0.00149028
-6.1968e-05
0.00150587
1.50005e-05
0.00147254
0.000136248
0.0013787
0.000301019
0.00122479
0.000519163
0.00109184
0.000858958
0.000949801
0.00130915
0.000634956
0.00187119
0.000565897
0.00240464
-0.000968405
0.0015341
-0.00143231
0.000463706
-0.00138549
-0.000626397
0.0103497
-0.000980617
0.00444303
-0.000554305
0.00241536
-0.000190828
0.0017488
8.71735e-05
0.00115791
0.000456236
0.000239322
0.000938214
-0.000948985
0.00135925
-0.00199789
0.00165358
-0.00273282
0.00181142
-0.00312761
0.00185799
-0.00321143
0.00182222
-0.00304622
0.00173295
-0.00270273
0.00162613
-0.00225009
0.00153496
-0.00175399
0.00148638
-0.00127347
0.00147512
-0.000881495
0.00142022
-0.000649342
0.00127578
-0.00055576
0.001086
-0.000498511
0.000920862
-0.000426754
0.000797088
-0.000351306
0.000720121
-0.000282405
0.000696642
-0.000221463
0.00072224
-0.000180591
0.00077252
-0.000170795
0.000837055
-0.000176086
0.000911327
-0.000173233
0.000989796
-0.000140436
0.0010604
-5.56041e-05
0.00110594
9.07079e-05
0.00112304
0.000283918
0.00111957
0.000522635
0.00114332
0.000835211
0.00124196
0.00121051
0.00142837
0.00168478
0.00186958
0.00196343
0.00212765
0.00127603
0.00173655
0.000854797
0.000407477
-0.000683134
0.0114827
-0.000565101
0.00432499
0.000564337
0.00128592
0.00134802
0.000965119
0.00200685
0.000499071
0.00268896
-0.000442793
0.00324396
-0.00150398
0.00354851
-0.00230245
0.00360171
-0.00278602
0.0034464
-0.00297232
0.0031424
-0.00290744
0.00275052
-0.00265434
0.00232401
-0.00227623
0.00190968
-0.00183577
0.0015435
-0.00138781
0.00124323
-0.000973198
0.00100804
-0.000646303
0.000804618
-0.000445926
0.000601011
-0.000352155
0.000409095
-0.000306596
0.000254334
-0.000271993
0.000146058
-0.00024303
8.44794e-05
-0.000220827
6.89067e-05
-0.00020589
9.1712e-05
-0.000203396
0.000137743
-0.000216826
0.000197874
-0.000236215
0.000271273
-0.000246631
0.000362126
-0.000231288
0.000475239
-0.000168716
0.000597679
-3.17303e-05
0.00071969
0.000161908
0.000853139
0.000389187
0.00103607
0.000652286
0.00131693
0.000929643
0.00175647
0.00124524
0.00242149
0.00129841
0.00296021
0.000737304
0.00298453
0.000830475
0.00345326
0.00258511
0.0094009
0.00328487
0.00362522
0.00367709
0.000893702
0.00433512
0.000307088
0.00512281
-0.00028862
0.00576554
-0.00108553
0.00601288
-0.00175132
0.00588287
-0.00217245
0.00544764
-0.0023508
0.00479691
-0.00232159
0.00402465
-0.00213519
0.00321525
-0.00184493
0.00243142
-0.00149241
0.00172238
-0.00112673
0.00112154
-0.000786977
0.000637478
-0.000489136
0.000275665
-0.000284491
1.08061e-05
-0.000181066
-0.000191944
-0.000149405
-0.000348958
-0.000149581
-0.000465566
-0.000155384
-0.000545269
-0.000163327
-0.000592581
-0.000173514
-0.000611775
-0.000186695
-0.00061
-0.000205169
-0.000597276
-0.000229549
-0.000579189
-0.000254301
-0.000554665
-0.000271153
-0.000515296
-0.000270655
-0.000442322
-0.000241688
-0.000307112
-0.000166939
-0.000127705
-1.74974e-05
8.22781e-05
0.000179205
0.000349098
0.000385467
0.000685401
0.000593341
0.00113309
0.000797553
0.00163152
0.000799982
0.00184909
0.000519739
0.00110576
0.0015738
0.00480744
0.00995277
0.0135698
0.0124354
0.00202805
0.0117223
0.00102017
0.0110765
0.000357209
0.0102217
-0.000230732
0.00910076
-0.000630396
0.00781565
-0.000887351
0.00645984
-0.000995
0.00510614
-0.000967903
0.00382068
-0.000849742
0.00265689
-0.000681144
0.00163745
-0.000472964
0.000785943
-0.00027522
0.00011135
-0.000112383
-0.000371462
-6.32226e-06
-0.000675809
1.98576e-05
-0.000865574
8.69916e-06
-0.000998643
-1.63353e-05
-0.00110364
-4.45799e-05
-0.00118799
-7.10389e-05
-0.00125541
-9.59078e-05
-0.00131
-0.00011892
-0.00135631
-0.000140385
-0.00140107
-0.000160407
-0.00145237
-0.000178247
-0.00151766
-0.000189009
-0.00160405
-0.000184759
-0.00172016
-0.000154549
-0.00187627
-8.55706e-05
-0.00207772
3.45085e-05
-0.0023108
0.000215581
-0.00260325
0.000471661
-0.0030374
0.000819616
-0.00370307
0.00125901
-0.00466814
0.00176262
-0.00605004
0.00218189
-0.00773377
0.00220347
-0.00727614
0.00111618
-0.00219394
0.00468373
0.00351775
0.0038342
0.00186967
0.00424569
-5.43182e-05
0.004262
-0.000247065
0.00386716
-0.000235559
0.0032447
-0.000264892
0.00249861
-0.000248909
0.00169676
-0.000166054
0.000883795
-3.67727e-05
0.000106272
9.63842e-05
-0.000552088
0.0001854
-0.00102984
0.000202533
-0.00133907
0.000196852
-0.00151856
0.000173165
-0.00162885
0.000130154
-0.00170652
8.63626e-05
-0.00177054
4.76901e-05
-0.00183144
1.63206e-05
-0.00189351
-8.96933e-06
-0.00195807
-3.13468e-05
-0.00202598
-5.10101e-05
-0.00209913
-6.72261e-05
-0.00218092
-7.86142e-05
-0.00227347
-8.56989e-05
-0.00237784
-8.46361e-05
-0.00249306
-6.95357e-05
-0.00261529
-3.23249e-05
-0.00273683
3.59775e-05
-0.00284563
0.000143306
-0.00293864
0.000308589
-0.0030236
0.000556627
-0.00310591
0.000901924
-0.00318134
0.00133444
-0.00320588
0.00178716
-0.0031298
0.00210581
-0.00277821
0.00185188
-0.00151518
-0.000146857
-0.00363733
-0.000538193
0.00412034
0.000304384
0.00102707
-4.80706e-05
0.000298124
-0.000390013
9.48755e-05
-0.000695474
6.9905e-05
-0.00104359
8.32308e-05
-0.00141047
0.000117976
-0.00174185
0.000165329
-0.00198897
0.000210354
-0.00213645
0.000243861
-0.00220745
0.000256407
-0.00224091
0.000236
-0.00224642
0.000202358
-0.00223952
0.000166266
-0.00223996
0.000130595
-0.0022534
9.98093e-05
-0.00228
7.42903e-05
-0.00231717
5.34896e-05
-0.00236315
3.70169e-05
-0.0024184
2.38967e-05
-0.00248146
1.20546e-05
-0.00254982
1.14104e-06
-0.00262063
-7.80422e-06
-0.00269191
-1.44203e-05
-0.00275947
-1.70718e-05
-0.0028163
-1.27066e-05
-0.00285151
2.88455e-06
-0.00285528
3.97512e-05
-0.00281787
0.000105901
-0.00271793
0.000208647
-0.00252447
0.000363165
-0.00221061
0.00058807
-0.00175652
0.000880352
-0.0011338
0.00116444
-0.000172338
0.00114435
0.00113542
0.000544128
0.00158867
-0.000600108
-0.00197005
-0.00721119
-0.0101045
-0.00594142
-0.00489439
-0.00458506
-0.00448325
-0.00440908
-0.00432359
-0.004205
-0.00404046
-0.00383213
-0.00359148
-0.00333942
-0.00310884
-0.00291283
-0.00275365
-0.00263072
-0.00253902
-0.00247317
-0.00242839
-0.00240027
-0.00238542
-0.00238251
-0.00239056
-0.00240753
-0.00243106
-0.00245713
-0.00247868
-0.00248444
-0.00245309
-0.00235532
-0.00215451
-0.0017989
-0.00121809
-0.000344742
0.000812921
0.00195047
0.00248756
0.00188001
)
;

boundaryField
{
    floor
    {
        type            calculated;
        value           nonuniform List<scalar> 
29
(
0
0
0
0
0
0
0
0
0
0
0
0
0
0
0
0
0
0
0
0
-3.56116e-06
-9.17563e-06
-1.40055e-05
-1.83866e-05
-1.40885e-06
-2.64385e-06
-7.50081e-06
-7.83738e-06
-7.14595e-06
)
;
    }
    ceiling
    {
        type            calculated;
        value           nonuniform List<scalar> 
43
(
-4.53712e-05
-4.40527e-05
-4.27418e-05
-1.99561e-05
-1.1202e-05
-6.92502e-06
-4.26554e-06
-2.25068e-06
-6.11293e-07
7.85114e-07
2.03537e-06
3.20938e-06
4.35136e-06
5.42293e-06
6.3476e-06
7.09025e-06
7.66548e-06
8.10718e-06
8.44694e-06
8.70771e-06
8.90515e-06
9.04953e-06
9.14481e-06
9.18775e-06
9.17347e-06
9.11082e-06
9.00114e-06
8.84539e-06
8.64442e-06
8.39927e-06
8.12895e-06
7.84393e-06
7.55254e-06
7.26563e-06
7.00293e-06
6.77809e-06
6.80111e-06
7.03947e-06
7.44164e-06
8.68333e-06
1.12875e-05
8.21147e-06
-6.44137e-05
)
;
    }
    sWall
    {
        type            calculated;
        value           uniform -0.000274986;
    }
    nWall
    {
        type            calculated;
        value           nonuniform List<scalar> 6(-4.70298e-05 -5.64111e-05 -6.12523e-05 -7.17851e-05 -7.86153e-05 -9.87175e-05);
    }
    sideWalls
    {
        type            empty;
        value           nonuniform 0();
    }
    glass1
    {
        type            calculated;
        value           nonuniform List<scalar> 9(-5.61514e-05 -0.00015118 -0.000231182 -0.000299273 -0.000357066 -0.000405797 -0.000449891 -0.000503344 -0.000563159);
    }
    glass2
    {
        type            calculated;
        value           nonuniform List<scalar> 2(-0.000248416 -0.000274764);
    }
    sun
    {
        type            calculated;
        value           uniform 0;
    }
    heatsource1
    {
        type            calculated;
        value           nonuniform List<scalar> 3(2.03922e-07 2.03884e-07 2.03901e-07);
    }
    heatsource2
    {
        type            calculated;
        value           nonuniform List<scalar> 4(5.10814e-08 5.12058e-08 0 0);
    }
    Table_master
    {
        type            calculated;
        value           nonuniform List<scalar> 9(-1.52942e-07 -1.53021e-07 -1.5305e-07 -1.53069e-07 -1.53082e-07 -1.53091e-07 -1.53094e-07 -1.53087e-07 -1.53054e-07);
    }
    Table_slave
    {
        type            calculated;
        value           nonuniform List<scalar> 9(1.52822e-07 1.52847e-07 1.52831e-07 1.52818e-07 1.52814e-07 1.52818e-07 1.52834e-07 1.52876e-07 1.52956e-07);
    }
    inlet
    {
        type            calculated;
        value           uniform -0.00617345;
    }
    outlet
    {
        type            calculated;
        value           nonuniform List<scalar> 2(0.00753155 0.00293737);
    }
}


// ************************************************************************* //
