/*--------------------------------*- C++ -*----------------------------------*\
  =========                 |
  \\      /  F ield         | OpenFOAM: The Open Source CFD Toolbox
   \\    /   O peration     | Website:  https://openfoam.org
    \\  /    A nd           | Version:  6
     \\/     M anipulation  |
\*---------------------------------------------------------------------------*/
FoamFile
{
    version     2.0;
    format      ascii;
    class       surfaceScalarField;
    location    "520";
    object      phi;
}
// * * * * * * * * * * * * * * * * * * * * * * * * * * * * * * * * * * * * * //

dimensions      [1 0 -1 0 0 0 0];

internalField   nonuniform List<scalar> 
852
(
-0.00249903
0.00254197
-0.00334337
0.00084433
-0.00401372
0.000670353
-0.00455491
0.000541185
-0.00493532
0.000380398
-0.00513114
0.000195821
-0.00511835
-1.27961e-05
-0.0048729
-0.000245449
-0.00439274
-0.00048017
-0.00371377
-0.000678975
-0.00290282
-0.000810946
-0.00204155
-0.000861275
-0.00121643
-0.000825127
-0.00052167
-0.000694763
-0.000525104
0.000146698
-0.000151628
0.000399679
-0.000252985
0.000777631
-0.000377956
0.00110697
-0.000329343
0.00135783
-0.000250861
0.00153211
-0.00017429
0.00162143
-8.9317e-05
0.00165272
-3.13015e-05
0.00166143
-8.71517e-06
0.00166014
1.29138e-06
0.00165099
9.14488e-06
0.00163313
1.78504e-05
0.00160129
3.18418e-05
0.00154068
6.06023e-05
0.00141649
0.000124179
0.00116848
0.000248006
0.000742077
0.000426403
3.15107e-05
0.000710561
2.48073e-05
-0.00181314
0.00447142
-0.00266225
0.00169343
-0.00336664
0.00137474
-0.00390673
0.00108127
-0.00428466
0.00075833
-0.00448708
0.000398231
-0.0044885
-1.1381e-05
-0.00426658
-0.000467371
-0.00382774
-0.000919011
-0.00321954
-0.00128718
-0.00251658
-0.00151391
-0.00180381
-0.00157405
-0.00116265
-0.00146629
-0.000652405
-0.00120501
-0.000358947
-0.000818565
-1.30448e-05
-0.000345956
-1.30992e-05
-3.47986e-05
-0.00012896
0.000663154
-0.000950941
0.00101624
-0.000731043
0.00127208
-0.000585193
0.00146918
-0.000447965
0.001603
-0.000308111
0.00163329
-0.00011962
0.0016415
-3.95146e-05
0.00164929
-1.65107e-05
0.0016555
-4.92331e-06
0.00165932
5.32078e-06
0.00166068
1.64873e-05
0.00165848
3.4037e-05
0.00164785
7.12284e-05
0.00159351
0.000178511
0.00138236
0.00045915
0.00101825
0.000790509
0.000634078
0.00109473
0.000640643
-0.00130024
0.00595026
-0.00205144
0.00244463
-0.00269206
0.00201535
-0.00316671
0.00155592
-0.0035082
0.00109981
-0.00370167
0.000591697
-0.00370852
-4.52917e-06
-0.00348954
-0.000686356
-0.00306518
-0.00134337
-0.0025018
-0.00185056
-0.00187781
-0.00213791
-0.00126565
-0.00218621
-0.000722403
-0.00200954
-0.000293574
-0.00163384
6.57955e-06
-0.00111872
0.000168965
-0.000508345
0.000155861
0.000957198
-0.00110363
0.00105323
-0.00104698
0.00127351
-0.000951327
0.00143364
-0.000745323
0.0015476
-0.000561929
0.00166768
-0.000428201
0.00154821
0.00150884
0.00149248
0.0014877
0.00149316
0.0015098
0.00154398
0.00161536
0.00179401
0.00158972
0.000663443
0.00133907
0.00104115
0.000961474
0.00147233
0.00157326
-0.000936652
0.00711896
-0.0015503
0.00305827
-0.00199796
0.00246301
-0.00233342
0.00189136
-0.00258715
0.00135355
-0.00273772
0.00074226
-0.0027236
-1.86539e-05
-0.00247701
-0.000932957
-0.00205747
-0.00176292
-0.00155238
-0.00235564
-0.00103158
-0.00265871
-0.000544071
-0.00267372
-0.000114693
-0.00243892
0.000253829
-0.00200237
0.000582972
-0.00144787
0.000946599
-0.000871977
0.00155352
-0.000451065
0.00208191
-0.000545636
0.00188832
-0.000910045
0.00172123
-0.000879893
0.00157017
-0.000800267
0.00149335
-0.000668504
0.00145921
-0.000527798
0.00140699
-0.000375983
0.00158915
-0.000182323
0.00171432
-0.000125325
0.00182617
-0.000112007
0.00193132
-0.0001053
0.00202278
-9.16164e-05
0.00208426
-6.16406e-05
0.00208513
-1.02157e-06
0.00198009
0.000104882
0.00169898
0.000280949
0.00168705
0.000675372
0.00158502
0.00114317
0.00138382
0.00167352
0.00291957
-0.00067652
0.00807331
-0.00115573
0.00353747
-0.00129438
0.00260166
-0.00142002
0.002017
-0.00152527
0.0014588
-0.00157702
0.000794005
-0.00148667
-0.000109012
-0.00118085
-0.00123878
-0.000790009
-0.00215376
-0.000393113
-0.00275254
-3.10398e-05
-0.00302079
0.000276468
-0.00298122
0.000528754
-0.00269121
0.000754416
-0.00222803
0.000985742
-0.0016792
0.00126237
-0.00114861
0.00158076
-0.00076946
0.00174107
-0.000705952
0.00157879
-0.000747763
0.00142536
-0.000726473
0.00128428
-0.000659187
0.00118275
-0.000566982
0.00112163
-0.000466684
0.00110649
-0.000360842
0.00118546
-0.0002613
0.00127708
-0.000216952
0.00137262
-0.000207555
0.00147111
-0.000203796
0.00156751
-0.000188022
0.00165209
-0.000146226
0.00171046
-5.93998e-05
0.00172535
8.99881e-05
0.00169679
0.0003095
0.00173757
0.000634584
0.00188717
0.000993568
0.00238842
0.00117226
0.00366368
0.0016443
0.00244704
0.00121644
0.00149186
0.000954969
0.00153198
-0.000597214
0.00898738
-0.000934472
0.00387473
-0.00063651
0.00230369
-0.000462637
0.00184312
-0.00036518
0.00136133
-0.00023421
0.000663029
4.2294e-05
-0.000385522
0.000386224
-0.00158271
0.000684924
-0.00245246
0.000903204
-0.00297082
0.00103797
-0.00315555
0.0011077
-0.00305096
0.00113824
-0.00272175
0.00115563
-0.00224542
0.00118563
-0.0017092
0.00124547
-0.00120846
0.00131432
-0.000838322
0.00127844
-0.000670072
0.00113897
-0.000608298
0.000979595
-0.000567103
0.000835718
-0.000515316
0.000726372
-0.000457641
0.000660412
-0.000400728
0.000646375
-0.000346811
0.000689339
-0.00030427
0.000762892
-0.000290511
0.000850424
-0.000295093
0.000945417
-0.000298795
0.00104466
-0.000287275
0.00114681
-0.000248379
0.00125263
-0.000165223
0.00135399
-1.13835e-05
0.00144617
0.000217318
0.00158023
0.000500516
0.00178643
0.000787363
0.00200411
0.000954566
0.00230227
0.00134614
0.00201992
0.00149878
0.00123255
0.00174233
0.00280714
-0.000706622
0.0100457
-0.000626551
0.00379465
0.000219979
0.00145716
0.000680509
0.00138258
0.000985269
0.00105657
0.00138344
0.00026485
0.00184422
-0.000846305
0.00213437
-0.00187286
0.0022569
-0.002575
0.00222813
-0.00294203
0.00208438
-0.0030118
0.00186988
-0.00283646
0.0016274
-0.00247927
0.00139115
-0.00200918
0.00118566
-0.00150371
0.0010237
-0.00104651
0.000893464
-0.000708092
0.000747077
-0.000523691
0.000581767
-0.000442992
0.000417826
-0.000403168
0.000277088
-0.000374583
0.000171408
-0.000351967
0.000106919
-0.000336245
8.7802e-05
-0.0003277
0.000112107
-0.000328582
0.000164361
-0.000342772
0.000230923
-0.000361661
0.000305311
-0.00037319
0.000386035
-0.000368006
0.000476902
-0.000339254
0.000589552
-0.00027788
0.000740795
-0.000162634
0.000916952
4.1154e-05
0.00110884
0.000308623
0.00132251
0.000573685
0.00148974
0.000787325
0.00170467
0.00113121
0.00181189
0.00139155
0.00153247
0.00202175
0.00438434
0.00202015
0.0084184
0.00257565
0.00323915
0.00263442
0.00139838
0.00287085
0.00114615
0.00320741
0.000720001
0.00369154
-0.000219288
0.00403926
-0.00119402
0.00407956
-0.00191317
0.00385397
-0.0023494
0.00344323
-0.00253129
0.00292564
-0.00249421
0.00236895
-0.00227976
0.00182805
-0.00193837
0.0013385
-0.00151964
0.000921092
-0.00108631
0.000588257
-0.000713678
0.000331912
-0.000451753
0.000125003
-0.000316788
-5.38516e-05
-0.000264143
-0.000207299
-0.000249727
-0.000331259
-0.000250628
-0.000424781
-0.000258452
-0.000487744
-0.000273288
-0.000520724
-0.000294727
-0.000527065
-0.000322248
-0.000515562
-0.000354282
-0.000493487
-0.000383743
-0.000465208
-0.000401475
-0.000433675
-0.000399547
-0.00039865
-0.000374286
-0.000347814
-0.000328723
-0.000247624
-0.000262831
-6.16144e-05
-0.000144863
0.000173574
7.34273e-05
0.000407752
0.0003395
0.00059097
0.0006041
0.000806064
0.000916106
0.00100235
0.00119526
0.00058565
0.00243844
0.00515911
0.00882099
0.0120303
0.0103409
0.00308778
0.009262
0.0022251
0.00852763
0.00145436
0.00786405
0.000444293
0.00704035
-0.000370317
0.00609047
-0.000963277
0.00509422
-0.00135314
0.00410198
-0.00153903
0.00314839
-0.00154063
0.0022667
-0.00139807
0.00149159
-0.00116327
0.000838674
-0.00086674
0.000311639
-0.000559286
-7.85216e-05
-0.000323526
-0.000349507
-0.000180774
-0.000541493
-0.000124809
-0.000690276
-0.000115366
-0.000811807
-0.000128202
-0.000913155
-0.000149287
-0.000999672
-0.000171941
-0.00107373
-0.000199234
-0.00113749
-0.000230978
-0.00119338
-0.000266366
-0.00124449
-0.000303183
-0.00129261
-0.000335622
-0.00133981
-0.000354289
-0.00139301
-0.000346355
-0.00146931
-0.000297992
-0.00159072
-0.000207318
-0.00177069
-8.28662e-05
-0.00201021
9.46468e-05
-0.00230113
0.000364345
-0.00270595
0.000744315
-0.0033668
0.00126494
-0.00442125
0.00197056
-0.00594509
0.00271908
-0.00626382
0.00275717
-0.00090117
0.00384078
0.00348011
0.00371873
0.00234717
0.00442772
0.000745397
0.00466587
0.000206168
0.00449015
-0.000194575
0.00405292
-0.00052603
0.0034275
-0.000727707
0.00268174
-0.000793271
0.00188305
-0.000741944
0.00109885
-0.000613875
0.000397052
-0.000461483
-0.000176418
-0.000293282
-0.000588902
-0.000146811
-0.000848875
-6.35618e-05
-0.00101243
-1.72309e-05
-0.0011284
-8.84562e-06
-0.0012219
-2.1867e-05
-0.00130556
-4.45535e-05
-0.00138627
-6.85798e-05
-0.00147086
-8.73587e-05
-0.00156195
-0.000108153
-0.00166266
-0.000130278
-0.00177563
-0.000153399
-0.00190192
-0.000176898
-0.00203932
-0.000198228
-0.00218213
-0.000211492
-0.00232355
-0.000204942
-0.00246369
-0.000157862
-0.00260713
-6.38851e-05
-0.00275608
6.6082e-05
-0.00289935
0.000237908
-0.00302204
0.000487035
-0.0031233
0.000845565
-0.00319098
0.00133261
-0.00317925
0.00195881
-0.00296773
0.00250756
-0.00130809
0.00109752
-0.0021653
0.000531592
0.0029351
0.00194797
0.000930814
0.00234733
0.000346056
0.00238779
0.000165722
0.00218236
1.08691e-05
0.0018119
-0.000155577
0.00130782
-0.000223633
0.000733096
-0.000218558
0.00016884
-0.000177704
-0.000331386
-0.000113667
-0.000749446
-4.34367e-05
-0.00105579
1.30467e-05
-0.0012499
4.72895e-05
-0.00137231
5.88467e-05
-0.00144566
5.61087e-05
-0.0014991
4.45912e-05
-0.00155043
2.9448e-05
-0.00160852
1.35342e-05
-0.00167485
-2.25444e-06
-0.00174548
-1.67435e-05
-0.00182418
-2.94581e-05
-0.00191423
-4.02363e-05
-0.00202004
-4.75958e-05
-0.00214715
-4.97904e-05
-0.00230017
-4.52139e-05
-0.00247903
-3.26451e-05
-0.00267246
-1.15177e-05
-0.00285089
2.05647e-05
-0.0029804
6.56167e-05
-0.00304767
0.000133341
-0.00304322
0.000233458
-0.00292778
0.000371589
-0.00264998
0.000567756
-0.00214345
0.000826077
-0.00121419
0.00102955
0.000342094
0.00095127
0.00141758
2.2026e-05
-0.00070336
-0.00357368
-0.00490944
-0.00199767
-0.00109976
-0.000792814
-0.000669554
-0.000703791
-0.000905894
-0.00117702
-0.00144377
-0.00167035
-0.00183382
-0.00192829
-0.00196762
-0.0019738
-0.00196926
-0.00196802
-0.00197863
-0.00200464
-0.0020468
-0.00210495
-0.00217772
-0.00226329
-0.0023597
-0.00246354
-0.00256976
-0.00267181
-0.00276204
-0.00283234
-0.00287205
-0.00286842
-0.00279892
-0.00263113
-0.00232688
-0.00182785
-0.00107153
-0.000112579
0.000767168
0.000719379
)
;

boundaryField
{
    floor
    {
        type            calculated;
        value           nonuniform List<scalar> 
29
(
0
0
0
0
0
0
0
0
0
0
0
0
0
0
0
0
0
0
0
0
6.69929e-06
1.82372e-05
2.88478e-05
3.75048e-05
3.43091e-06
4.92723e-06
1.21268e-05
1.74683e-05
1.72386e-05
)
;
    }
    ceiling
    {
        type            calculated;
        value           nonuniform List<scalar> 
43
(
2.82959e-05
2.50413e-05
2.33388e-05
3.28943e-05
3.91029e-05
4.24415e-05
4.50802e-05
4.65007e-05
4.74706e-05
4.81711e-05
4.88615e-05
4.97858e-05
5.10303e-05
5.23586e-05
5.34635e-05
5.43057e-05
5.48523e-05
5.51994e-05
5.54533e-05
5.56821e-05
5.58901e-05
5.60164e-05
5.61056e-05
5.61653e-05
5.62407e-05
5.64196e-05
5.68254e-05
5.7587e-05
5.87709e-05
6.02658e-05
6.1983e-05
6.38316e-05
6.56611e-05
6.73391e-05
6.87197e-05
6.9747e-05
7.05945e-05
7.1517e-05
6.98087e-05
7.20613e-05
3.63636e-05
2.9781e-05
1.34273e-05
)
;
    }
    sWall
    {
        type            calculated;
        value           uniform -0.000220534;
    }
    nWall
    {
        type            calculated;
        value           nonuniform List<scalar> 6(-4.03256e-05 -4.26126e-05 -4.47391e-05 -4.39725e-05 -4.43613e-05 -5.60492e-05);
    }
    sideWalls
    {
        type            empty;
        value           nonuniform 0();
    }
    glass1
    {
        type            calculated;
        value           nonuniform List<scalar> 9(-4.29455e-05 -0.000116306 -0.000178604 -0.000232047 -0.000277831 -0.000316865 -0.000351651 -0.000392908 -0.00043895);
    }
    glass2
    {
        type            calculated;
        value           nonuniform List<scalar> 2(-0.00018912 -0.000203548);
    }
    sun
    {
        type            calculated;
        value           uniform 0;
    }
    heatsource1
    {
        type            calculated;
        value           nonuniform List<scalar> 3(2.00242e-07 2.00772e-07 2.01176e-07);
    }
    heatsource2
    {
        type            calculated;
        value           nonuniform List<scalar> 4(5.03889e-08 5.04844e-08 0 0);
    }
    Table_master
    {
        type            calculated;
        value           nonuniform List<scalar> 9(-1.5075e-07 -1.50842e-07 -1.50867e-07 -1.50882e-07 -1.5089e-07 -1.50891e-07 -1.50886e-07 -1.50869e-07 -1.50818e-07);
    }
    Table_slave
    {
        type            calculated;
        value           nonuniform List<scalar> 9(1.50679e-07 1.50693e-07 1.50658e-07 1.50623e-07 1.50592e-07 1.50572e-07 1.50574e-07 1.5058e-07 1.50625e-07);
    }
    inlet
    {
        type            calculated;
        value           uniform -0.0042331;
    }
    outlet
    {
        type            calculated;
        value           nonuniform List<scalar> 2(0.00376592 0.00131072);
    }
}


// ************************************************************************* //
