// -*- C++ -*-
// File generated by PyFoam - sorry for the ugliness

FoamFile
{
 version 2.0;
 format ascii;
 class volVectorField;
 location "600";
 object U;
}

dimensions [ 0 1 -1 0 0 0 0 ];

internalField nonuniform List<vector> 459
(
  (0.0329459 0.0854402 0)
  (-0.166079 0.0256783 0)
  (-0.190673 0.0178567 0)
  (-0.221287 0.0123432 0)
  (-0.243625 0.00631971 0)
  (-0.256853 6.77955e-06 0)
  (-0.259649 -0.00665124 0)
  (-0.250798 -0.0136587 0)
  (-0.230964 -0.0205491 0)
  (-0.201585 -0.0262745 0)
  (-0.165638 -0.0299944 0)
  (-0.126531 -0.0314434 0)
  (-0.0875084 -0.0311495 0)
  (-0.0533255 -0.0307666 0)
  (-0.0376564 -0.032031 0)
  (-0.00267796 0.00739808 0)
  (-0.0222574 -0.0175061 0)
  (0.00149294 -0.0262275 0)
  (0.0223604 -0.0194489 0)
  (0.0380775 -0.0130672 0)
  (0.0496885 -0.00834572 0)
  (0.0565462 -0.00500714 0)
  (0.0599707 -0.00326406 0)
  (0.0615344 -0.00250993 0)
  (0.0623597 -0.0021448 0)
  (0.0628834 -0.00190833 0)
  (0.0631604 -0.00171475 0)
  (0.0631244 -0.00147595 0)
  (0.062565 -0.00101893 0)
  (0.0609109 4.01474e-05 0)
  (0.056954 0.00224568 0)
  (0.0493654 0.00465135 0)
  (0.041444 0.00676095 0)
  (-0.0102225 0.0204069 0)
  (0.205196 0.174544 0)
  (-0.154237 0.0671623 0)
  (-0.152577 0.0521646 0)
  (-0.18382 0.0406896 0)
  (-0.205623 0.0278545 0)
  (-0.21881 0.013659 0)
  (-0.222043 -0.00215403 0)
  (-0.213907 -0.0191485 0)
  (-0.195588 -0.0352188 0)
  (-0.168901 -0.0478684 0)
  (-0.137045 -0.0553134 0)
  (-0.10343 -0.0570899 0)
  (-0.0712772 -0.0538774 0)
  (-0.044338 -0.0472603 0)
  (-0.0272233 -0.0383986 0)
  (-0.0136488 -0.0188294 0)
  (-0.0071919 0.0132556 0)
  (0.0597711 0.0312816 0)
  (0.0316088 -0.0199413 0)
  (0.0386616 -0.0306149 0)
  (0.0494356 -0.0259267 0)
  (0.0578755 -0.0178327 0)
  (0.063451 -0.0104439 0)
  (0.0656446 -0.00430953 0)
  (0.0659548 -0.000914571 0)
  (0.0658665 0.000538527 0)
  (0.0659472 0.00121485 0)
  (0.0661098 0.00164164 0)
  (0.0662258 0.00201357 0)
  (0.0662534 0.00250006 0)
  (0.0661383 0.00344005 0)
  (0.0653467 0.00574256 0)
  (0.0614525 0.0120831 0)
  (0.0516667 0.0175126 0)
  (0.0452071 0.0214317 0)
  (-0.0435387 0.0440628 0)
  (0.363017 0.260791 0)
  (-0.169916 0.106471 0)
  (-0.11395 0.0839186 0)
  (-0.143721 0.0635223 0)
  (-0.162669 0.0424746 0)
  (-0.174475 0.0195204 0)
  (-0.176977 -0.00611346 0)
  (-0.16794 -0.0332496 0)
  (-0.14961 -0.0581349 0)
  (-0.124559 -0.0767274 0)
  (-0.0962749 -0.086633 0)
  (-0.0677165 -0.0877434 0)
  (-0.0411745 -0.0812115 0)
  (-0.0188607 -0.0686 0)
  (-0.00259654 -0.0509223 0)
  (0.00984308 -0.0252859 0)
  (0.0165565 0.00910894 0)
  (0.105441 -0.0393124 0)
  (0.072992 -0.0432526 0)
  (0.0691005 -0.0395046 0)
  (0.0712938 -0.03164 0)
  (0.0728449 -0.0224742 0)
  (0.0736717 -0.0147906 0)
  (0.0719403 -0.0120485 0)
  (0.0679308 -0.00862442 0)
  (0.065163 -0.00676876 0)
  (0.0639073 -0.0057116 0)
  (0.0633543 -0.00504179 0)
  (0.063083 -0.0045742 0)
  (0.0631285 -0.004118 0)
  (0.0639647 -0.00330971 0)
  (0.0668068 -0.000171968 0)
  (0.0647743 0.0170713 0)
  (0.0515148 0.0293335 0)
  (0.0507915 0.0380874 0)
  (-0.0728704 0.0692078 0)
  (0.505016 0.32995 0)
  (-0.203242 0.141107 0)
  (-0.0737285 0.11046 0)
  (-0.101231 0.0823994 0)
  (-0.114332 0.0554131 0)
  (-0.122159 0.0254069 0)
  (-0.120963 -0.00970075 0)
  (-0.108598 -0.0473488 0)
  (-0.0894511 -0.0802638 0)
  (-0.0667869 -0.103233 0)
  (-0.0438373 -0.114054 0)
  (-0.0223781 -0.113755 0)
  (-0.00318578 -0.104119 0)
  (0.0131732 -0.0869043 0)
  (0.026581 -0.0649777 0)
  (0.040928 -0.0389753 0)
  (0.0630433 -0.0123411 0)
  (0.0936288 -9.51724e-05 0)
  (0.101308 -0.0330749 0)
  (0.0877727 -0.0383729 0)
  (0.0792073 -0.0341592 0)
  (0.0750313 -0.0278598 0)
  (0.0723048 -0.0204475 0)
  (0.0710092 -0.0118639 0)
  (0.0727494 -0.00695795 0)
  (0.0768612 -0.00548831 0)
  (0.0802535 -0.00466443 0)
  (0.0825399 -0.00402373 0)
  (0.0839202 -0.00319859 0)
  (0.0838331 -0.00193515 0)
  (0.0812346 -1.79745e-05 0)
  (0.0748914 0.00283942 0)
  (0.0620101 0.00716988 0)
  (0.051104 0.0274578 0)
  (0.0405016 0.0443136 0)
  (0.053652 0.0579544 0)
  (-0.103061 0.0920958 0)
  (0.62698 0.38342 0)
  (-0.243984 0.169309 0)
  (-0.0346912 0.125104 0)
  (-0.0571397 0.0925604 0)
  (-0.0618659 0.0622558 0)
  (-0.0625691 0.0273428 0)
  (-0.0515803 -0.0164129 0)
  (-0.0336444 -0.0633036 0)
  (-0.0147073 -0.100778 0)
  (0.00300099 -0.124509 0)
  (0.0174631 -0.133167 0)
  (0.028815 -0.129853 0)
  (0.0375643 -0.11758 0)
  (0.0444289 -0.0988788 0)
  (0.0505498 -0.0764062 0)
  (0.057905 -0.0528074 0)
  (0.0690922 -0.033536 0)
  (0.0795733 -0.0289378 0)
  (0.0811584 -0.0347719 0)
  (0.0746154 -0.0335617 0)
  (0.066595 -0.0286027 0)
  (0.0604719 -0.0230227 0)
  (0.0561619 -0.0172684 0)
  (0.0538781 -0.0113699 0)
  (0.0539854 -0.00622196 0)
  (0.0561268 -0.00386034 0)
  (0.05851 -0.00300618 0)
  (0.0608202 -0.00228629 0)
  (0.0629564 -0.000767965 0)
  (0.0645367 0.00208969 0)
  (0.0644018 0.00640422 0)
  (0.0619727 0.0123422 0)
  (0.0565577 0.0205608 0)
  (0.0500062 0.0359874 0)
  (0.0410492 0.0545512 0)
  (0.0619151 0.0751108 0)
  (-0.0167553 0.104392 0)
  (0.0454019 0.0342118 0)
  (-0.0612448 -0.034404 0)
  (-0.26881 -0.0566679 0)
  (0.714673 0.427927 0)
  (-0.283284 0.188095 0)
  (-0.00562041 0.119926 0)
  (-0.0117027 0.0916385 0)
  (-0.00484247 0.0622149 0)
  (0.00546519 0.0205565 0)
  (0.0342216 -0.0337928 0)
  (0.0553178 -0.0819199 0)
  (0.0701551 -0.116214 0)
  (0.0786913 -0.135314 0)
  (0.0817063 -0.140418 0)
  (0.080699 -0.134252 0)
  (0.0770379 -0.119837 0)
  (0.0721323 -0.100153 0)
  (0.0674618 -0.0780901 0)
  (0.0643907 -0.0563326 0)
  (0.0638095 -0.0386032 0)
  (0.0633433 -0.0294891 0)
  (0.0593044 -0.0271557 0)
  (0.0516821 -0.0249873 0)
  (0.0434401 -0.0213587 0)
  (0.036848 -0.0173667 0)
  (0.0323325 -0.0134873 0)
  (0.0300592 -0.00979109 0)
  (0.0299995 -0.00693645 0)
  (0.0316775 -0.00598593 0)
  (0.034165 -0.00595704 0)
  (0.0371206 -0.00565974 0)
  (0.0403813 -0.0041328 0)
  (0.043737 -0.000528947 0)
  (0.0466718 0.0054146 0)
  (0.0481969 0.0133943 0)
  (0.0485216 0.0236348 0)
  (0.0490564 0.0379306 0)
  (0.0483872 0.0558996 0)
  (0.0703097 0.0787866 0)
  (0.0523324 0.0974166 0)
  (0.0914267 0.0684226 0)
  (0.114435 0.0446264 0)
  (-0.128204 -0.00736307 0)
  (0.767582 0.468509 0)
  (-0.301864 0.173454 0)
  (0.0221008 0.0677249 0)
  (0.049596 0.0628778 0)
  (0.0703614 0.0438277 0)
  (0.103456 -0.00390088 0)
  (0.135182 -0.057488 0)
  (0.153495 -0.098419 0)
  (0.159511 -0.124099 0)
  (0.155302 -0.135518 0)
  (0.143502 -0.13482 0)
  (0.126973 -0.12485 0)
  (0.108257 -0.1085 0)
  (0.0895072 -0.0886822 0)
  (0.0724762 -0.0679749 0)
  (0.0582699 -0.0484385 0)
  (0.0473983 -0.0327214 0)
  (0.0387446 -0.0232022 0)
  (0.0303181 -0.0189122 0)
  (0.0217675 -0.0165405 0)
  (0.0141028 -0.0142475 0)
  (0.00829198 -0.0120958 0)
  (0.00452746 -0.0102498 0)
  (0.00279982 -0.00873262 0)
  (0.00294085 -0.00791241 0)
  (0.00444738 -0.00817248 0)
  (0.00670534 -0.0088763 0)
  (0.00949902 -0.00916813 0)
  (0.0128798 -0.00819739 0)
  (0.0169785 -0.00496735 0)
  (0.0227351 0.00148477 0)
  (0.0283994 0.0102205 0)
  (0.0338071 0.0205517 0)
  (0.0407731 0.0331654 0)
  (0.0485809 0.0478336 0)
  (0.0703316 0.066272 0)
  (0.0839478 0.074706 0)
  (0.115782 0.0526974 0)
  (0.155313 0.0440611 0)
  (-0.0363617 0.0925443 0)
  (0.872363 0.469821 0)
  (-0.0642734 0.152075 0)
  (0.110023 -0.0139705 0)
  (0.181837 -0.0413416 0)
  (0.212749 -0.0530564 0)
  (0.244205 -0.0755197 0)
  (0.261922 -0.0977141 0)
  (0.262656 -0.11349 0)
  (0.248 -0.120895 0)
  (0.222028 -0.11999 0)
  (0.189236 -0.112006 0)
  (0.153658 -0.0987534 0)
  (0.118438 -0.0819826 0)
  (0.0859677 -0.0638733 0)
  (0.0578564 -0.046338 0)
  (0.0347182 -0.0305745 0)
  (0.0173451 -0.0187275 0)
  (0.00482028 -0.012115 0)
  (-0.00477655 -0.00954763 0)
  (-0.0120986 -0.00878668 0)
  (-0.0179037 -0.00837501 0)
  (-0.02213 -0.00814698 0)
  (-0.0248866 -0.00812538 0)
  (-0.0263201 -0.00835025 0)
  (-0.0266599 -0.00897449 0)
  (-0.0263143 -0.0100608 0)
  (-0.025669 -0.0112955 0)
  (-0.02483 -0.0122286 0)
  (-0.023638 -0.0123658 0)
  (-0.0216978 -0.0111213 0)
  (-0.0180335 -0.00775202 0)
  (-0.0093745 -0.00157372 0)
  (-0.0011658 0.00639921 0)
  (0.00933355 0.0145291 0)
  (0.0210097 0.0215949 0)
  (0.0407867 0.0289523 0)
  (0.0598715 0.0225745 0)
  (0.0799615 -0.00458123 0)
  (0.138758 0.0390319 0)
  (-0.404732 0.202352 0)
  (1.01928 0.422949 0)
  (0.484875 0.279529 0)
  (0.499766 0.182923 0)
  (0.526354 0.111563 0)
  (0.507409 0.060157 0)
  (0.465456 0.0129929 0)
  (0.416684 -0.026228 0)
  (0.363105 -0.0530282 0)
  (0.305016 -0.0666653 0)
  (0.245324 -0.0691698 0)
  (0.187499 -0.0639219 0)
  (0.13413 -0.0540773 0)
  (0.0867901 -0.0415028 0)
  (0.0470311 -0.0284024 0)
  (0.014935 -0.0165758 0)
  (-0.0105438 -0.00710363 0)
  (-0.0255083 -0.00289517 0)
  (-0.0347243 -0.00188797 0)
  (-0.0409164 -0.00241059 0)
  (-0.0457148 -0.00341279 0)
  (-0.0496463 -0.00442409 0)
  (-0.0528478 -0.00541493 0)
  (-0.0554256 -0.00641007 0)
  (-0.0575352 -0.00744452 0)
  (-0.0594156 -0.00856732 0)
  (-0.0614173 -0.00975948 0)
  (-0.063892 -0.0108156 0)
  (-0.0671364 -0.0113701 0)
  (-0.0714665 -0.0108954 0)
  (-0.0773091 -0.00868928 0)
  (-0.0852091 -0.00393118 0)
  (-0.0951032 0.00392165 0)
  (-0.105179 0.0143554 0)
  (-0.119942 0.0276135 0)
  (-0.143093 0.0438427 0)
  (-0.17714 0.0619897 0)
  (-0.225445 0.0782038 0)
  (-0.281091 0.0899291 0)
  (-0.349121 0.0970925 0)
  (-0.60886 0.100196 0)
  (-0.150595 0.00169573 0)
  (0.121156 0.00124881 0)
  (0.200094 -0.0321103 0)
  (0.18719 -0.0420125 0)
  (0.171132 -0.0399891 0)
  (0.149058 -0.0350832 0)
  (0.119621 -0.0288741 0)
  (0.0859045 -0.0215005 0)
  (0.0514198 -0.0134226 0)
  (0.0165765 -0.00524981 0)
  (-0.0168965 0.00232669 0)
  (-0.0392524 0.00661193 0)
  (-0.0546853 0.00894965 0)
  (-0.0639015 0.00944289 0)
  (-0.0689946 0.00859746 0)
  (-0.0725326 0.00765697 0)
  (-0.0753324 0.00689694 0)
  (-0.0778267 0.00632464 0)
  (-0.0803319 0.00584719 0)
  (-0.0829676 0.00520726 0)
  (-0.0857097 0.00446671 0)
  (-0.0886363 0.0036415 0)
  (-0.0918707 0.00278685 0)
  (-0.0955567 0.00202575 0)
  (-0.0997751 0.00159721 0)
  (-0.104524 0.00181208 0)
  (-0.109734 0.00299743 0)
  (-0.115229 0.0054517 0)
  (-0.120388 0.00970713 0)
  (-0.124495 0.0166697 0)
  (-0.127898 0.0274532 0)
  (-0.130813 0.0424454 0)
  (-0.133891 0.0608557 0)
  (-0.137567 0.079292 0)
  (-0.138811 0.0882447 0)
  (-0.121425 0.0672137 0)
  (-0.0788331 -0.0228681 0)
  (-0.273776 -0.198069 0)
  (0.0161092 0.194348 0)
  (0.0413516 0.0700738 0)
  (0.000552846 0.0056939 0)
  (-0.0126936 -0.0023944 0)
  (-0.0261969 -0.000353118 0)
  (-0.041197 -1.05568e-05 0)
  (-0.057492 0.00109941 0)
  (-0.0729733 0.00334358 0)
  (-0.0851623 0.00544471 0)
  (-0.0918397 0.00576601 0)
  (-0.0961318 0.00381413 0)
  (-0.0978912 -0.000223056 0)
  (-0.0981643 -0.00477863 0)
  (-0.0975962 -0.00967387 0)
  (-0.097098 -0.0149113 0)
  (-0.0972078 -0.0200187 0)
  (-0.0979503 -0.0247063 0)
  (-0.0992233 -0.0287143 0)
  (-0.100897 -0.0318531 0)
  (-0.102898 -0.0340297 0)
  (-0.105285 -0.0353913 0)
  (-0.107968 -0.0358979 0)
  (-0.110848 -0.0354934 0)
  (-0.113834 -0.0343368 0)
  (-0.116801 -0.0324705 0)
  (-0.11951 -0.0296669 0)
  (-0.121589 -0.0255055 0)
  (-0.122569 -0.0193957 0)
  (-0.122027 -0.0114178 0)
  (-0.119086 -0.00126906 0)
  (-0.112385 0.0117674 0)
  (-0.100643 0.0283338 0)
  (-0.0834043 0.0479531 0)
  (-0.0614222 0.0667363 0)
  (-0.0375506 0.0777383 0)
  (0.00220378 0.0619016 0)
  (0.142958 -0.00834805 0)
  (-0.204762 -0.108207 0)
  (-0.0425906 -0.31949 0)
  (-0.41288 -0.123222 0)
  (-0.301001 0.0641276 0)
  (-0.249947 -0.0171337 0)
  (-0.210247 -0.022326 0)
  (-0.199097 -0.0112531 0)
  (-0.194676 -0.00156755 0)
  (-0.191211 0.00645212 0)
  (-0.186677 0.0139852 0)
  (-0.18018 0.0214876 0)
  (-0.171555 0.029043 0)
  (-0.161121 0.036551 0)
  (-0.150029 0.0438409 0)
  (-0.139438 0.0508903 0)
  (-0.13014 0.057972 0)
  (-0.122402 0.0650424 0)
  (-0.116268 0.0720567 0)
  (-0.111565 0.0787922 0)
  (-0.108052 0.0848362 0)
  (-0.105519 0.089804 0)
  (-0.103783 0.0934459 0)
  (-0.102685 0.095655 0)
  (-0.10214 0.0964991 0)
  (-0.102104 0.0959293 0)
  (-0.102536 0.0939055 0)
  (-0.103358 0.0907781 0)
  (-0.104442 0.0868536 0)
  (-0.105574 0.0822244 0)
  (-0.106375 0.0769347 0)
  (-0.10617 0.0711143 0)
  (-0.103707 0.066013 0)
  (-0.0971619 0.0625455 0)
  (-0.084173 0.0616023 0)
  (-0.0629352 0.0641524 0)
  (-0.033866 0.0707376 0)
  (0.0116455 0.0804319 0)
  (0.0547184 0.0814387 0)
  (0.0954782 0.0687628 0)
  (0.160849 0.0432277 0)
  (-0.23292 -0.00662259 0)
)
;

boundaryField
{
  floor
  {
    type noSlip;
  }
  ceiling
  {
    type noSlip;
  }
  sWall
  {
    type noSlip;
  }
  nWall
  {
    type noSlip;
  }
  sideWalls
  {
    type empty;
  }
  glass1
  {
    type noSlip;
  }
  glass2
  {
    type noSlip;
  }
  sun
  {
    type noSlip;
  }
  heatsource1
  {
    type noSlip;
  }
  heatsource2
  {
    type noSlip;
  }
  Table_master
  {
    type noSlip;
  }
  Table_slave
  {
    type noSlip;
  }
  inlet
  {
    type fixedValue;
    value uniform (0.277164 -0.114805 0);
  }
  outlet
  {
    type zeroGradient;
  }
} 	// ************************************************************************* //

