// -*- C++ -*-
// File generated by PyFoam - sorry for the ugliness

FoamFile
{
 version 2.0;
 format ascii;
 class volScalarField;
 location "250";
 object T;
}

dimensions [ 0 0 0 1 0 0 0 ];

internalField nonuniform List<scalar> 459
(
  303.882
  303.746
  303.743
  303.743
  303.744
  303.744
  303.743
  303.74
  303.739
  303.745
  303.763
  303.775
  303.78
  303.78
  303.765
  304.034
  304.051
  304.046
  304.049
  304.065
  304.079
  304.089
  304.097
  304.105
  304.113
  304.121
  304.129
  304.138
  304.146
  304.155
  304.164
  304.175
  304.19
  304.223
  303.976
  303.78
  303.771
  303.773
  303.774
  303.771
  303.762
  303.748
  303.739
  303.745
  303.768
  303.789
  303.802
  303.805
  303.798
  303.806
  303.818
  304.063
  304.05
  304.031
  304.041
  304.064
  304.088
  304.104
  304.12
  304.136
  304.152
  304.169
  304.185
  304.201
  304.216
  304.228
  304.236
  304.238
  304.236
  304.273
  304.072
  303.81
  303.795
  303.802
  303.806
  303.804
  303.785
  303.751
  303.728
  303.734
  303.763
  303.792
  303.814
  303.824
  303.824
  303.825
  303.828
  304.023
  303.98
  303.991
  304.02
  304.059
  304.095
  304.108
  304.125
  304.143
  304.163
  304.184
  304.206
  304.228
  304.249
  304.266
  304.277
  304.278
  304.272
  304.297
  304.171
  303.846
  303.822
  303.837
  303.852
  303.856
  303.819
  303.757
  303.717
  303.721
  303.756
  303.798
  303.83
  303.847
  303.851
  303.849
  303.844
  303.851
  303.887
  303.92
  303.967
  304.023
  304.081
  304.132
  304.176
  304.21
  304.24
  304.269
  304.297
  304.324
  304.352
  304.379
  304.406
  304.379
  304.347
  304.319
  304.323
  304.271
  303.889
  303.852
  303.874
  303.908
  303.916
  303.851
  303.758
  303.705
  303.709
  303.754
  303.811
  303.857
  303.883
  303.89
  303.888
  303.884
  303.894
  303.92
  303.962
  304.02
  304.087
  304.154
  304.214
  304.267
  304.31
  304.347
  304.38
  304.407
  304.431
  304.452
  304.468
  304.477
  304.457
  304.417
  304.378
  304.354
  304.369
  304.484
  304.833
  304.366
  303.945
  303.894
  303.915
  303.973
  303.955
  303.858
  303.748
  303.686
  303.696
  303.759
  303.838
  303.904
  303.941
  303.954
  303.955
  303.955
  303.974
  304.012
  304.065
  304.131
  304.201
  304.269
  304.328
  304.379
  304.421
  304.456
  304.483
  304.506
  304.524
  304.538
  304.547
  304.547
  304.527
  304.49
  304.459
  304.409
  304.409
  304.551
  304.817
  304.459
  304.035
  303.981
  304
  304.038
  303.971
  303.831
  303.701
  303.647
  303.685
  303.782
  303.893
  303.981
  304.032
  304.053
  304.057
  304.064
  304.094
  304.145
  304.208
  304.278
  304.348
  304.411
  304.464
  304.508
  304.541
  304.565
  304.585
  304.6
  304.612
  304.62
  304.623
  304.617
  304.597
  304.566
  304.537
  304.46
  304.451
  304.592
  304.83
  304.586
  304.263
  304.197
  304.199
  304.119
  303.933
  303.726
  303.595
  303.588
  303.69
  303.843
  303.994
  304.105
  304.166
  304.188
  304.195
  304.213
  304.255
  304.317
  304.387
  304.453
  304.514
  304.569
  304.611
  304.639
  304.657
  304.671
  304.683
  304.692
  304.699
  304.702
  304.7
  304.693
  304.677
  304.652
  304.616
  304.523
  304.503
  304.613
  304.871
  304.766
  304.607
  304.502
  304.371
  304.015
  303.649
  303.431
  303.407
  303.543
  303.767
  303.991
  304.171
  304.286
  304.334
  304.351
  304.367
  304.398
  304.45
  304.515
  304.582
  304.639
  304.684
  304.718
  304.741
  304.756
  304.766
  304.773
  304.778
  304.783
  304.785
  304.784
  304.78
  304.772
  304.758
  304.736
  304.7
  304.619
  304.584
  304.661
  304.884
  301.193
  301.36
  301.705
  302.2
  302.75
  303.265
  303.705
  304.069
  304.293
  304.414
  304.476
  304.509
  304.533
  304.562
  304.601
  304.65
  304.703
  304.751
  304.789
  304.816
  304.834
  304.846
  304.852
  304.856
  304.857
  304.858
  304.857
  304.855
  304.85
  304.843
  304.832
  304.817
  304.797
  304.766
  304.722
  304.694
  304.743
  304.863
  301.421
  301.856
  302.451
  303.063
  303.614
  303.972
  304.236
  304.422
  304.535
  304.599
  304.64
  304.67
  304.698
  304.729
  304.764
  304.801
  304.836
  304.865
  304.886
  304.9
  304.908
  304.912
  304.914
  304.913
  304.911
  304.908
  304.903
  304.897
  304.889
  304.879
  304.867
  304.852
  304.835
  304.815
  304.795
  304.786
  304.819
  304.871
  303.149
  303.082
  303.066
  303.543
  303.954
  304.193
  304.381
  304.515
  304.609
  304.676
  304.725
  304.76
  304.789
  304.815
  304.839
  304.863
  304.886
  304.907
  304.925
  304.937
  304.945
  304.95
  304.951
  304.95
  304.947
  304.943
  304.938
  304.932
  304.924
  304.916
  304.905
  304.894
  304.882
  304.87
  304.859
  304.851
  304.846
  304.848
  304.868
  304.899
)
;

boundaryField
{
  floor
  {
    type wallHeatTransfer;
    Tinf uniform 298.85;
    alphaWall uniform 0.24;
    value nonuniform List<scalar> 29
(
  303.19
  303.167
  303.307
  303.337
  303.379
  303.391
  303.386
  303.355
  303.317
  303.278
  303.241
  303.207
  303.175
  303.144
  303.115
  303.086
  303.056
  303.025
  302.983
  303.04
  303.04
  303.273
  303.392
  303.499
  303.19
  303.167
  303.426
  303.447
  303.366
)
;
  }
  ceiling
  {
    type wallHeatTransfer;
    Tinf uniform 298.85;
    alphaWall uniform 0.24;
    value nonuniform List<scalar> 43
(
  302.788
  302.75
  302.758
  303.238
  303.638
  303.874
  304.053
  304.174
  304.254
  304.306
  304.341
  304.366
  304.389
  304.411
  304.434
  304.457
  304.48
  304.5
  304.516
  304.527
  304.534
  304.537
  304.537
  304.535
  304.531
  304.527
  304.523
  304.517
  304.512
  304.505
  304.497
  304.489
  304.479
  304.468
  304.455
  304.446
  304.448
  304.468
  304.5
  304.5
  304.444
  304.334
  301.198
)
;
  }
  sWall
  {
    type wallHeatTransfer;
    Tinf uniform 311.144;
    alphaWall uniform 0.36;
    value uniform 304.119;
  }
  nWall
  {
    type wallHeatTransfer;
    Tinf uniform 299.15;
    alphaWall uniform 0.36;
    value nonuniform List<scalar> 6
(
  304.05
  304.188
  304.33
  304.455
  304.4
  304.348
)
;
  }
  sideWalls
  {
    type empty;
  }
  glass1
  {
    type wallHeatTransfer;
    Tinf uniform 311.144;
    alphaWall uniform 4.3;
    value nonuniform List<scalar> 9
(
  308.856
  308.561
  308.367
  308.215
  308.084
  307.959
  307.869
  307.903
  308.022
)
;
  }
  glass2
  {
    type wallHeatTransfer;
    Tinf uniform 299.15;
    alphaWall uniform 4.3;
    value nonuniform List<scalar> 2
(
  302.205
  302.353
)
;
  }
  sun
  {
    type wallHeatTransfer;
    Tinf uniform 298.85;
    alphaWall uniform 0.24;
    value nonuniform List<scalar> 14
(
  303.345
  303.264
  303.276
  303.297
  303.315
  303.332
  303.345
  303.352
  303.355
  303.357
  303.354
  303.338
  303.306
  303.258
)
;
  }
  heatsource1
  {
    type fixedGradient;
    gradient uniform 0;
  }
  heatsource2
  {
    type fixedGradient;
    gradient uniform 0;
  }
  Table_master
  {
    type zeroGradient;
  }
  Table_slave
  {
    type zeroGradient;
  }
  inlet
  {
    type fixedValue;
    value uniform 300.15;
  }
  outlet
  {
    type zeroGradient;
  }
} 	// ************************************************************************* //

