/*--------------------------------*- C++ -*----------------------------------*\
  =========                 |
  \\      /  F ield         | OpenFOAM: The Open Source CFD Toolbox
   \\    /   O peration     | Website:  https://openfoam.org
    \\  /    A nd           | Version:  6
     \\/     M anipulation  |
\*---------------------------------------------------------------------------*/
FoamFile
{
    version     2.0;
    format      ascii;
    class       volScalarField;
    location    "700";
    object      alphat;
}
// * * * * * * * * * * * * * * * * * * * * * * * * * * * * * * * * * * * * * //

dimensions      [1 -1 -1 0 0 0 0];

internalField   nonuniform List<scalar> 
459
(
0.0013284
0.00146049
0.00149733
0.00157302
0.00164444
0.00171374
0.00178571
0.00184222
0.00187414
0.00187438
0.00183847
0.00176271
0.00164057
0.00144672
0.0011383
0.000585127
0.000697968
0.000806931
0.000845341
0.000834273
0.000805335
0.000752837
0.000697367
0.000646938
0.000602574
0.000563677
0.000529485
0.000499142
0.000471897
0.000447045
0.00042323
0.000398429
0.000375363
0.000334265
0.00177709
0.00448607
0.00436445
0.00508997
0.00582013
0.00651392
0.00702914
0.00748816
0.00788237
0.00817414
0.00833397
0.00833437
0.00812975
0.00760428
0.00619441
0.00141703
0.000994947
0.000589233
0.00141417
0.00209757
0.00264263
0.00297777
0.00296992
0.00218905
0.00182551
0.00157801
0.00139293
0.0012482
0.00113136
0.00103572
0.000952468
0.000868558
0.000789651
0.000718698
0.000797139
0.000414685
0.00214481
0.00610079
0.00544258
0.00660865
0.00720167
0.00764815
0.00798662
0.00833919
0.00872101
0.00910085
0.00943894
0.00969164
0.00977239
0.00957484
0.00880395
0.00648194
0.00147584
0.00104408
0.00172326
0.00246715
0.00321634
0.00376705
0.00367101
0.00107172
0.000933258
0.000821712
0.000731907
0.000658914
0.000598841
0.000548815
0.000507151
0.000473583
0.000508297
0.000579426
0.000902344
0.00047185
0.00249313
0.00765723
0.00550374
0.00690664
0.00728862
0.00744683
0.00760653
0.00787187
0.00824094
0.00867745
0.0091319
0.00954182
0.00978155
0.00983953
0.00961392
0.00863322
0.00516186
0.0017066
0.00208141
0.00281043
0.00371149
0.00456481
0.00514572
0.00483066
0.00122154
0.00110192
0.00101388
0.000944689
0.000886859
0.000835434
0.00078575
0.000734133
0.000675613
0.000617567
0.000608516
0.0010418
0.000520639
0.00284704
0.00964374
0.00600596
0.00677935
0.00718732
0.00717918
0.00724382
0.00745219
0.0078086
0.0082741
0.00877455
0.00919994
0.00946482
0.00954863
0.00946757
0.00914212
0.00820335
0.00714774
0.00689634
0.00701601
0.00725953
0.00746463
0.00751656
0.00720655
0.00590415
0.00524198
0.00483675
0.00452364
0.0041905
0.00378597
0.00330099
0.00274308
0.00213918
0.0015542
0.00112348
0.00110427
0.00069967
0.000660071
0.000806439
0.000907385
0.00322364
0.0118372
0.00809329
0.00702049
0.00738233
0.00729274
0.00728109
0.00737512
0.00765899
0.00812847
0.00866705
0.00911662
0.00935934
0.00937912
0.00926916
0.00916232
0.00911817
0.0091758
0.00934679
0.00948666
0.00950744
0.00939188
0.00913906
0.00871905
0.00805755
0.00745468
0.00693354
0.00644954
0.00595325
0.00540511
0.0047948
0.00410759
0.00334915
0.0025654
0.00190637
0.00141736
0.00104014
0.000883742
0.00125757
0.000948211
0.00356085
0.0133392
0.0111022
0.00895868
0.0084636
0.0079225
0.00753238
0.00746413
0.007742
0.00827705
0.00888552
0.0093608
0.00956908
0.00951935
0.00938557
0.00943282
0.00980777
0.0103283
0.0106904
0.0107737
0.0106065
0.0102602
0.00978848
0.00921448
0.0085515
0.00789128
0.00726284
0.00666059
0.00608228
0.00554222
0.00505216
0.00450565
0.00389353
0.00321748
0.00260155
0.00205649
0.0016546
0.00151929
0.00149434
0.00109892
0.0036207
0.0116158
0.0104822
0.00949084
0.00848266
0.00766408
0.00730156
0.00744428
0.00799876
0.00876607
0.00948668
0.00993709
0.01003
0.00986842
0.00975778
0.0100291
0.0106392
0.0111252
0.0112352
0.0110375
0.0106081
0.0100194
0.00932206
0.00855518
0.0077653
0.00700575
0.00629866
0.00565664
0.00510266
0.00466494
0.00435956
0.00415769
0.00388941
0.00349915
0.00316485
0.00298456
0.00303679
0.00333638
0.00411927
0.00164501
0.00352104
0.00416161
0.00455325
0.00464579
0.00487467
0.00545668
0.0064081
0.00762432
0.00889807
0.00996943
0.0106031
0.0107024
0.0104019
0.0100999
0.0102394
0.0105373
0.0107647
0.0107818
0.0105291
0.0100437
0.00938392
0.00860529
0.00776011
0.0069023
0.00608058
0.00533075
0.00467031
0.00411139
0.00366151
0.00331458
0.00305062
0.00285631
0.00272146
0.00262873
0.0025825
0.00257502
0.00254978
0.00245255
0.00228469
0.00152595
0.00156492
0.00356712
0.00685011
0.00919396
0.0107775
0.0117505
0.0121544
0.0120328
0.0115327
0.010766
0.010039
0.00964965
0.0096273
0.0096082
0.0094228
0.00904562
0.00848743
0.00779076
0.00701964
0.00624036
0.00550697
0.004852
0.00428636
0.0038039
0.00339945
0.00307446
0.00283056
0.00266472
0.00256935
0.0025273
0.00252227
0.00254284
0.00257681
0.00260052
0.00257625
0.00248055
0.00218543
0.00122245
0.0023051
0.00708824
0.0101228
0.0111748
0.0114643
0.0112426
0.0106299
0.00980497
0.0089899
0.00828993
0.00776368
0.00741263
0.00713349
0.00682321
0.00646136
0.00604547
0.0055845
0.00510959
0.00466
0.00426298
0.00392683
0.00364546
0.0034068
0.00319933
0.00301592
0.00285482
0.00271881
0.00261359
0.00254509
0.00251641
0.00252633
0.00256618
0.00261523
0.00264248
0.00261363
0.00252757
0.00192382
0.00125111
0.00208775
0.00221638
0.00230691
0.00249839
0.00241027
0.00232201
0.00224132
0.00212109
0.00196449
0.00178871
0.00161016
0.00144893
0.00132306
0.00123282
0.00116837
0.00111941
0.00107873
0.00104215
0.00100815
0.000977015
0.000949451
0.00092578
0.000905861
0.000889464
0.000876678
0.000868196
0.000865303
0.000869543
0.000882264
0.000904258
0.000935737
0.000976621
0.00102678
0.00108588
0.00115196
0.00122109
0.00122587
0.00109198
0.00105231
0.00127316
)
;

boundaryField
{
    floor
    {
        type            compressible::alphatWallFunction;
        Prt             0.85;
        value           nonuniform List<scalar> 
29
(
0.000161618
8.2156e-05
9.89119e-05
0.000114783
0.000120317
0.000118726
0.000114555
0.00010694
9.88246e-05
9.13787e-05
8.47696e-05
7.89258e-05
7.37476e-05
6.91175e-05
6.49298e-05
6.10832e-05
5.73716e-05
5.34773e-05
4.98274e-05
4.32508e-05
4.32502e-05
5.60364e-05
6.49283e-05
7.24092e-05
0.000161617
8.2155e-05
8.27705e-05
0.000148489
0.000238572
)
;
    }
    ceiling
    {
        type            compressible::alphatWallFunction;
        Prt             0.85;
        value           nonuniform List<scalar> 
43
(
0.000288443
0.000305064
0.000316703
0.000341292
0.000330113
0.000318842
0.00030849
0.000292981
0.00027263
0.000249575
0.000225895
0.000204264
0.000187189
0.000174835
0.000165948
0.00015916
0.000153495
0.000148379
0.000143605
0.000139216
0.000135317
0.000131958
0.000129123
0.000126784
0.000124956
0.000123741
0.000123326
0.000123933
0.000125751
0.00012889
0.000133366
0.000139155
0.000146219
0.000154489
0.000163677
0.000173224
0.000173881
0.00015534
0.0001498
0.000180383
0.000469154
0.000547081
0.000316261
)
;
    }
    sWall
    {
        type            compressible::alphatWallFunction;
        Prt             0.85;
        value           uniform 0.000287241;
    }
    nWall
    {
        type            compressible::alphatWallFunction;
        Prt             0.85;
        value           nonuniform List<scalar> 6(0.000129014 0.00013481 0.000155979 0.000173096 0.000177032 0.000180062);
    }
    sideWalls
    {
        type            empty;
    }
    glass1
    {
        type            compressible::alphatWallFunction;
        Prt             0.85;
        value           nonuniform List<scalar> 9(0.000183279 0.000242631 0.00029016 0.000334457 0.000378857 0.000425515 0.000466862 0.000474291 0.00046237);
    }
    glass2
    {
        type            compressible::alphatWallFunction;
        Prt             0.85;
        value           nonuniform List<scalar> 2(0.000228945 0.000213163);
    }
    sun
    {
        type            compressible::alphatWallFunction;
        Prt             0.85;
        value           nonuniform List<scalar> 
14
(
0.000187784
0.000205678
0.00021064
0.000220791
0.000230321
0.000239524
0.000249037
0.000256479
0.00026067
0.0002607
0.000255983
0.000245998
0.000229801
0.000203813
)
;
    }
    heatsource1
    {
        type            compressible::alphatWallFunction;
        Prt             0.85;
        value           nonuniform List<scalar> 3(9.34298e-05 0.000114823 0.000129304);
    }
    heatsource2
    {
        type            compressible::alphatWallFunction;
        Prt             0.85;
        value           nonuniform List<scalar> 4(0.000199931 0.000141713 0.000141711 0.000207866);
    }
    Table_master
    {
        type            compressible::alphatWallFunction;
        Prt             0.85;
        value           nonuniform List<scalar> 9(0.000152476 0.000132977 0.000117021 0.000103988 9.3252e-05 8.43073e-05 7.67739e-05 7.04345e-05 6.52793e-05);
    }
    Table_slave
    {
        type            compressible::alphatWallFunction;
        Prt             0.85;
        value           nonuniform List<scalar> 9(0.000173254 0.000156695 0.000144375 0.000134606 0.000126377 0.000119005 0.000111832 0.000104322 9.57294e-05);
    }
    inlet
    {
        type            fixedValue;
        value           uniform 1.94e-05;
    }
    outlet
    {
        type            zeroGradient;
    }
}


// ************************************************************************* //
