/*--------------------------------*- C++ -*----------------------------------*\
  =========                 |
  \\      /  F ield         | OpenFOAM: The Open Source CFD Toolbox
   \\    /   O peration     | Website:  https://openfoam.org
    \\  /    A nd           | Version:  6
     \\/     M anipulation  |
\*---------------------------------------------------------------------------*/
FoamFile
{
    version     2.0;
    format      ascii;
    class       volScalarField;
    location    "1100";
    object      epsilon;
}
// * * * * * * * * * * * * * * * * * * * * * * * * * * * * * * * * * * * * * //

dimensions      [0 2 -3 0 0 0 0];

internalField   nonuniform List<scalar> 
459
(
0.000573278
0.000761317
0.000821046
0.000953911
0.00109433
0.00124723
0.00141062
0.00153471
0.00158949
0.00155397
0.00142369
0.0012033
0.000848362
0.000495229
0.000271303
5.23103e-05
8.6232e-05
0.000133254
0.000159067
0.000156829
0.000142957
0.000117756
9.45393e-05
7.6364e-05
6.25141e-05
5.19022e-05
4.36758e-05
3.71856e-05
3.2005e-05
2.7741e-05
2.4055e-05
2.0634e-05
1.79329e-05
1.34557e-05
0.00136851
0.00186556
0.000712084
0.000702631
0.000756717
0.000850438
0.000979307
0.00109754
0.00116224
0.00114809
0.0010545
0.000902243
0.000702426
0.000513828
0.000374627
0.000570727
0.000240736
4.98664e-05
0.000102618
0.000136581
0.000142403
0.000134834
0.000123689
0.000122477
9.93949e-05
7.78152e-05
6.08414e-05
4.79744e-05
3.82884e-05
3.09393e-05
2.53448e-05
2.11378e-05
1.84659e-05
1.71661e-05
3.09158e-05
2.37729e-05
0.00240026
0.00427523
0.000857006
0.00068975
0.000762886
0.000911019
0.00110142
0.00125844
0.00133237
0.00131246
0.00120691
0.00104257
0.000844269
0.000666232
0.000520774
0.000462227
0.000602958
0.000195932
0.000201796
0.000192673
0.000177639
0.000159341
0.000150799
0.00031546
0.000207914
0.000142045
0.000100807
7.41345e-05
5.62944e-05
4.39947e-05
3.54375e-05
2.96766e-05
2.22752e-05
1.86369e-05
5.25415e-05
3.38463e-05
0.00376031
0.00857784
0.00129989
0.000734458
0.000818545
0.00105713
0.00134041
0.00151982
0.0015763
0.00153156
0.0013958
0.00119844
0.000981821
0.000781391
0.000623613
0.000524399
0.000512221
0.000919521
0.000574067
0.000387541
0.000290455
0.000233337
0.00019523
0.000182522
0.000464906
0.000344212
0.000269274
0.000217214
0.000178534
0.00014732
0.000120285
9.57202e-05
7.21859e-05
3.94682e-05
2.52152e-05
8.74252e-05
4.32356e-05
0.00558122
0.0150445
0.00246778
0.000924721
0.00098082
0.00143795
0.00179835
0.00193511
0.00193055
0.00183145
0.00164723
0.00139587
0.00111343
0.0008497
0.000643057
0.000507013
0.000444769
0.000445483
0.000391982
0.000339215
0.000294088
0.000252967
0.000215012
0.000185248
0.0001818
0.000167231
0.000151398
0.000135067
0.000118625
0.000102156
8.60444e-05
7.08857e-05
5.69221e-05
4.0848e-05
2.92832e-05
6.40609e-05
4.62143e-05
7.58561e-05
0.000132035
0.00018802
0.00806607
0.0222571
0.00544816
0.00180116
0.00169002
0.00243855
0.00260813
0.00256692
0.00244335
0.0022566
0.00199024
0.00164737
0.00126686
0.000916158
0.000649027
0.000481424
0.000403248
0.000380319
0.000365424
0.000341565
0.000306417
0.000264955
0.000223209
0.000187496
0.000164376
0.000149491
0.000137527
0.000125066
0.000111275
9.6219e-05
8.0855e-05
6.64545e-05
5.38712e-05
4.25859e-05
3.59173e-05
4.84494e-05
5.01177e-05
6.06164e-05
0.000246959
0.000217848
0.0108066
0.0265885
0.0111729
0.00556857
0.00489792
0.00438588
0.00389551
0.00348849
0.00315391
0.00282332
0.00242867
0.00195379
0.00144066
0.00098249
0.000652228
0.000463779
0.000387228
0.000369264
0.000358751
0.000333481
0.000294712
0.000250632
0.000208834
0.000175163
0.000153531
0.000141995
0.000134481
0.000127631
0.000120499
0.000111746
0.00010062
8.90116e-05
7.83582e-05
6.93093e-05
6.71318e-05
7.76586e-05
0.000102398
0.000170462
0.000379295
0.000359529
0.0113487
0.0276868
0.0161566
0.011462
0.00862191
0.00664828
0.00537348
0.00457477
0.00402738
0.00352803
0.00295175
0.00228366
0.00157898
0.000985416
0.000602029
0.000414891
0.000356824
0.000339833
0.000320889
0.000289485
0.000249694
0.000210156
0.000177032
0.000153607
0.000140536
0.000135658
0.000135945
0.00014023
0.00014873
0.000161595
0.00017673
0.000189656
0.000206993
0.000238425
0.000295894
0.000458337
0.000860101
0.00164363
0.00460115
0.00124482
0.0104591
0.0171111
0.0135084
0.0104377
0.00821432
0.00685148
0.00604607
0.00551991
0.0050226
0.00434392
0.0034467
0.00244898
0.00142301
0.000727792
0.00045249
0.000344252
0.000301988
0.000277777
0.000251654
0.000220781
0.000189247
0.000161507
0.000140541
0.000127538
0.000122143
0.000123166
0.000130065
0.000143473
0.000165039
0.000197134
0.000242829
0.000307267
0.000396415
0.000526039
0.000706119
0.00093839
0.00119433
0.00141187
0.00158573
0.00098967
0.00314071
0.0049621
0.00681023
0.00726388
0.0071502
0.00656697
0.0054865
0.00378309
0.00222877
0.00127763
0.000736181
0.000450403
0.000322175
0.000263412
0.000231141
0.00020562
0.000180173
0.000155279
0.000133531
0.000116733
0.000105442
9.93574e-05
9.79088e-05
0.000100787
0.000108187
0.000121069
0.000141029
0.000170479
0.00021308
0.000273465
0.000357847
0.000473211
0.000621063
0.000786633
0.000929858
0.00100225
0.00091989
0.00056888
0.00290396
0.00789831
0.00783748
0.0061036
0.00477976
0.00358066
0.00251467
0.00165131
0.00100966
0.000623328
0.000412989
0.000303346
0.000247369
0.000216
0.000194897
0.000177703
0.000162497
0.000149411
0.00013897
0.000131376
0.000126494
0.00012405
0.000123837
0.00012589
0.000130624
0.00013904
0.000152779
0.000174179
0.000206431
0.00025382
0.00032166
0.000414559
0.000531558
0.000664228
0.000752433
0.000828339
0.000826343
0.000599334
0.00260322
0.00271296
0.00291851
0.00367161
0.00308959
0.00258998
0.0022173
0.00180024
0.0013804
0.00101654
0.000737846
0.000553542
0.000440979
0.000370334
0.000321254
0.000282569
0.000248433
0.000216671
0.000187678
0.000162837
0.00014312
0.000128586
0.000118647
0.000112573
0.000109877
0.000110495
0.000114801
0.000123508
0.000137576
0.000158176
0.000186765
0.000225309
0.000276503
0.000343776
0.000431074
0.000547205
0.000573359
0.000515359
0.000429373
0.000341831
)
;

boundaryField
{
    floor
    {
        Cmu             0.09;
        kappa           0.41;
        E               9.8;
        type            epsilonWallFunction;
        value           nonuniform List<scalar> 
29
(
0.000271303
5.23103e-05
8.6232e-05
0.000133254
0.000159067
0.000156829
0.000142957
0.000117756
9.45393e-05
7.6364e-05
6.25141e-05
5.19022e-05
4.36758e-05
3.71856e-05
3.2005e-05
2.7741e-05
2.4055e-05
2.0634e-05
1.79329e-05
1.34557e-05
1.34557e-05
2.37729e-05
3.38463e-05
4.32356e-05
0.000271303
5.23103e-05
4.98664e-05
0.000195932
0.000919521
)
;
    }
    ceiling
    {
        Cmu             0.09;
        kappa           0.41;
        E               9.8;
        type            epsilonWallFunction;
        value           nonuniform List<scalar> 
43
(
0.00260322
0.00271296
0.00291851
0.00367161
0.00308959
0.00258998
0.0022173
0.00180024
0.0013804
0.00101654
0.000737846
0.000553542
0.000440979
0.000370334
0.000321254
0.000282569
0.000248433
0.000216671
0.000187678
0.000162837
0.00014312
0.000128586
0.000118647
0.000112573
0.000109877
0.000110495
0.000114801
0.000123508
0.000137576
0.000158176
0.000186765
0.000225309
0.000276503
0.000343776
0.000431074
0.000547205
0.000573359
0.000515359
0.000429373
0.000341831
0.0104591
0.0171111
0.00290396
)
;
    }
    sWall
    {
        Cmu             0.09;
        kappa           0.41;
        E               9.8;
        type            epsilonWallFunction;
        value           uniform 0.00260322;
    }
    nWall
    {
        Cmu             0.09;
        kappa           0.41;
        E               9.8;
        type            epsilonWallFunction;
        value           nonuniform List<scalar> 6(0.00018802 0.000217848 0.000359529 0.00056888 0.000599334 0.000341831);
    }
    sideWalls
    {
        type            empty;
    }
    glass1
    {
        Cmu             0.09;
        kappa           0.41;
        E               9.8;
        type            epsilonWallFunction;
        value           nonuniform List<scalar> 9(0.000573278 0.00136851 0.00240026 0.00376031 0.00558122 0.00806607 0.0108066 0.0113487 0.0104591);
    }
    glass2
    {
        Cmu             0.09;
        kappa           0.41;
        E               9.8;
        type            epsilonWallFunction;
        value           nonuniform List<scalar> 2(0.00124482 0.00098967);
    }
    sun
    {
        Cmu             0.09;
        kappa           0.41;
        E               9.8;
        type            epsilonWallFunction;
        value           nonuniform List<scalar> 
14
(
0.000573278
0.000761317
0.000821046
0.000953911
0.00109433
0.00124723
0.00141062
0.00153471
0.00158949
0.00155397
0.00142369
0.0012033
0.000848362
0.000495229
)
;
    }
    heatsource1
    {
        Cmu             0.09;
        kappa           0.41;
        E               9.8;
        type            epsilonWallFunction;
        value           nonuniform List<scalar> 3(7.58561e-05 0.000132035 0.00018802);
    }
    heatsource2
    {
        Cmu             0.09;
        kappa           0.41;
        E               9.8;
        type            epsilonWallFunction;
        value           nonuniform List<scalar> 4(0.000570727 0.000240736 0.000240736 0.000602958);
    }
    Table_master
    {
        Cmu             0.09;
        kappa           0.41;
        E               9.8;
        type            epsilonWallFunction;
        value           nonuniform List<scalar> 9(0.00031546 0.000207914 0.000142045 0.000100807 7.41345e-05 5.62944e-05 4.39947e-05 3.54375e-05 2.96766e-05);
    }
    Table_slave
    {
        Cmu             0.09;
        kappa           0.41;
        E               9.8;
        type            epsilonWallFunction;
        value           nonuniform List<scalar> 9(0.000464906 0.000344212 0.000269274 0.000217214 0.000178534 0.00014732 0.000120285 9.57202e-05 7.21859e-05);
    }
    inlet
    {
        type            turbulentMixingLengthDissipationRateInlet;
        mixingLength    0.01;
        phi             phi;
        k               k;
        value           uniform 0.000101881;
    }
    outlet
    {
        type            zeroGradient;
    }
}


// ************************************************************************* //
