/*--------------------------------*- C++ -*----------------------------------*\
  =========                 |
  \\      /  F ield         | OpenFOAM: The Open Source CFD Toolbox
   \\    /   O peration     | Website:  https://openfoam.org
    \\  /    A nd           | Version:  6
     \\/     M anipulation  |
\*---------------------------------------------------------------------------*/
FoamFile
{
    version     2.0;
    format      ascii;
    class       volScalarField;
    location    "100";
    object      alphat;
}
// * * * * * * * * * * * * * * * * * * * * * * * * * * * * * * * * * * * * * //

dimensions      [1 -1 -1 0 0 0 0];

internalField   nonuniform List<scalar> 
459
(
0.000907571
0.000919925
0.0007744
0.000792444
0.000820463
0.000849075
0.000877699
0.000906869
0.000937934
0.000965088
0.000985939
0.000997983
0.000999059
0.000987996
0.000959594
0.000608516
0.000686027
0.000679037
0.000531478
0.000370164
0.00031651
0.00029952
0.000295561
0.00028793
0.000277496
0.000270063
0.000268521
0.000265526
0.000273364
0.000371963
0.000614439
0.00080722
0.000806022
0.000687117
0.00165502
0.00304676
0.00190724
0.00288254
0.00317941
0.00339694
0.00361638
0.00381632
0.00396378
0.00407321
0.00411089
0.00403253
0.00376984
0.00321568
0.00226178
0.00101855
0.000737333
0.000728824
0.00159177
0.00168488
0.00147878
0.00104501
0.000692974
0.00058011
0.000576653
0.000477638
0.000442058
0.000434263
0.000445572
0.000487457
0.000593929
0.000957481
0.00155662
0.00212269
0.00220393
0.000800919
0.00229558
0.00535194
0.0021159
0.00369921
0.00466817
0.00495487
0.00515441
0.00531688
0.00542998
0.0054963
0.00547598
0.00531312
0.00492962
0.00423741
0.00321693
0.00206659
0.00107931
0.00112705
0.00278233
0.00233852
0.00192271
0.00157827
0.00122066
0.000471772
0.00036243
0.000296624
0.000262497
0.000286779
0.000356709
0.000449833
0.000564374
0.000769513
0.00196937
0.00262987
0.00202062
0.000897749
0.00287996
0.00810066
0.00289322
0.00357249
0.00531241
0.00577542
0.00599319
0.00616566
0.00630232
0.00640844
0.00646792
0.00642137
0.00616984
0.0055826
0.00455857
0.00319764
0.00194039
0.00129982
0.00253246
0.00247973
0.00218739
0.00189574
0.00164394
0.00135011
0.00109483
0.00113607
0.00118929
0.00125248
0.00132459
0.00140376
0.00150081
0.0015489
0.00154784
0.00210412
0.0025706
0.00298955
0.00139593
0.00340686
0.010948
0.00454924
0.00342196
0.00519943
0.00596358
0.00629183
0.00653315
0.00674133
0.00693392
0.00717753
0.00744134
0.00765584
0.00773041
0.007577
0.00715288
0.00651668
0.00579674
0.0052104
0.00483799
0.00469298
0.00462126
0.00453966
0.00448195
0.00446546
0.00455238
0.00471834
0.00494762
0.0052053
0.00543902
0.00559765
0.00561534
0.00547442
0.00527803
0.00482059
0.0042268
0.00294652
0.00143652
0.0012572
0.00130848
0.00389264
0.0134698
0.00757093
0.00447027
0.00456366
0.00532983
0.00591496
0.00632688
0.00661328
0.00683346
0.00718593
0.00765897
0.00819079
0.00868656
0.0090359
0.00913917
0.00894967
0.00851173
0.00794929
0.00739436
0.00693507
0.00660197
0.00635944
0.00616696
0.00600502
0.00589917
0.00588156
0.00595145
0.00606409
0.00614803
0.00615108
0.00606123
0.00587872
0.00573578
0.0057143
0.00535822
0.00462772
0.00349659
0.00282071
0.00144819
0.00430693
0.0151258
0.0116144
0.00778803
0.00545697
0.00485203
0.00521567
0.00576257
0.00614783
0.00633715
0.00665288
0.00714039
0.00778274
0.00849915
0.00915411
0.00958808
0.00970853
0.00952464
0.00912488
0.00863243
0.0081543
0.00774951
0.00741792
0.00713044
0.00686332
0.00663158
0.00647823
0.00642578
0.00642929
0.00639362
0.00625515
0.00602323
0.00575414
0.00557193
0.00567333
0.0060455
0.00600457
0.00536408
0.00456352
0.00175151
0.00433218
0.0136917
0.012235
0.0109834
0.00870073
0.00694179
0.00609102
0.00589054
0.00599815
0.00603189
0.00612002
0.00636759
0.00682214
0.00748462
0.00827124
0.00894689
0.00934829
0.00944551
0.00928116
0.00894965
0.00855444
0.00817248
0.00783819
0.00755586
0.00732304
0.00715106
0.00705657
0.0070334
0.00701686
0.0068899
0.00659288
0.006181
0.00571088
0.00524588
0.00493642
0.00480618
0.00451061
0.00400022
0.00346745
0.00178302
0.00414556
0.00479052
0.00896328
0.00978535
0.00914811
0.00809889
0.00714748
0.00646304
0.00604514
0.00579257
0.00569158
0.0057314
0.00592195
0.00629445
0.00685484
0.00750783
0.00808626
0.0084552
0.00857051
0.00847282
0.00824394
0.00796416
0.00768969
0.00745476
0.0072893
0.00724208
0.00737478
0.00765509
0.00786369
0.00780202
0.0074047
0.00684706
0.0062386
0.00542755
0.00448361
0.00373675
0.00321843
0.00288444
0.0026629
0.0020137
0.0193576
0.0185891
0.0117447
0.00933277
0.00798128
0.00709029
0.00648024
0.00605513
0.00576547
0.00559324
0.00553693
0.0056133
0.00584604
0.00622817
0.00668638
0.00710182
0.00737844
0.00748757
0.00745832
0.00734379
0.00719566
0.00705578
0.00696094
0.00695969
0.00713953
0.00761431
0.00833331
0.0088863
0.00885564
0.00840057
0.00847124
0.00917796
0.00925075
0.00842405
0.00729001
0.00637869
0.00589325
0.00210123
0.00789832
0.0158605
0.0113255
0.0092001
0.00793884
0.00703714
0.00635488
0.00583244
0.00543585
0.00515371
0.00495194
0.00484584
0.0048561
0.00498971
0.00522702
0.00551604
0.00579012
0.00599866
0.00612418
0.00617831
0.00618814
0.00618407
0.00619244
0.00623848
0.00637006
0.00667709
0.00719136
0.00759189
0.00765231
0.00740158
0.00706362
0.00793189
0.00832447
0.00821269
0.00787914
0.00748386
0.00576223
0.00210298
0.00426043
0.00501563
0.00596199
0.00469591
0.00392082
0.00339564
0.00298297
0.00265678
0.00239387
0.00217887
0.00200151
0.00185436
0.0017352
0.00163901
0.00156259
0.00150457
0.00146412
0.00143983
0.00142885
0.00142715
0.0014306
0.00143601
0.00144172
0.00144742
0.00145374
0.00146209
0.00147544
0.00149922
0.00153729
0.00160354
0.00165703
0.0016232
0.0016063
0.00170145
0.00196845
0.00218859
0.00226563
0.00218826
0.00206067
0.00187069
)
;

boundaryField
{
    floor
    {
        type            compressible::alphatWallFunction;
        Prt             0.85;
        value           nonuniform List<scalar> 
29
(
0.000136413
8.55016e-05
9.69984e-05
9.59522e-05
7.3867e-05
4.88593e-05
4.02366e-05
3.74616e-05
3.68099e-05
3.55563e-05
3.38371e-05
3.26048e-05
3.23419e-05
3.18406e-05
3.31477e-05
4.91445e-05
8.63951e-05
0.000114657
0.000114472
9.7129e-05
9.71279e-05
0.000113694
0.000127636
0.000196778
0.000136412
8.55005e-05
0.000103249
0.000159863
0.000183654
)
;
    }
    ceiling
    {
        type            compressible::alphatWallFunction;
        Prt             0.85;
        value           nonuniform List<scalar> 
43
(
0.000558745
0.000648898
0.000760002
0.00061095
0.00051774
0.00045351
0.000402332
0.000361357
0.000327947
0.000300334
0.000277335
0.000258087
0.000242378
0.00022961
0.000219408
0.000211625
0.00020618
0.000202901
0.000201417
0.000201186
0.000201651
0.000202381
0.00020315
0.000203916
0.000204768
0.000205891
0.000207686
0.000210883
0.000215988
0.00022485
0.0002319
0.00022726
0.000225038
0.000237809
0.000273069
0.000301585
0.000311454
0.000301475
0.000284939
0.00026014
0.000545011
0.000622282
0.000982305
)
;
    }
    sWall
    {
        type            compressible::alphatWallFunction;
        Prt             0.85;
        value           uniform 0.000557498;
    }
    nWall
    {
        type            compressible::alphatWallFunction;
        Prt             0.85;
        value           nonuniform List<scalar> 6(0.000184543 0.000203475 0.000243939 0.00028968 0.000289926 0.000259698);
    }
    sideWalls
    {
        type            empty;
    }
    glass1
    {
        type            compressible::alphatWallFunction;
        Prt             0.85;
        value           nonuniform List<scalar> 9(0.000124823 0.000225419 0.000307916 0.000381251 0.00044618 0.000505212 0.000555028 0.000558249 0.000536218);
    }
    glass2
    {
        type            compressible::alphatWallFunction;
        Prt             0.85;
        value           nonuniform List<scalar> 2(0.000245552 0.000275601);
    }
    sun
    {
        type            compressible::alphatWallFunction;
        Prt             0.85;
        value           nonuniform List<scalar> 
14
(
0.000129065
0.000130797
0.000109898
0.000112513
0.000116559
0.000120674
0.000124775
0.000128937
0.000133352
0.000137198
0.000140141
0.000141838
0.000141988
0.000140427
)
;
    }
    heatsource1
    {
        type            compressible::alphatWallFunction;
        Prt             0.85;
        value           nonuniform List<scalar> 3(0.000202573 0.000178152 0.00018516);
    }
    heatsource2
    {
        type            compressible::alphatWallFunction;
        Prt             0.85;
        value           nonuniform List<scalar> 4(0.000145017 0.00010478 0.000104778 0.00015352);
    }
    Table_master
    {
        type            compressible::alphatWallFunction;
        Prt             0.85;
        value           nonuniform List<scalar> 9(6.49489e-05 4.78168e-05 3.71977e-05 3.1584e-05 3.55983e-05 4.69253e-05 6.15914e-05 7.91205e-05 0.000109474);
    }
    Table_slave
    {
        type            compressible::alphatWallFunction;
        Prt             0.85;
        value           nonuniform List<scalar> 9(0.000155698 0.000161435 0.000168804 0.000177503 0.000187372 0.000198141 0.000211253 0.000217718 0.000217579);
    }
    inlet
    {
        type            fixedValue;
        value           uniform 1.94e-05;
    }
    outlet
    {
        type            zeroGradient;
    }
}


// ************************************************************************* //
