/*--------------------------------*- C++ -*----------------------------------*\
  =========                 |
  \\      /  F ield         | OpenFOAM: The Open Source CFD Toolbox
   \\    /   O peration     | Website:  https://openfoam.org
    \\  /    A nd           | Version:  6
     \\/     M anipulation  |
\*---------------------------------------------------------------------------*/
FoamFile
{
    version     2.0;
    format      ascii;
    class       volScalarField;
    location    "300";
    object      epsilon;
}
// * * * * * * * * * * * * * * * * * * * * * * * * * * * * * * * * * * * * * //

dimensions      [0 2 -3 0 0 0 0];

internalField   nonuniform List<scalar> 
459
(
0.000464172
0.000607461
0.000643647
0.000742
0.000841969
0.000943914
0.00105251
0.00116171
0.00123959
0.00126718
0.0012302
0.00112616
0.000966345
0.000778338
0.000599509
3.87985e-05
6.98648e-05
0.000100822
0.00010098
9.17751e-05
7.99273e-05
6.59652e-05
5.37111e-05
4.39838e-05
3.6406e-05
3.04775e-05
2.57906e-05
2.20514e-05
1.90259e-05
1.65006e-05
1.42912e-05
1.22201e-05
1.08713e-05
8.21454e-06
0.00116589
0.00165729
0.000575319
0.00055979
0.000588875
0.000635852
0.000704286
0.000790992
0.000869516
0.000914597
0.000907901
0.00084583
0.00073722
0.00060696
0.000511699
0.000647498
0.000113781
4.75466e-05
0.000116138
0.000124036
0.000113546
9.72855e-05
8.19529e-05
7.42108e-05
6.00805e-05
4.75395e-05
3.76104e-05
2.99681e-05
2.41139e-05
1.96257e-05
1.61951e-05
1.367e-05
1.21162e-05
1.14015e-05
2.56147e-05
1.80969e-05
0.00211273
0.00401104
0.000715122
0.000539093
0.000568846
0.00064393
0.000753129
0.000884584
0.00099846
0.00106192
0.00105968
0.000995736
0.000881504
0.00074449
0.000622581
0.000562301
0.000676107
0.000361585
0.000262412
0.00020074
0.000156874
0.000124661
0.000105694
0.000194009
0.000132609
9.39916e-05
6.90114e-05
5.23207e-05
4.08146e-05
3.26706e-05
2.68153e-05
2.26318e-05
1.71496e-05
1.42509e-05
4.59166e-05
2.79324e-05
0.0034002
0.00826266
0.00113616
0.000556651
0.000568594
0.000678962
0.000853173
0.00105116
0.00119461
0.00125802
0.00124133
0.00115913
0.00102114
0.000859721
0.000714259
0.000612723
0.000587456
0.00111752
0.000624909
0.000378368
0.000255524
0.000185511
0.000142139
0.000122335
0.000281188
0.000211216
0.000168914
0.000140697
0.000119335
0.000101821
8.66998e-05
7.25545e-05
5.82363e-05
3.40192e-05
2.19682e-05
7.26568e-05
3.76385e-05
0.00516165
0.0146483
0.00224883
0.000688888
0.000611502
0.000767028
0.00108794
0.00136209
0.0015005
0.00152974
0.0014756
0.00135485
0.00118043
0.000976864
0.000775701
0.000604013
0.000479732
0.000423854
0.000344598
0.00027287
0.000215226
0.000170698
0.000137201
0.000114851
0.000110834
0.000102436
9.39909e-05
8.57739e-05
7.73981e-05
6.88201e-05
6.04295e-05
5.25508e-05
4.53299e-05
3.56701e-05
2.6909e-05
5.34884e-05
4.18518e-05
6.98789e-05
0.000123649
0.000175334
0.00759924
0.0216861
0.00503524
0.00137976
0.000984317
0.00119967
0.00173516
0.00194494
0.00197875
0.0019214
0.001804
0.00162689
0.00139355
0.00112538
0.000858145
0.000628176
0.000460198
0.000357801
0.000291866
0.000239745
0.000194922
0.000158098
0.000129792
0.000110409
0.000100409
9.52757e-05
9.16793e-05
8.77822e-05
8.25436e-05
7.51345e-05
6.55543e-05
5.57238e-05
4.67718e-05
3.87023e-05
3.32766e-05
4.19929e-05
4.36361e-05
5.39493e-05
0.000227878
0.000200048
0.0103779
0.0258881
0.0102592
0.0044324
0.00318536
0.0032276
0.00314223
0.00293857
0.00270848
0.00248651
0.00225668
0.00198643
0.00166235
0.00130499
0.000957181
0.000665008
0.00045923
0.000335887
0.000263349
0.000212802
0.000172505
0.000141245
0.00011907
0.000105668
0.000100097
9.94512e-05
0.00010068
0.000102184
0.000102913
0.000101354
9.44228e-05
8.37426e-05
7.31614e-05
6.41106e-05
6.05321e-05
6.71486e-05
8.5202e-05
0.000135751
0.00031048
0.000302922
0.0109724
0.0278618
0.0156607
0.0108617
0.00834133
0.00647137
0.00512329
0.00422136
0.00362925
0.00320907
0.00283916
0.00243394
0.00196953
0.00148117
0.00102548
0.000659255
0.000422058
0.000290613
0.000218383
0.000174689
0.000143393
0.000121691
0.000108443
0.000102504
0.00010251
0.000106718
0.000113792
0.000123389
0.000135658
0.000150562
0.000167127
0.000178341
0.000188344
0.000209127
0.000251999
0.000378136
0.000695092
0.00130529
0.00379719
0.00112912
0.0101129
0.0167992
0.013351
0.0101499
0.00787671
0.00638248
0.00543868
0.00485035
0.00443753
0.00404186
0.00355062
0.00291793
0.0021992
0.00150992
0.000923489
0.000499165
0.000308192
0.000217104
0.000167922
0.000137431
0.00011717
0.000104673
9.85628e-05
9.77352e-05
0.000101284
0.000108589
0.000119597
0.000134999
0.000156158
0.00018504
0.000224251
0.000277625
0.000351188
0.000460909
0.00062171
0.000839402
0.00108889
0.00130817
0.00147914
0.000933244
0.0035512
0.00545933
0.00660543
0.00681157
0.00669609
0.00633516
0.00568669
0.00478368
0.00367904
0.00246064
0.0014288
0.000817233
0.000466821
0.000281253
0.000191652
0.000146281
0.000120818
0.000105228
9.54979e-05
8.99721e-05
8.77363e-05
8.81114e-05
9.08147e-05
9.59671e-05
0.000104136
0.000116266
0.000133793
0.000158816
0.000194387
0.000244934
0.000315553
0.00041297
0.000540591
0.000687343
0.000816214
0.000877626
0.000834916
0.00053483
0.00272245
0.00644373
0.00712672
0.00599511
0.0053037
0.00452687
0.00356595
0.00261199
0.00180164
0.00115184
0.000686241
0.000411594
0.000263783
0.000189641
0.000154028
0.000136641
0.000127722
0.000122785
0.000119802
0.000117867
0.000116616
0.000116061
0.000116482
0.000118489
0.000122987
0.000130885
0.000143419
0.000162452
0.000190731
0.000231786
0.000290213
0.000370548
0.00047313
0.000590334
0.000676271
0.000767445
0.000771403
0.000566753
0.00197927
0.00235393
0.0026449
0.00332249
0.00301745
0.00269947
0.00249307
0.00219404
0.00180464
0.00139218
0.00101343
0.000701767
0.000473741
0.000328161
0.000241837
0.00019012
0.000157235
0.000135012
0.000119519
0.000108765
0.000101577
9.72044e-05
9.52156e-05
9.54645e-05
9.81429e-05
0.000103626
0.000111968
0.000123651
0.000139593
0.000161066
0.000188784
0.000224184
0.000269426
0.000327195
0.000399716
0.000499866
0.000531901
0.000490039
0.000406559
0.000327904
)
;

boundaryField
{
    floor
    {
        Cmu             0.09;
        kappa           0.41;
        E               9.8;
        type            epsilonWallFunction;
        value           nonuniform List<scalar> 
29
(
0.000599509
3.87985e-05
6.98648e-05
0.000100822
0.00010098
9.17751e-05
7.99273e-05
6.59652e-05
5.37111e-05
4.39838e-05
3.6406e-05
3.04775e-05
2.57906e-05
2.20514e-05
1.90259e-05
1.65006e-05
1.42912e-05
1.22201e-05
1.08713e-05
8.21454e-06
8.21454e-06
1.80969e-05
2.79324e-05
3.76385e-05
0.000599509
3.87985e-05
4.75466e-05
0.000361585
0.00111752
)
;
    }
    ceiling
    {
        Cmu             0.09;
        kappa           0.41;
        E               9.8;
        type            epsilonWallFunction;
        value           nonuniform List<scalar> 
43
(
0.00197927
0.00235393
0.0026449
0.00332249
0.00301745
0.00269947
0.00249307
0.00219404
0.00180464
0.00139218
0.00101343
0.000701767
0.000473741
0.000328161
0.000241837
0.00019012
0.000157235
0.000135012
0.000119519
0.000108765
0.000101577
9.72044e-05
9.52156e-05
9.54645e-05
9.81429e-05
0.000103626
0.000111968
0.000123651
0.000139593
0.000161066
0.000188784
0.000224184
0.000269426
0.000327195
0.000399716
0.000499866
0.000531901
0.000490039
0.000406559
0.000327904
0.0101129
0.0167992
0.00272245
)
;
    }
    sWall
    {
        Cmu             0.09;
        kappa           0.41;
        E               9.8;
        type            epsilonWallFunction;
        value           uniform 0.00197927;
    }
    nWall
    {
        Cmu             0.09;
        kappa           0.41;
        E               9.8;
        type            epsilonWallFunction;
        value           nonuniform List<scalar> 6(0.000175334 0.000200048 0.000302922 0.00053483 0.000566753 0.000327904);
    }
    sideWalls
    {
        type            empty;
    }
    glass1
    {
        Cmu             0.09;
        kappa           0.41;
        E               9.8;
        type            epsilonWallFunction;
        value           nonuniform List<scalar> 9(0.000464172 0.00116589 0.00211273 0.0034002 0.00516165 0.00759924 0.0103779 0.0109724 0.0101129);
    }
    glass2
    {
        Cmu             0.09;
        kappa           0.41;
        E               9.8;
        type            epsilonWallFunction;
        value           nonuniform List<scalar> 2(0.00112912 0.000933244);
    }
    sun
    {
        Cmu             0.09;
        kappa           0.41;
        E               9.8;
        type            epsilonWallFunction;
        value           nonuniform List<scalar> 
14
(
0.000464172
0.000607461
0.000643647
0.000742
0.000841969
0.000943914
0.00105251
0.00116171
0.00123959
0.00126718
0.0012302
0.00112616
0.000966345
0.000778338
)
;
    }
    heatsource1
    {
        Cmu             0.09;
        kappa           0.41;
        E               9.8;
        type            epsilonWallFunction;
        value           nonuniform List<scalar> 3(6.98789e-05 0.000123649 0.000175334);
    }
    heatsource2
    {
        Cmu             0.09;
        kappa           0.41;
        E               9.8;
        type            epsilonWallFunction;
        value           nonuniform List<scalar> 4(0.000647498 0.000113781 0.000113781 0.000676107);
    }
    Table_master
    {
        Cmu             0.09;
        kappa           0.41;
        E               9.8;
        type            epsilonWallFunction;
        value           nonuniform List<scalar> 9(0.000194009 0.000132609 9.39916e-05 6.90114e-05 5.23207e-05 4.08146e-05 3.26706e-05 2.68153e-05 2.26318e-05);
    }
    Table_slave
    {
        Cmu             0.09;
        kappa           0.41;
        E               9.8;
        type            epsilonWallFunction;
        value           nonuniform List<scalar> 9(0.000281188 0.000211216 0.000168914 0.000140697 0.000119335 0.000101821 8.66998e-05 7.25545e-05 5.82363e-05);
    }
    inlet
    {
        type            turbulentMixingLengthDissipationRateInlet;
        mixingLength    0.01;
        phi             phi;
        k               k;
        value           uniform 0.000101881;
    }
    outlet
    {
        type            zeroGradient;
    }
}


// ************************************************************************* //
