// -*- C++ -*-
// File generated by PyFoam - sorry for the ugliness

FoamFile
{
 version 2.0;
 format ascii;
 class volVectorField;
 location "550";
 object U;
}

dimensions [ 0 1 -1 0 0 0 0 ];

internalField nonuniform List<vector> 459
(
  (0.0276736 0.071248 0)
  (-0.138176 0.0221848 0)
  (-0.160925 0.0167121 0)
  (-0.189653 0.0123797 0)
  (-0.212201 0.00760294 0)
  (-0.227863 0.00251119 0)
  (-0.235491 -0.00302028 0)
  (-0.233483 -0.00911847 0)
  (-0.220949 -0.0158662 0)
  (-0.197966 -0.0225843 0)
  (-0.166077 -0.028268 0)
  (-0.128359 -0.032029 0)
  (-0.0884555 -0.0331269 0)
  (-0.048099 -0.031136 0)
  (-0.00246763 -0.0278388 0)
  (-0.119631 0.000550328 0)
  (0.0404808 -0.00367023 0)
  (0.0210783 -0.00344067 0)
  (0.0188391 -0.00307094 0)
  (0.0230598 -0.00166446 0)
  (0.0257779 -0.000536637 0)
  (0.0265323 -0.000704202 0)
  (0.0271322 -0.000972183 0)
  (0.0280377 -0.000956202 0)
  (0.0289608 -0.000836466 0)
  (0.0296595 -0.000712615 0)
  (0.0300325 -0.000570936 0)
  (0.0299821 -0.000327835 0)
  (0.0292566 0.00018742 0)
  (0.0273675 0.00130269 0)
  (0.0236394 0.00339584 0)
  (0.0190874 0.00478589 0)
  (-0.0492609 0.0115173 0)
  (0.144431 -0.0100603 0)
  (0.171416 0.145787 0)
  (-0.131282 0.0575183 0)
  (-0.132438 0.0479222 0)
  (-0.162276 0.0393968 0)
  (-0.18462 0.0297191 0)
  (-0.200379 0.0188514 0)
  (-0.208554 0.0063353 0)
  (-0.207457 -0.00817213 0)
  (-0.196257 -0.0240238 0)
  (-0.175519 -0.039033 0)
  (-0.147176 -0.0507207 0)
  (-0.114525 -0.057245 0)
  (-0.0814883 -0.0574392 0)
  (-0.0521393 -0.0507909 0)
  (-0.0296459 -0.0375542 0)
  (-0.0139162 -0.0172473 0)
  (-0.00637109 0.01352 0)
  (-0.1534 0.00167062 0)
  (0.0398612 -0.0186376 0)
  (0.0292768 -0.0124989 0)
  (0.0310738 -0.00780304 0)
  (0.0348052 -0.00314538 0)
  (0.0360464 0.000349925 0)
  (0.0356011 -0.000420359 0)
  (0.0357448 -0.000982968 0)
  (0.036162 -0.000806585 0)
  (0.036478 -0.000349356 0)
  (0.0366958 0.000185071 0)
  (0.036885 0.000846254 0)
  (0.0370184 0.00176442 0)
  (0.03701 0.00314019 0)
  (0.0364224 0.00560578 0)
  (0.0334921 0.0113295 0)
  (0.0327744 0.0157692 0)
  (-0.0478779 0.020332 0)
  (0.204486 -0.000648607 0)
  (0.304316 0.218992 0)
  (-0.146223 0.0920598 0)
  (-0.101391 0.0779951 0)
  (-0.130733 0.0624333 0)
  (-0.150768 0.0462254 0)
  (-0.165562 0.0284183 0)
  (-0.173927 0.00802924 0)
  (-0.173361 -0.015396 0)
  (-0.1625 -0.0406972 0)
  (-0.142799 -0.0638592 0)
  (-0.116774 -0.0807476 0)
  (-0.0877776 -0.0888618 0)
  (-0.0590757 -0.086994 0)
  (-0.0337849 -0.0751015 0)
  (-0.0136687 -0.0539381 0)
  (0.00159267 -0.0262038 0)
  (0.00265148 0.00958002 0)
  (-0.0638728 -0.0192875 0)
  (0.0359402 -0.0276662 0)
  (0.048493 -0.0224942 0)
  (0.049868 -0.0137212 0)
  (0.0509395 -0.00497416 0)
  (0.0494075 0.00188936 0)
  (0.0444243 -0.00220994 0)
  (0.042943 -0.00314716 0)
  (0.0422433 -0.00366533 0)
  (0.0413196 -0.00397845 0)
  (0.040401 -0.00421527 0)
  (0.0397925 -0.00435488 0)
  (0.039727 -0.00427087 0)
  (0.0406868 -0.00363125 0)
  (0.0437836 -0.000815557 0)
  (0.0436443 0.0134727 0)
  (0.0446376 0.0225454 0)
  (-0.0245023 0.0271802 0)
  (0.222531 0.0243441 0)
  (0.425788 0.278484 0)
  (-0.175938 0.12262 0)
  (-0.0675483 0.103967 0)
  (-0.0962331 0.0824775 0)
  (-0.1112 0.0619043 0)
  (-0.12309 0.0391024 0)
  (-0.130569 0.0119899 0)
  (-0.129463 -0.0204586 0)
  (-0.117607 -0.0557524 0)
  (-0.0987477 -0.0866889 0)
  (-0.0757493 -0.107941 0)
  (-0.0515998 -0.11724 0)
  (-0.0282871 -0.113792 0)
  (-0.0076048 -0.0984124 0)
  (0.0114646 -0.07193 0)
  (0.0291637 -0.0423704 0)
  (0.0513919 -0.0204138 0)
  (0.0801125 -0.0752413 0)
  (0.0888552 -0.0478195 0)
  (0.086064 -0.0364378 0)
  (0.077646 -0.0265629 0)
  (0.0711171 -0.0156432 0)
  (0.0684931 -0.00552627 0)
  (0.0684031 0.00354596 0)
  (0.070142 0.00318824 0)
  (0.0675768 0.00143377 0)
  (0.0642642 0.000460924 0)
  (0.0614174 -5.514e-05 0)
  (0.0587542 -0.000311954 0)
  (0.0558392 -0.0003272 0)
  (0.0523077 -3.20837e-05 0)
  (0.0475762 0.000751597 0)
  (0.0401009 0.00230819 0)
  (0.0366917 0.0166928 0)
  (0.0445338 0.0262674 0)
  (-0.00856332 0.0303132 0)
  (0.234855 0.056044 0)
  (0.53353 0.324845 0)
  (-0.213047 0.147528 0)
  (-0.0322856 0.120133 0)
  (-0.0597244 0.0951256 0)
  (-0.0673495 0.0723278 0)
  (-0.0739485 0.0465951 0)
  (-0.0787094 0.0146364 0)
  (-0.0742436 -0.0257889 0)
  (-0.0597321 -0.0706345 0)
  (-0.0430452 -0.106845 0)
  (-0.0252746 -0.129921 0)
  (-0.00846558 -0.138844 0)
  (0.00713248 -0.13319 0)
  (0.020292 -0.115519 0)
  (0.0330658 -0.0894498 0)
  (0.0469045 -0.0605808 0)
  (0.063324 -0.0364009 0)
  (0.0764994 -0.0277591 0)
  (0.0796105 -0.0239081 0)
  (0.0738342 -0.0207486 0)
  (0.0670443 -0.0152209 0)
  (0.0617576 -0.00805463 0)
  (0.0584878 -0.00129134 0)
  (0.0566496 0.00349257 0)
  (0.0549241 0.00417158 0)
  (0.0522972 0.00407384 0)
  (0.0492974 0.0041648 0)
  (0.0464873 0.00436118 0)
  (0.0438603 0.00466088 0)
  (0.0412531 0.00521591 0)
  (0.0385652 0.00621857 0)
  (0.035778 0.007914 0)
  (0.0328709 0.0106658 0)
  (0.0321355 0.0170542 0)
  (0.0413863 0.0224233 0)
  (0.0175844 0.0205196 0)
  (0.113594 0.0533565 0)
  (0.0826456 0.0530718 0)
  (-0.0959639 0.0562583 0)
  (0.333814 -0.0215599 0)
  (0.615204 0.36363 0)
  (-0.250942 0.164536 0)
  (-0.0025135 0.120409 0)
  (-0.0223412 0.0996116 0)
  (-0.0219309 0.0773188 0)
  (-0.0220383 0.0508254 0)
  (-0.0225744 0.0167087 0)
  (-0.00725099 -0.0325498 0)
  (0.00995302 -0.0866833 0)
  (0.0215888 -0.123055 0)
  (0.0312595 -0.144095 0)
  (0.0383452 -0.15047 0)
  (0.0431784 -0.143238 0)
  (0.0467501 -0.124736 0)
  (0.0502747 -0.0988278 0)
  (0.0546908 -0.0710242 0)
  (0.0600849 -0.0474607 0)
  (0.0630598 -0.0337609 0)
  (0.060734 -0.0261613 0)
  (0.0548151 -0.0190818 0)
  (0.0485298 -0.0117503 0)
  (0.0432756 -0.00472111 0)
  (0.0391832 0.00121207 0)
  (0.0367823 0.00517225 0)
  (0.034956 0.00660898 0)
  (0.0330057 0.00672654 0)
  (0.0309115 0.00657199 0)
  (0.0289025 0.00646304 0)
  (0.0270423 0.00653438 0)
  (0.0253232 0.00693315 0)
  (0.0237959 0.00779815 0)
  (0.0226016 0.00925345 0)
  (0.0218756 0.0113361 0)
  (0.0225908 0.0141697 0)
  (0.0276656 0.0154431 0)
  (0.0159458 0.00719088 0)
  (0.0383257 0.0321634 0)
  (0.0420822 0.0549502 0)
  (-0.134493 0.0726769 0)
  (0.348593 -0.0402131 0)
  (0.658826 0.397984 0)
  (-0.273619 0.153192 0)
  (0.0204658 0.0852432 0)
  (0.0230511 0.0907117 0)
  (0.0287334 0.0767026 0)
  (0.0347607 0.0480904 0)
  (0.0461381 0.00512722 0)
  (0.0711182 -0.0515057 0)
  (0.084918 -0.0983936 0)
  (0.0898678 -0.130481 0)
  (0.0893332 -0.147681 0)
  (0.0847335 -0.151001 0)
  (0.0774383 -0.14189 0)
  (0.0691103 -0.122736 0)
  (0.0612226 -0.0972042 0)
  (0.0546867 -0.0702324 0)
  (0.0495404 -0.046937 0)
  (0.0443106 -0.0308282 0)
  (0.037815 -0.0203904 0)
  (0.0308377 -0.0124678 0)
  (0.0245849 -0.00575015 0)
  (0.0195202 -2.65826e-05 0)
  (0.0161766 0.0043086 0)
  (0.0145058 0.0070051 0)
  (0.0135003 0.00809273 0)
  (0.0125583 0.00816859 0)
  (0.0115222 0.00793777 0)
  (0.0104756 0.00772773 0)
  (0.00951863 0.00767418 0)
  (0.00876175 0.00786789 0)
  (0.00836489 0.00836951 0)
  (0.00853223 0.00921568 0)
  (0.00939923 0.010369 0)
  (0.0112507 0.0117608 0)
  (0.0143463 0.012709 0)
  (0.00808904 0.0113636 0)
  (0.0130997 0.033612 0)
  (0.0319342 0.0739192 0)
  (-0.182989 0.0894406 0)
  (0.437451 -0.0477825 0)
  (0.751766 0.402806 0)
  (-0.0840909 0.125178 0)
  (0.0798307 0.0168186 0)
  (0.118661 0.0208464 0)
  (0.116926 0.0217891 0)
  (0.119657 -0.00291553 0)
  (0.145198 -0.0416985 0)
  (0.164199 -0.0775681 0)
  (0.167714 -0.107529 0)
  (0.159671 -0.128156 0)
  (0.144331 -0.138015 0)
  (0.124541 -0.137045 0)
  (0.102655 -0.1261 0)
  (0.0808909 -0.107067 0)
  (0.0610839 -0.0829731 0)
  (0.0443276 -0.0580133 0)
  (0.0307517 -0.0365957 0)
  (0.0197458 -0.0214085 0)
  (0.0107193 -0.0116805 0)
  (0.0035165 -0.00500951 0)
  (-0.00212687 0.000204423 0)
  (-0.00566634 0.00397959 0)
  (-0.0073379 0.00654175 0)
  (-0.00793688 0.00814263 0)
  (-0.00805475 0.00888567 0)
  (-0.0081149 0.00902164 0)
  (-0.00825492 0.00889061 0)
  (-0.00841779 0.00869405 0)
  (-0.00847332 0.00852407 0)
  (-0.00825012 0.00842165 0)
  (-0.00753686 0.00839999 0)
  (-0.00609001 0.00847919 0)
  (-0.00368536 0.00872149 0)
  (2.77875e-06 0.00939143 0)
  (0.00491628 0.0110631 0)
  (0.00705953 0.0144028 0)
  (0.0170602 0.0339763 0)
  (0.0536758 0.0749725 0)
  (-0.144854 0.0749921 0)
  (0.728729 0.00346061 0)
  (0.875471 0.404131 0)
  (0.421243 0.286706 0)
  (0.42339 0.220507 0)
  (0.409807 0.155173 0)
  (0.370233 0.105946 0)
  (0.340281 0.0585477 0)
  (0.317971 0.00988925 0)
  (0.288342 -0.0359128 0)
  (0.254667 -0.0717811 0)
  (0.218679 -0.0948764 0)
  (0.181307 -0.10533 0)
  (0.143515 -0.104658 0)
  (0.106674 -0.0947657 0)
  (0.0725573 -0.077909 0)
  (0.0430773 -0.0569685 0)
  (0.0196193 -0.0357779 0)
  (0.00209461 -0.0182787 0)
  (-0.0103095 -0.00684287 0)
  (-0.0184543 -0.000509575 0)
  (-0.0240799 0.00359763 0)
  (-0.027365 0.00640047 0)
  (-0.0288618 0.00833851 0)
  (-0.0292778 0.0097486 0)
  (-0.029006 0.0107433 0)
  (-0.028386 0.0113216 0)
  (-0.0276685 0.0115393 0)
  (-0.026948 0.0115066 0)
  (-0.0261977 0.0113075 0)
  (-0.0253285 0.0109843 0)
  (-0.0242141 0.0105461 0)
  (-0.0226954 0.00998732 0)
  (-0.0205732 0.00932493 0)
  (-0.0176007 0.00865149 0)
  (-0.01343 0.00822149 0)
  (-0.00772862 0.00859958 0)
  (-0.000334329 0.0110795 0)
  (0.015984 0.0232833 0)
  (0.0528379 0.0527802 0)
  (-0.109201 0.0440759 0)
  (0.718323 0.0450784 0)
  (0.125257 0.0694725 0)
  (0.236995 0.0984007 0)
  (0.274841 0.0783995 0)
  (0.271834 0.0454202 0)
  (0.260349 0.0132238 0)
  (0.244665 -0.0164752 0)
  (0.221023 -0.0431718 0)
  (0.189761 -0.0624732 0)
  (0.15264 -0.0719399 0)
  (0.112438 -0.0721139 0)
  (0.0722274 -0.0644896 0)
  (0.0349353 -0.0508054 0)
  (0.00352724 -0.0333168 0)
  (-0.018994 -0.0161621 0)
  (-0.0319988 -0.00391352 0)
  (-0.0397595 0.00371899 0)
  (-0.0442827 0.00740194 0)
  (-0.046598 0.00954703 0)
  (-0.0475305 0.0109482 0)
  (-0.0475325 0.0119026 0)
  (-0.0468992 0.0125525 0)
  (-0.0458242 0.0129255 0)
  (-0.0444806 0.0130051 0)
  (-0.0430112 0.0127999 0)
  (-0.0415002 0.0123507 0)
  (-0.039979 0.0116995 0)
  (-0.0384487 0.0108714 0)
  (-0.0368942 0.00986854 0)
  (-0.0352895 0.00867537 0)
  (-0.0335987 0.00726858 0)
  (-0.0318083 0.00558261 0)
  (-0.0300026 0.00332124 0)
  (-0.0280647 0.000764227 0)
  (-0.0241181 0.00127524 0)
  (-0.0139979 0.0103782 0)
  (-0.00418743 0.0315359 0)
  (-0.158264 0.0250184 0)
  (0.43727 0.0722402 0)
  (-0.0230982 0.132032 0)
  (0.0954673 0.0966853 0)
  (0.13135 0.040915 0)
  (0.150293 -0.0076512 0)
  (0.157305 -0.0525426 0)
  (0.152834 -0.0879512 0)
  (0.133589 -0.0976323 0)
  (0.105571 -0.094955 0)
  (0.0740024 -0.0898173 0)
  (0.041667 -0.0850276 0)
  (0.0109965 -0.0807135 0)
  (-0.0153285 -0.0797003 0)
  (-0.0332954 -0.0823398 0)
  (-0.0461183 -0.0847038 0)
  (-0.0538605 -0.0847368 0)
  (-0.0578253 -0.0848239 0)
  (-0.0595143 -0.0847851 0)
  (-0.0601825 -0.08498 0)
  (-0.0601518 -0.0851088 0)
  (-0.0595663 -0.0850719 0)
  (-0.0585258 -0.0848813 0)
  (-0.0571209 -0.0846155 0)
  (-0.0554522 -0.0843739 0)
  (-0.0536253 -0.0842311 0)
  (-0.051735 -0.0842302 0)
  (-0.0498592 -0.0844083 0)
  (-0.0480657 -0.0848213 0)
  (-0.0464243 -0.0855579 0)
  (-0.0450269 -0.0867365 0)
  (-0.0440358 -0.088476 0)
  (-0.0438045 -0.0908296 0)
  (-0.0449448 -0.0935275 0)
  (-0.0475318 -0.0955127 0)
  (-0.0491654 -0.0933011 0)
  (-0.047904 -0.0785032 0)
  (-0.058187 -0.049687 0)
  (-0.128612 -0.0357944 0)
  (0.347477 -0.00865842 0)
  (0.140734 -0.189142 0)
  (-0.252584 -0.0272658 0)
  (-0.163118 0.233148 0)
  (-0.0821736 0.225613 0)
  (-0.0344762 0.225876 0)
  (0.00855796 0.2486 0)
  (0.0247475 0.275002 0)
  (0.0288302 0.300871 0)
  (0.0265679 0.288586 0)
  (0.00976354 0.273995 0)
  (-0.0161686 0.270198 0)
  (-0.0351465 0.270415 0)
  (-0.0511893 0.274565 0)
  (-0.0627953 0.281631 0)
  (-0.069831 0.291165 0)
  (-0.0735306 0.300038 0)
  (-0.0747408 0.304203 0)
  (-0.0746489 0.307776 0)
  (-0.0737481 0.310286 0)
  (-0.0724154 0.312472 0)
  (-0.0708464 0.31424 0)
  (-0.0691007 0.315615 0)
  (-0.0672057 0.316665 0)
  (-0.0651939 0.317467 0)
  (-0.063125 0.318086 0)
  (-0.0610842 0.318563 0)
  (-0.0591698 0.318914 0)
  (-0.0574842 0.319158 0)
  (-0.0561312 0.319331 0)
  (-0.055211 0.31951 0)
  (-0.0548216 0.319833 0)
  (-0.0551018 0.32053 0)
  (-0.0562645 0.321903 0)
  (-0.0581924 0.323907 0)
  (-0.0593498 0.325298 0)
  (-0.0575432 0.322355 0)
  (-0.0584996 0.308777 0)
  (-0.0874726 0.289094 0)
  (-0.154284 0.287116 0)
  (0.444222 0.325673 0)
)
;

boundaryField
{
  floor
  {
    type noSlip;
  }
  ceiling
  {
    type noSlip;
  }
  sWall
  {
    type noSlip;
  }
  nWall
  {
    type noSlip;
  }
  sideWalls
  {
    type empty;
  }
  glass1
  {
    type noSlip;
  }
  glass2
  {
    type noSlip;
  }
  sun
  {
    type noSlip;
  }
  heatsource1
  {
    type noSlip;
  }
  heatsource2
  {
    type noSlip;
  }
  Table_master
  {
    type noSlip;
  }
  Table_slave
  {
    type noSlip;
  }
  inlet
  {
    type fixedValue;
    value uniform (0.277164 -0.114805 0);
  }
  outlet
  {
    type zeroGradient;
  }
} 	// ************************************************************************* //

