// -*- C++ -*-
// File generated by PyFoam - sorry for the ugliness

FoamFile
{
 version 2.0;
 format ascii;
 class volScalarField;
 location "1300";
 object T;
}

dimensions [ 0 0 0 1 0 0 0 ];

internalField nonuniform List<scalar> 459
(
  303.561
  303.303
  303.29
  303.286
  303.282
  303.278
  303.273
  303.268
  303.259
  303.248
  303.236
  303.225
  303.217
  303.213
  303.215
  303.306
  303.285
  303.277
  303.28
  303.284
  303.287
  303.291
  303.295
  303.299
  303.303
  303.307
  303.311
  303.314
  303.318
  303.322
  303.326
  303.33
  303.336
  303.354
  303.735
  303.345
  303.322
  303.325
  303.328
  303.328
  303.326
  303.319
  303.304
  303.282
  303.256
  303.232
  303.214
  303.203
  303.198
  303.196
  303.194
  303.307
  303.27
  303.264
  303.266
  303.271
  303.275
  303.277
  303.279
  303.281
  303.282
  303.284
  303.285
  303.286
  303.288
  303.291
  303.295
  303.301
  303.31
  303.339
  303.917
  303.396
  303.358
  303.368
  303.382
  303.392
  303.397
  303.391
  303.368
  303.33
  303.285
  303.245
  303.215
  303.199
  303.194
  303.194
  303.195
  303.249
  303.248
  303.255
  303.265
  303.275
  303.282
  303.282
  303.283
  303.283
  303.283
  303.283
  303.284
  303.284
  303.285
  303.286
  303.289
  303.293
  303.301
  303.332
  304.101
  303.459
  303.394
  303.41
  303.438
  303.465
  303.483
  303.48
  303.445
  303.383
  303.314
  303.255
  303.214
  303.193
  303.189
  303.192
  303.199
  303.209
  303.223
  303.241
  303.261
  303.279
  303.295
  303.307
  303.317
  303.326
  303.334
  303.341
  303.347
  303.352
  303.356
  303.359
  303.36
  303.337
  303.317
  303.309
  303.332
  304.279
  303.538
  303.436
  303.447
  303.485
  303.53
  303.569
  303.566
  303.513
  303.423
  303.33
  303.255
  303.207
  303.184
  303.182
  303.191
  303.206
  303.223
  303.244
  303.267
  303.291
  303.313
  303.332
  303.347
  303.36
  303.372
  303.381
  303.388
  303.394
  303.396
  303.395
  303.392
  303.385
  303.367
  303.342
  303.321
  303.33
  303.402
  303.449
  303.454
  304.44
  303.64
  303.509
  303.498
  303.535
  303.591
  303.641
  303.62
  303.541
  303.431
  303.323
  303.238
  303.187
  303.168
  303.174
  303.194
  303.22
  303.248
  303.277
  303.307
  303.334
  303.357
  303.377
  303.392
  303.404
  303.414
  303.422
  303.428
  303.431
  303.43
  303.426
  303.418
  303.407
  303.389
  303.364
  303.339
  303.334
  303.364
  303.381
  303.415
  304.588
  303.803
  303.672
  303.644
  303.661
  303.709
  303.71
  303.64
  303.519
  303.384
  303.266
  303.185
  303.146
  303.144
  303.168
  303.207
  303.249
  303.289
  303.326
  303.358
  303.385
  303.407
  303.423
  303.436
  303.446
  303.454
  303.459
  303.462
  303.462
  303.459
  303.451
  303.44
  303.427
  303.409
  303.386
  303.361
  303.349
  303.357
  303.367
  303.395
  304.803
  304.216
  304.071
  303.986
  303.944
  303.883
  303.754
  303.579
  303.395
  303.24
  303.136
  303.087
  303.089
  303.124
  303.179
  303.243
  303.302
  303.35
  303.388
  303.417
  303.438
  303.454
  303.466
  303.475
  303.481
  303.486
  303.488
  303.488
  303.486
  303.482
  303.474
  303.462
  303.449
  303.433
  303.416
  303.398
  303.391
  303.403
  303.421
  303.543
  305.109
  304.833
  304.577
  304.342
  304.112
  303.806
  303.474
  303.196
  303.011
  302.924
  302.916
  302.968
  303.053
  303.146
  303.237
  303.325
  303.382
  303.42
  303.447
  303.467
  303.482
  303.493
  303.501
  303.506
  303.509
  303.511
  303.511
  303.509
  303.507
  303.504
  303.502
  303.501
  303.503
  303.509
  303.522
  303.543
  303.574
  303.606
  303.627
  303.679
  296.34
  298.192
  299.388
  300.248
  300.973
  301.586
  302.082
  302.466
  302.758
  302.989
  303.179
  303.291
  303.367
  303.42
  303.455
  303.479
  303.496
  303.508
  303.517
  303.523
  303.527
  303.53
  303.531
  303.532
  303.533
  303.533
  303.533
  303.534
  303.535
  303.537
  303.541
  303.549
  303.561
  303.579
  303.602
  303.625
  303.643
  303.665
  296.99
  298.819
  300.267
  301.248
  301.867
  302.321
  302.665
  302.921
  303.107
  303.24
  303.341
  303.408
  303.453
  303.483
  303.504
  303.518
  303.528
  303.535
  303.54
  303.543
  303.546
  303.547
  303.549
  303.55
  303.551
  303.552
  303.553
  303.553
  303.555
  303.556
  303.56
  303.565
  303.574
  303.586
  303.601
  303.619
  303.618
  303.647
  299.718
  299.64
  299.635
  301.475
  302.287
  302.676
  302.904
  303.071
  303.199
  303.297
  303.37
  303.423
  303.463
  303.49
  303.507
  303.519
  303.527
  303.532
  303.536
  303.538
  303.541
  303.543
  303.545
  303.547
  303.549
  303.551
  303.552
  303.554
  303.556
  303.558
  303.56
  303.562
  303.565
  303.568
  303.573
  303.583
  303.592
  303.597
  303.6
  303.639
)
;

boundaryField
{
  floor
  {
    type wallHeatTransfer;
    Tinf uniform 305.2;
    alphaWall uniform 0.24;
    value nonuniform List<scalar> 29
(
  303.408
  303.665
  303.602
  303.57
  303.574
  303.584
  303.597
  303.614
  303.633
  303.651
  303.669
  303.686
  303.702
  303.718
  303.734
  303.749
  303.764
  303.781
  303.796
  303.836
  303.836
  303.754
  303.712
  303.688
  303.408
  303.665
  303.647
  303.464
  303.375
)
;
  }
  ceiling
  {
    type wallHeatTransfer;
    Tinf uniform 303.2;
    alphaWall uniform 0.24;
    value nonuniform List<scalar> 43
(
  299.966
  299.881
  299.87
  301.582
  302.346
  302.711
  302.924
  303.08
  303.2
  303.289
  303.355
  303.403
  303.435
  303.456
  303.469
  303.477
  303.482
  303.485
  303.486
  303.488
  303.489
  303.49
  303.492
  303.493
  303.495
  303.498
  303.5
  303.503
  303.506
  303.51
  303.513
  303.517
  303.521
  303.526
  303.533
  303.543
  303.552
  303.556
  303.556
  303.589
  305.021
  304.768
  297.391
)
;
  }
  sWall
  {
    type wallHeatTransfer;
    Tinf uniform 315.2;
    alphaWall uniform 0.36;
    value uniform 301.317;
  }
  nWall
  {
    type wallHeatTransfer;
    Tinf uniform 307.2;
    alphaWall uniform 0.36;
    value nonuniform List<scalar> 6
(
  304.158
  304.106
  304.028
  304.176
  304.153
  304.217
)
;
  }
  sideWalls
  {
    type empty;
  }
  glass1
  {
    type wallHeatTransfer;
    Tinf uniform 315.2;
    alphaWall uniform 4.3;
    value nonuniform List<scalar> 9
(
  311.514
  310.885
  310.488
  310.186
  309.934
  309.706
  309.537
  309.609
  309.835
)
;
  }
  glass2
  {
    type wallHeatTransfer;
    Tinf uniform 307.2;
    alphaWall uniform 4.3;
    value nonuniform List<scalar> 2
(
  305.817
  305.912
)
;
  }
  sun
  {
    type wallHeatTransfer;
    Tinf uniform 305.2;
    alphaWall uniform 0.24;
    value nonuniform List<scalar> 14
(
  303.734
  303.49
  303.475
  303.465
  303.456
  303.447
  303.439
  303.429
  303.418
  303.407
  303.397
  303.39
  303.389
  303.395
)
;
  }
  heatsource1
  {
    type fixedGradient;
    gradient uniform 0;
  }
  heatsource2
  {
    type fixedGradient;
    gradient uniform 0;
  }
  Table_master
  {
    type zeroGradient;
  }
  Table_slave
  {
    type zeroGradient;
  }
  inlet
  {
    type fixedValue;
    value uniform 293.15;
  }
  outlet
  {
    type zeroGradient;
  }
} 	// ************************************************************************* //

