/*--------------------------------*- C++ -*----------------------------------*\
  =========                 |
  \\      /  F ield         | OpenFOAM: The Open Source CFD Toolbox
   \\    /   O peration     | Website:  https://openfoam.org
    \\  /    A nd           | Version:  6
     \\/     M anipulation  |
\*---------------------------------------------------------------------------*/
FoamFile
{
    version     2.0;
    format      ascii;
    class       volScalarField;
    location    "1900";
    object      nut;
}
// * * * * * * * * * * * * * * * * * * * * * * * * * * * * * * * * * * * * * //

dimensions      [0 2 -1 0 0 0 0];

internalField   nonuniform List<scalar> 
459
(
0.000722717
0.000755771
0.000741564
0.000768
0.000791588
0.000812144
0.000830378
0.000847082
0.000863124
0.000879163
0.000891497
0.000898995
0.000901268
0.000899625
0.000894458
0.000397459
0.000496613
0.000533923
0.000544558
0.000544228
0.000532409
0.000504034
0.00047427
0.000447341
0.000423333
0.0004015
0.0003814
0.000362713
0.000345148
0.000328323
0.00031171
0.000294443
0.000282374
0.000258092
0.00111046
0.00186078
0.00157479
0.00185872
0.00200726
0.00216176
0.00231472
0.00245429
0.00256277
0.00262385
0.002644
0.00259353
0.00242934
0.00209132
0.00152721
0.000927873
0.000832161
0.000505734
0.00147499
0.00199655
0.00230086
0.00228124
0.00203677
0.00144502
0.00124826
0.00112822
0.00102418
0.00092982
0.000844769
0.000767601
0.000694627
0.000621953
0.000559113
0.000508927
0.000613221
0.000330578
0.00146553
0.00281761
0.00173275
0.00264275
0.0028837
0.00304573
0.00317155
0.00326774
0.00333881
0.00338136
0.00340111
0.00336892
0.00324445
0.00297163
0.00249103
0.00181857
0.00104093
0.000752074
0.0027272
0.00302846
0.00292833
0.00262742
0.00208721
0.000572359
0.000488795
0.000426616
0.000383746
0.00035372
0.000331361
0.000313792
0.000299993
0.000290932
0.000352535
0.000419382
0.000719667
0.000389933
0.0018298
0.00423973
0.00173599
0.00293862
0.00335867
0.00350258
0.00358051
0.0036264
0.00365928
0.00368646
0.00371542
0.00373255
0.00371242
0.00361267
0.00334909
0.00278696
0.00187575
0.00108265
0.00311248
0.00334986
0.00319215
0.00282576
0.00243326
0.00193755
0.00052596
0.000516516
0.000520844
0.000527877
0.000532111
0.000529087
0.000515229
0.000497032
0.0004752
0.000461349
0.000462907
0.000847231
0.000448096
0.00220116
0.00610104
0.0022309
0.00275316
0.00353602
0.00371864
0.00377185
0.00377853
0.00377334
0.00378074
0.00381222
0.00386815
0.00392793
0.00397907
0.00401171
0.00401037
0.00393778
0.00370006
0.00358684
0.00329366
0.00292438
0.00256166
0.00228481
0.00211405
0.00194358
0.00196892
0.00201452
0.00204971
0.00205703
0.00202434
0.00193974
0.00172976
0.00143543
0.00112664
0.000868462
0.000852719
0.000633953
0.000572455
0.000687895
0.000770926
0.00258136
0.00809657
0.00392762
0.00254759
0.00320426
0.00361536
0.00379059
0.00384631
0.00382466
0.00377468
0.00379886
0.00387103
0.00394597
0.00400969
0.00405796
0.0040808
0.00402669
0.00380708
0.00345979
0.00307703
0.00273335
0.00244727
0.00224688
0.00214281
0.00212703
0.0021844
0.00225377
0.00230941
0.00233745
0.0023332
0.00229256
0.00218221
0.00195714
0.00163881
0.00130308
0.000997326
0.000819209
0.000711376
0.00102017
0.000802011
0.00295218
0.00973244
0.00699227
0.00403133
0.00300915
0.00292063
0.00323978
0.0035875
0.00383009
0.00374991
0.00378841
0.00385385
0.00391063
0.00394763
0.00395812
0.00393454
0.0038411
0.00362878
0.00331849
0.00299089
0.00270958
0.00245942
0.00227585
0.00217403
0.00214782
0.00218034
0.00223389
0.00228563
0.00232547
0.00235026
0.00236471
0.0023671
0.00224297
0.0019762
0.00166462
0.00135413
0.0011364
0.00107188
0.00111865
0.000893891
0.00304081
0.00955168
0.00812835
0.00689429
0.00536687
0.00423158
0.00372385
0.00365888
0.00381035
0.00383608
0.00383306
0.00383996
0.00384845
0.0038404
0.0038002
0.00371957
0.00359219
0.00341378
0.00319496
0.00296619
0.00275343
0.00251713
0.00233577
0.00222939
0.00218424
0.00218096
0.00219566
0.00221606
0.00224249
0.00228091
0.0023439
0.00244432
0.00254732
0.00240024
0.00220233
0.00212546
0.00226972
0.00266004
0.00332388
0.00141403
0.00297286
0.00357296
0.00417471
0.00445333
0.00451001
0.00430934
0.00405458
0.00387037
0.00378071
0.00373598
0.00373233
0.00373957
0.00373076
0.00368622
0.0035967
0.00346679
0.00331596
0.00316995
0.00303659
0.00290233
0.00276118
0.00256152
0.00239764
0.00229135
0.00222515
0.00218377
0.00215213
0.00212239
0.00209485
0.00207289
0.00205772
0.00204635
0.0020351
0.00202629
0.00203744
0.00207389
0.00208129
0.00200964
0.00188696
0.00134006
0.00253693
0.00500375
0.00479907
0.0046231
0.00443842
0.00427673
0.00415211
0.00404303
0.00393282
0.00381441
0.0036784
0.00351813
0.00333456
0.0031425
0.00297719
0.0028811
0.0028446
0.00279848
0.00272261
0.00259526
0.00248567
0.00239079
0.00230182
0.00222096
0.00214932
0.00208678
0.00203442
0.00199637
0.00197889
0.00198705
0.00201843
0.00205477
0.00208967
0.00210659
0.00207037
0.00196936
0.00180771
0.00113743
0.00241354
0.00546437
0.00517831
0.00490492
0.00467192
0.00446513
0.00425961
0.0040604
0.0038275
0.00356138
0.00329021
0.00302915
0.00279132
0.00260115
0.00251448
0.00259924
0.00277746
0.0028269
0.00280464
0.00280828
0.00280936
0.0027696
0.00268478
0.00257102
0.00244822
0.0023343
0.0022419
0.00217734
0.00214082
0.00212395
0.00213034
0.00217031
0.00222113
0.00226215
0.00224034
0.00228167
0.00237072
0.00116263
0.0019382
0.00209854
0.0022404
0.00239669
0.00226248
0.0021428
0.00196239
0.00180768
0.00165885
0.00151453
0.00138729
0.00127733
0.00117512
0.00107564
0.000976503
0.000878769
0.000791687
0.000737204
0.000725551
0.000715637
0.00070575
0.00070763
0.000707038
0.000700823
0.000691931
0.000684883
0.000683601
0.00069062
0.000707016
0.00073311
0.000769598
0.000819032
0.000879247
0.00094381
0.00101165
0.00109065
0.00111265
0.00108389
0.00102338
0.000957405
)
;

boundaryField
{
    floor
    {
        type            nutkWallFunction;
        Cmu             0.09;
        kappa           0.41;
        E               9.8;
        value           nonuniform List<scalar> 
29
(
0.000108229
4.64139e-05
5.92721e-05
6.40237e-05
6.53702e-05
6.53283e-05
6.38311e-05
6.02199e-05
5.64046e-05
5.2927e-05
4.98043e-05
4.69451e-05
4.42953e-05
4.18158e-05
3.94701e-05
3.72087e-05
3.49609e-05
3.2608e-05
3.09527e-05
2.75929e-05
2.75929e-05
3.75135e-05
4.54237e-05
5.30262e-05
0.000108229
4.64138e-05
6.04379e-05
9.10861e-05
0.00013041
)
;
    }
    ceiling
    {
        type            nutkWallFunction;
        Cmu             0.09;
        kappa           0.41;
        E               9.8;
        value           nonuniform List<scalar> 
43
(
0.000226663
0.000244041
0.000259335
0.000276194
0.000261836
0.000248944
0.000229348
0.000212382
0.000195911
0.000179782
0.000165423
0.000152895
0.000141142
0.000129592
0.000117958
0.000106356
9.58908e-05
8.92736e-05
8.78492e-05
8.66364e-05
8.54249e-05
8.56552e-05
8.55825e-05
8.48201e-05
8.37284e-05
8.28624e-05
8.27055e-05
8.35696e-05
8.55826e-05
8.87744e-05
9.32146e-05
9.91905e-05
0.000106413
0.000114093
0.000122098
0.000131343
0.000133904
0.000130555
0.000123476
0.000115703
0.000337332
0.00039949
0.000277762
)
;
    }
    sWall
    {
        type            nutkWallFunction;
        Cmu             0.09;
        kappa           0.41;
        E               9.8;
        value           uniform 0.00022672;
    }
    nWall
    {
        type            nutkWallFunction;
        Cmu             0.09;
        kappa           0.41;
        E               9.8;
        value           nonuniform List<scalar> 6(9.33765e-05 9.71392e-05 0.000108163 0.00013679 0.000139709 0.000115708);
    }
    sideWalls
    {
        type            empty;
    }
    glass1
    {
        type            nutkWallFunction;
        Cmu             0.09;
        kappa           0.41;
        E               9.8;
        value           nonuniform List<scalar> 9(8.74776e-05 0.000133762 0.00017449 0.000215133 0.000255664 0.000296408 0.00033554 0.000344824 0.000337729);
    }
    glass2
    {
        type            nutkWallFunction;
        Cmu             0.09;
        kappa           0.41;
        E               9.8;
        value           nonuniform List<scalar> 2(0.000168517 0.000160115);
    }
    sun
    {
        type            nutkWallFunction;
        Cmu             0.09;
        kappa           0.41;
        E               9.8;
        value           nonuniform List<scalar> 
14
(
8.75044e-05
9.15351e-05
8.98056e-05
9.30207e-05
9.58784e-05
9.83607e-05
0.000100556
0.000102563
0.000104485
0.000106403
0.000107876
0.000108769
0.00010904
0.000108844
)
;
    }
    heatsource1
    {
        type            nutkWallFunction;
        Cmu             0.09;
        kappa           0.41;
        E               9.8;
        value           nonuniform List<scalar> 3(6.8892e-05 8.32384e-05 9.33768e-05);
    }
    heatsource2
    {
        type            nutkWallFunction;
        Cmu             0.09;
        kappa           0.41;
        E               9.8;
        value           nonuniform List<scalar> 4(0.000112202 0.00010077 0.00010077 0.000125532);
    }
    Table_master
    {
        type            nutkWallFunction;
        Cmu             0.09;
        kappa           0.41;
        E               9.8;
        value           nonuniform List<scalar> 9(6.88781e-05 5.82744e-05 5.02387e-05 4.46132e-05 4.06256e-05 3.76279e-05 3.52541e-05 3.33775e-05 3.21392e-05);
    }
    Table_slave
    {
        type            nutkWallFunction;
        Cmu             0.09;
        kappa           0.41;
        E               9.8;
        value           nonuniform List<scalar> 9(6.30154e-05 6.18148e-05 6.23658e-05 6.32596e-05 6.3797e-05 6.34133e-05 6.16515e-05 5.93292e-05 5.65291e-05);
    }
    inlet
    {
        type            calculated;
        value           uniform 0.000100623;
    }
    outlet
    {
        type            calculated;
        value           nonuniform List<scalar> 2(0.0019382 0.00209854);
    }
}


// ************************************************************************* //
