/*--------------------------------*- C++ -*----------------------------------*\
  =========                 |
  \\      /  F ield         | OpenFOAM: The Open Source CFD Toolbox
   \\    /   O peration     | Website:  https://openfoam.org
    \\  /    A nd           | Version:  6
     \\/     M anipulation  |
\*---------------------------------------------------------------------------*/
FoamFile
{
    version     2.0;
    format      ascii;
    class       surfaceScalarField;
    location    "900";
    object      phi;
}
// * * * * * * * * * * * * * * * * * * * * * * * * * * * * * * * * * * * * * //

dimensions      [1 0 -1 0 0 0 0];

internalField   nonuniform List<scalar> 
852
(
-0.00293599
0.00299222
-0.00397404
0.00103805
-0.00476264
0.000788596
-0.00537964
0.000617003
-0.00579589
0.000416255
-0.00598887
0.000192981
-0.00593682
-5.20554e-05
-0.00562214
-0.000314679
-0.00505685
-0.000565294
-0.00429241
-0.000764434
-0.00340919
-0.000883217
-0.0024959
-0.000913298
-0.00162737
-0.000868525
-0.000825881
-0.000801491
-0.000824443
-0.000674184
0.000676866
-0.000342712
-0.000331472
0.000265429
-0.000608141
0.000738292
-0.000472863
0.00105156
-0.000313264
0.00124593
-0.000194369
0.0013513
-0.00010537
0.00140362
-5.23219e-05
0.00143308
-2.94613e-05
0.00145099
-1.79129e-05
0.0014609
-9.9124e-06
0.00146392
-3.01669e-06
0.00145807
5.8509e-06
0.00143475
2.33147e-05
0.00137169
6.30673e-05
0.0012311
0.000140591
0.000998321
0.000232775
0.000706615
0.000291705
0.000710223
-0.00209424
0.00523787
-0.00309892
0.00204273
-0.00390421
0.00159389
-0.0045079
0.00122069
-0.00491428
0.000822635
-0.00510986
0.000388558
-0.00506948
-9.24394e-05
-0.00477852
-0.000605635
-0.00425999
-0.00108383
-0.0035749
-0.00144953
-0.00280523
-0.00165288
-0.00203153
-0.001687
-0.00132611
-0.00157394
-0.00077741
-0.00135019
-0.000573714
-0.00102814
-7.82631e-05
-0.000495502
-7.83143e-05
0.000380693
0.000303806
0.000804766
-0.000755546
0.001053
-0.000856379
0.00126131
-0.000681172
0.00141597
-0.000467921
0.00150607
-0.00028447
0.00151999
-0.000119293
0.00152377
-5.60994e-05
0.00152824
-3.39254e-05
0.00153195
-2.16322e-05
0.00153455
-1.25045e-05
0.00153577
-4.23765e-06
0.00153482
6.80064e-06
0.00152814
2.99976e-05
0.00148693
0.000104277
0.00131201
0.000315508
0.00100962
0.000535165
0.000628131
0.000673193
0.00134765
-0.00146559
0.00693501
-0.00232842
0.00290556
-0.00303644
0.00230192
-0.00354732
0.00173157
-0.00389693
0.00117225
-0.00406745
0.000559074
-0.00401429
-0.000145596
-0.00371512
-0.000904804
-0.00321444
-0.00158451
-0.00258779
-0.00207617
-0.00191688
-0.00232379
-0.00126598
-0.0023379
-0.000685945
-0.00215398
-0.000228479
-0.00180766
7.62343e-05
-0.00133285
0.000277465
-0.000696733
0.000199151
0.001483
-0.00117119
0.00169691
-0.000969454
0.00167646
-0.000835937
0.00167716
-0.00068187
0.00169876
-0.000489519
0.00170951
-0.000295218
0.00159037
0.00153442
0.00150065
0.00147917
0.00146682
0.00146273
0.00146969
0.00149984
0.00160427
0.00132391
0.000595863
0.000982998
0.00087608
0.000549335
0.00110686
0.00191115
-0.00102355
0.00825835
-0.00170517
0.00358718
-0.00216613
0.00276288
-0.00249303
0.00205846
-0.00271646
0.00139568
-0.00280456
0.00064717
-0.00268273
-0.000267417
-0.00233812
-0.00124942
-0.00185372
-0.0020689
-0.00131283
-0.00261707
-0.000782683
-0.00285393
-0.000299078
-0.00282151
0.000120119
-0.00257317
0.000469705
-0.00215725
0.000776632
-0.00163978
0.00114521
-0.00106531
0.00190415
-0.00055978
0.00244044
-0.000529037
0.00203861
-0.000769364
0.00191229
-0.000843132
0.0018032
-0.000726841
0.00171046
-0.000589137
0.00166051
-0.00043956
0.0016413
-0.000276017
0.00175469
-0.00011354
0.00182679
-7.22538e-05
0.00188543
-5.87922e-05
0.00193094
-4.56614e-05
0.00194934
-1.85498e-05
0.00191946
2.97257e-05
0.00181665
0.000102657
0.00160852
0.000207977
0.00124101
0.000367361
0.00111076
0.000726115
0.000824719
0.00116212
0.000387799
0.00154378
0.00231754
-0.00071771
0.00933381
-0.00123397
0.00410344
-0.00132066
0.00284957
-0.00137206
0.00210987
-0.00139298
0.0014166
-0.00130415
0.000558335
-0.00102481
-0.000546751
-0.000616525
-0.00165771
-0.000184841
-0.00250059
0.000203726
-0.00300564
0.000522257
-0.00317247
0.000768048
-0.0030673
0.000953942
-0.00275907
0.0011082
-0.00231151
0.0012614
-0.00179298
0.00146509
-0.001269
0.00174945
-0.000844144
0.00188735
-0.00066694
0.00179026
-0.000672271
0.00161613
-0.000669
0.00147001
-0.000580725
0.00135107
-0.000470195
0.00127006
-0.000358555
0.00123995
-0.000245906
0.00128155
-0.000155141
0.0013293
-0.000120003
0.00138212
-0.000111606
0.00143653
-0.000100071
0.00148196
-6.39867e-05
0.00149893
1.2761e-05
0.00146687
0.000134713
0.00137373
0.000301119
0.0012201
0.000520993
0.00108605
0.000860161
0.000942299
0.00130587
0.000623627
0.00186245
0.000551949
0.00238922
-0.000969186
0.00152093
-0.00143212
0.000462731
-0.00138514
-0.000626486
0.0103669
-0.000979708
0.00445666
-0.000552806
0.00242266
-0.000186974
0.00174404
9.4675e-05
0.00113495
0.000483982
0.000169027
0.000981928
-0.0010447
0.00140252
-0.00207831
0.0016885
-0.00278656
0.00183556
-0.0031527
0.00187315
-0.00321006
0.0018297
-0.00302384
0.00173536
-0.00266473
0.00162625
-0.0022024
0.00153544
-0.00170217
0.00148861
-0.00122218
0.00147992
-0.000835451
0.00142571
-0.000612726
0.00128202
-0.000528589
0.00109233
-0.000479309
0.000925741
-0.000414132
0.000799085
-0.00034354
0.000718255
-0.000277724
0.000690667
-0.000218318
0.000713197
-0.000177671
0.000761701
-0.000168506
0.000825478
-0.000175383
0.000899825
-0.000174418
0.000979152
-0.000143313
0.00105165
-5.97421e-05
0.00109975
8.66224e-05
0.00111892
0.000281944
0.00111707
0.000522845
0.00114167
0.000835564
0.00124035
0.00120719
0.00142639
0.00167641
0.00186894
0.00194666
0.00212979
0.00126008
0.00174113
0.000851392
0.000412549
-0.000680565
0.0114984
-0.000559111
0.00433521
0.00057685
0.0012867
0.00137268
0.000948204
0.00205793
0.000449706
0.00275882
-0.000531857
0.0033024
-0.00158828
0.00358907
-0.00236498
0.0036235
-0.00282099
0.00345108
-0.00298028
0.00313386
-0.00289283
0.00273295
-0.00262294
0.00230157
-0.00223335
0.0018864
-0.00178722
0.00152288
-0.00133865
0.00122717
-0.000926469
0.000997808
-0.000606087
0.00079969
-0.000414608
0.000600192
-0.000329091
0.000410583
-0.0002897
0.000255835
-0.000259383
0.000145614
-0.000233319
8.09396e-05
-0.000213049
6.20916e-05
-0.00019947
8.24207e-05
-0.000198
0.000127036
-0.000213122
0.000186574
-0.000234921
0.000259993
-0.000247837
0.000351399
-0.000234719
0.000465715
-0.000174058
0.000590937
-3.85999e-05
0.000716423
0.000156458
0.000852816
0.000386452
0.00103811
0.000650266
0.00132049
0.000924812
0.00176145
0.00123545
0.00242768
0.00128043
0.00296846
0.000719301
0.00299182
0.000828035
0.00346556
0.00259497
0.00940795
0.00330033
0.00362985
0.00370381
0.000883219
0.00439427
0.000257751
0.00520934
-0.000365367
0.00583786
-0.00116038
0.00605847
-0.0018089
0.00590004
-0.00220654
0.0054393
-0.00236025
0.00476841
-0.00230939
0.0039827
-0.00210713
0.00316618
-0.00180642
0.00238027
-0.00144744
0.00167394
-0.00108089
0.00107993
-0.000744646
0.000604745
-0.000451279
0.000253848
-0.00025519
-1.10869e-06
-0.000159652
-0.000196851
-0.000133349
-0.000350256
-0.000136295
-0.000466122
-0.000143517
-0.000546807
-0.000152634
-0.000595886
-0.00016397
-0.000616861
-0.000178495
-0.000616305
-0.000198557
-0.000604347
-0.000225079
-0.000586831
-0.000252438
-0.00056282
-0.000271848
-0.000524016
-0.000273523
-0.00045172
-0.000246354
-0.000317019
-0.000173301
-0.00013529
-2.52709e-05
7.86342e-05
0.000172527
0.000347963
0.000380937
0.000684395
0.00058838
0.0011287
0.000791147
0.00161815
0.000790982
0.00182702
0.00051043
0.00108687
0.00156818
0.00480174
0.00996135
0.0135831
0.012454
0.00201235
0.0117477
0.000964071
0.0110919
0.000290464
0.0102114
-0.000279927
0.00906616
-0.000663646
0.00776074
-0.000901123
0.00638931
-0.000988815
0.0050254
-0.000945483
0.00373604
-0.000817764
0.00257387
-0.000644255
0.00155975
-0.000433316
0.000718114
-0.000239253
5.58669e-05
-8.23993e-05
-0.000410864
1.5452e-05
-0.000699058
3.30045e-05
-0.000877412
1.87016e-05
-0.00100361
-7.15197e-06
-0.00110494
-3.49611e-05
-0.00118773
-6.07272e-05
-0.00125467
-8.56968e-05
-0.00130935
-0.000109294
-0.0013559
-0.000131939
-0.00140081
-0.000153651
-0.00145251
-0.000173378
-0.00151863
-0.000186322
-0.0016063
-0.000184171
-0.00172411
-0.00015571
-0.00188243
-8.80336e-05
-0.00208704
3.13064e-05
-0.0023248
0.000212489
-0.00262191
0.000469637
-0.00306023
0.000819257
-0.00373144
0.00125959
-0.00470234
0.00176204
-0.00608935
0.002178
-0.00777444
0.00219552
-0.00730305
0.00109679
-0.00222549
0.00467819
0.00351173
0.00379159
0.00185067
0.00417343
-9.1373e-05
0.00418004
-0.000286541
0.00377636
-0.000259963
0.00314587
-0.000270637
0.00239511
-0.000238059
0.00159194
-0.000142307
0.000778483
-4.30913e-06
6.86628e-06
0.000127361
-0.000632333
0.000205884
-0.00108423
0.000212646
-0.00137119
0.000204561
-0.00153467
0.000178932
-0.00163718
0.00013551
-0.00171069
9.22153e-05
-0.00177206
5.42154e-05
-0.00183006
2.3041e-05
-0.00188935
-1.44237e-06
-0.00195166
-2.33856e-05
-0.00201772
-4.32353e-05
-0.00208935
-6.03074e-05
-0.00216977
-7.32286e-05
-0.00226159
-8.15561e-05
-0.00236583
-8.20806e-05
-0.00248142
-6.85884e-05
-0.00260432
-3.28056e-05
-0.00272685
3.44929e-05
-0.00283694
0.000141395
-0.00293126
0.000306819
-0.00301752
0.000555895
-0.00310114
0.000902872
-0.00317783
0.00133628
-0.00320238
0.00178659
-0.00312247
0.00209809
-0.00275887
0.00183191
-0.00149737
-0.000164714
-0.00365088
-0.000538975
0.00411546
0.000297237
0.00101446
-8.0943e-05
0.000286807
-0.000454143
8.66588e-05
-0.000783559
6.94526e-05
-0.00114349
8.92957e-05
-0.00150952
0.000127967
-0.00182888
0.000177055
-0.00205495
0.00022176
-0.00218136
0.000253774
-0.00223846
0.000262984
-0.00226365
0.000237836
-0.00226198
0.000202894
-0.00225005
0.000166997
-0.00224684
0.000132298
-0.00225721
0.000102593
-0.00228086
7.78612e-05
-0.00231527
5.74497e-05
-0.0023573
4.05899e-05
-0.00240811
2.74195e-05
-0.00246667
1.53307e-05
-0.00253096
3.97996e-06
-0.00259837
-5.82374e-06
-0.00266672
-1.31978e-05
-0.00273229
-1.65188e-05
-0.00278816
-1.2717e-05
-0.00282341
2.44812e-06
-0.00282783
3.89165e-05
-0.00279132
0.000104886
-0.00269228
0.00020777
-0.0024994
0.000363016
-0.00218597
0.00058944
-0.00173282
0.000883136
-0.00111191
0.00116568
-0.000152276
0.00113846
0.00114322
0.000536416
0.00158106
-0.000602548
-0.00199097
-0.00722883
-0.0101299
-0.00597169
-0.00493729
-0.00463932
-0.00454575
-0.00447202
-0.00438042
-0.00425177
-0.00407539
-0.00385553
-0.00360481
-0.003346
-0.00311338
-0.0029166
-0.00275642
-0.0026315
-0.00253672
-0.002467
-0.00241795
-0.00238594
-0.00236724
-0.0023607
-0.00236555
-0.00238018
-0.00240212
-0.00242726
-0.00244843
-0.00245424
-0.00242334
-0.0023262
-0.00212589
-0.00177005
-0.00118751
-0.000311014
0.000848233
0.00198023
0.00250995
0.00190032
)
;

boundaryField
{
    floor
    {
        type            calculated;
        value           nonuniform List<scalar> 
29
(
0
0
0
0
0
0
0
0
0
0
0
0
0
0
0
0
0
0
0
0
-3.60759e-06
-9.29103e-06
-1.41693e-05
-1.85889e-05
-1.43756e-06
-2.68137e-06
-7.6327e-06
-8.00011e-06
-7.25962e-06
)
;
    }
    ceiling
    {
        type            calculated;
        value           nonuniform List<scalar> 
43
(
-4.54257e-05
-4.41041e-05
-4.27939e-05
-1.99435e-05
-1.11624e-05
-6.90542e-06
-4.28153e-06
-2.29945e-06
-6.90005e-07
6.78542e-07
1.90326e-06
3.05379e-06
4.17448e-06
5.21579e-06
6.10659e-06
6.82173e-06
7.37987e-06
7.81163e-06
8.14454e-06
8.3958e-06
8.58149e-06
8.71357e-06
8.79746e-06
8.83043e-06
8.80795e-06
8.73592e-06
8.61917e-06
8.45909e-06
8.2568e-06
8.01301e-06
7.74542e-06
7.46319e-06
7.17546e-06
6.89723e-06
6.64354e-06
6.4313e-06
6.45882e-06
6.69605e-06
7.08785e-06
8.3175e-06
1.11028e-05
8.05273e-06
-6.47514e-05
)
;
    }
    sWall
    {
        type            calculated;
        value           uniform -0.000274958;
    }
    nWall
    {
        type            calculated;
        value           nonuniform List<scalar> 6(-4.71853e-05 -5.65591e-05 -6.11899e-05 -7.19808e-05 -7.88489e-05 -9.89746e-05);
    }
    sideWalls
    {
        type            empty;
        value           nonuniform 0();
    }
    glass1
    {
        type            calculated;
        value           nonuniform List<scalar> 9(-5.62369e-05 -0.000151409 -0.00023155 -0.000299792 -0.000357745 -0.000406634 -0.000450901 -0.00050452 -0.000564503);
    }
    glass2
    {
        type            calculated;
        value           nonuniform List<scalar> 2(-0.000249316 -0.000275811);
    }
    sun
    {
        type            calculated;
        value           uniform 0;
    }
    heatsource1
    {
        type            calculated;
        value           nonuniform List<scalar> 3(2.03958e-07 2.03914e-07 2.03931e-07);
    }
    heatsource2
    {
        type            calculated;
        value           nonuniform List<scalar> 4(5.10979e-08 5.12199e-08 0 0);
    }
    Table_master
    {
        type            calculated;
        value           nonuniform List<scalar> 9(-1.52968e-07 -1.53049e-07 -1.53078e-07 -1.53098e-07 -1.53111e-07 -1.53121e-07 -1.53124e-07 -1.53118e-07 -1.53086e-07);
    }
    Table_slave
    {
        type            calculated;
        value           nonuniform List<scalar> 9(1.52845e-07 1.52871e-07 1.52854e-07 1.5284e-07 1.52836e-07 1.52839e-07 1.52855e-07 1.52897e-07 1.52977e-07);
    }
    inlet
    {
        type            calculated;
        value           uniform -0.00617758;
    }
    outlet
    {
        type            calculated;
        value           nonuniform List<scalar> 2(0.00754922 0.00294521);
    }
}


// ************************************************************************* //
