// -*- C++ -*-
// File generated by PyFoam - sorry for the ugliness

FoamFile
{
 version 2.0;
 format ascii;
 class volVectorField;
 location "900";
 object U;
}

dimensions [ 0 1 -1 0 0 0 0 ];

internalField nonuniform List<vector> 459
(
  (0.0330361 0.0854202 0)
  (-0.166039 0.0256504 0)
  (-0.190572 0.0178371 0)
  (-0.221157 0.0123352 0)
  (-0.243479 0.00632075 0)
  (-0.256706 1.56539e-05 0)
  (-0.259517 -0.00663595 0)
  (-0.250691 -0.0136392 0)
  (-0.230884 -0.0205299 0)
  (-0.201528 -0.0262597 0)
  (-0.165595 -0.0299861 0)
  (-0.126494 -0.0314389 0)
  (-0.0874731 -0.0311425 0)
  (-0.0532979 -0.0307486 0)
  (-0.0376648 -0.0319987 0)
  (-0.00256204 0.0073879 0)
  (-0.0222469 -0.0175175 0)
  (0.00149997 -0.0262148 0)
  (0.022351 -0.0194287 0)
  (0.0380471 -0.0130493 0)
  (0.0496356 -0.00833278 0)
  (0.0564735 -0.00499446 0)
  (0.0598824 -0.00325274 0)
  (0.0614334 -0.00249885 0)
  (0.0622471 -0.00213409 0)
  (0.0627606 -0.00189943 0)
  (0.06303 -0.00170763 0)
  (0.0629902 -0.00147118 0)
  (0.0624282 -0.00101317 0)
  (0.0607736 4.18024e-05 0)
  (0.0568252 0.00223871 0)
  (0.0492618 0.00462744 0)
  (0.041417 0.00671709 0)
  (-0.0103708 0.02039 0)
  (0.2053 0.174512 0)
  (-0.154239 0.0671078 0)
  (-0.15253 0.0521113 0)
  (-0.183753 0.0406566 0)
  (-0.205548 0.0278425 0)
  (-0.218739 0.0136682 0)
  (-0.221989 -0.00212539 0)
  (-0.213879 -0.019108 0)
  (-0.195588 -0.0351788 0)
  (-0.168921 -0.0478387 0)
  (-0.137077 -0.0552993 0)
  (-0.103466 -0.0570873 0)
  (-0.071312 -0.0538779 0)
  (-0.044368 -0.047253 0)
  (-0.0272465 -0.0383881 0)
  (-0.0136596 -0.0188306 0)
  (-0.00717218 0.0132356 0)
  (0.0600878 0.0312212 0)
  (0.0316014 -0.0198862 0)
  (0.0386114 -0.0305622 0)
  (0.0493712 -0.0258785 0)
  (0.0577923 -0.017795 0)
  (0.0633519 -0.0104195 0)
  (0.065541 -0.00429285 0)
  (0.0658523 -0.000902748 0)
  (0.0657633 0.000550902 0)
  (0.0658404 0.0012278 0)
  (0.0660009 0.00164974 0)
  (0.0661169 0.00201936 0)
  (0.0661435 0.00250176 0)
  (0.0660274 0.00344278 0)
  (0.0652365 0.00573611 0)
  (0.0613484 0.0120579 0)
  (0.0515763 0.0174565 0)
  (0.0452056 0.0213423 0)
  (-0.0437983 0.0440341 0)
  (0.363108 0.260751 0)
  (-0.169935 0.106409 0)
  (-0.113942 0.0838502 0)
  (-0.143705 0.0634813 0)
  (-0.162655 0.0424648 0)
  (-0.174474 0.0195433 0)
  (-0.177006 -0.0060607 0)
  (-0.168002 -0.0331804 0)
  (-0.149701 -0.0580704 0)
  (-0.124671 -0.0766805 0)
  (-0.0963936 -0.0866116 0)
  (-0.0678356 -0.0877394 0)
  (-0.0412905 -0.0812157 0)
  (-0.0189657 -0.0685999 0)
  (-0.00269546 -0.0509318 0)
  (0.00976571 -0.0253016 0)
  (0.0165051 0.00904988 0)
  (0.105485 -0.0393325 0)
  (0.0728778 -0.0432061 0)
  (0.0689549 -0.0394347 0)
  (0.0711427 -0.0315731 0)
  (0.072689 -0.0224236 0)
  (0.0735134 -0.0147585 0)
  (0.071794 -0.012022 0)
  (0.067799 -0.00860383 0)
  (0.0650461 -0.00675032 0)
  (0.0638059 -0.00569508 0)
  (0.0632651 -0.00503111 0)
  (0.0630013 -0.00456633 0)
  (0.0630518 -0.00411319 0)
  (0.0638919 -0.00330497 0)
  (0.066733 -0.000174957 0)
  (0.0646956 0.0170451 0)
  (0.0514265 0.0292643 0)
  (0.0508186 0.0379621 0)
  (-0.0732365 0.069145 0)
  (0.505073 0.329909 0)
  (-0.20325 0.141053 0)
  (-0.0737566 0.11039 0)
  (-0.101253 0.0823624 0)
  (-0.11437 0.0554157 0)
  (-0.122225 0.0254537 0)
  (-0.121084 -0.00961277 0)
  (-0.108764 -0.0472429 0)
  (-0.0896461 -0.080174 0)
  (-0.0670005 -0.103172 0)
  (-0.0440452 -0.114032 0)
  (-0.0225802 -0.113755 0)
  (-0.00338603 -0.104137 0)
  (0.0129935 -0.086915 0)
  (0.0264062 -0.0649901 0)
  (0.0407494 -0.0389973 0)
  (0.0628486 -0.0123797 0)
  (0.0933858 -6.06576e-06 0)
  (0.101044 -0.0330128 0)
  (0.0874947 -0.0382977 0)
  (0.0789451 -0.0340788 0)
  (0.0747901 -0.0277929 0)
  (0.0720796 -0.0204019 0)
  (0.0707955 -0.0118391 0)
  (0.0725381 -0.00694288 0)
  (0.0766537 -0.00548401 0)
  (0.0800602 -0.00467035 0)
  (0.0823751 -0.00403849 0)
  (0.0837934 -0.00321826 0)
  (0.08375 -0.0019545 0)
  (0.081184 -3.29102e-05 0)
  (0.0748601 0.00283334 0)
  (0.0619867 0.00717467 0)
  (0.0510614 0.0274421 0)
  (0.0404177 0.0442545 0)
  (0.0536983 0.057828 0)
  (-0.103632 0.0919734 0)
  (0.626999 0.383385 0)
  (-0.24396 0.169271 0)
  (-0.0347518 0.125047 0)
  (-0.0571868 0.0925349 0)
  (-0.0619386 0.0622777 0)
  (-0.0626884 0.0274298 0)
  (-0.0518004 -0.016263 0)
  (-0.0339126 -0.0631499 0)
  (-0.014998 -0.100666 0)
  (0.00269544 -0.124441 0)
  (0.0171836 -0.13316 0)
  (0.0285467 -0.129868 0)
  (0.0373095 -0.117604 0)
  (0.0441872 -0.0988997 0)
  (0.050316 -0.0764202 0)
  (0.0576688 -0.0528162 0)
  (0.0688385 -0.0335385 0)
  (0.0792992 -0.0289091 0)
  (0.0808768 -0.0347271 0)
  (0.07434 -0.0335037 0)
  (0.0663356 -0.0285451 0)
  (0.0602319 -0.0229783 0)
  (0.0559396 -0.0172422 0)
  (0.0536702 -0.0113598 0)
  (0.0537883 -0.00622565 0)
  (0.0559415 -0.00387974 0)
  (0.058344 -0.00304563 0)
  (0.0606844 -0.00234322 0)
  (0.0628574 -0.00083359 0)
  (0.0644817 0.0020319 0)
  (0.0643852 0.00636245 0)
  (0.0619822 0.012325 0)
  (0.0565777 0.0205667 0)
  (0.0500164 0.0359901 0)
  (0.0410144 0.0545164 0)
  (0.0619575 0.0750215 0)
  (-0.0170407 0.104239 0)
  (0.0454198 0.0340442 0)
  (-0.0612603 -0.0343814 0)
  (-0.268945 -0.0566679 0)
  (0.714666 0.427899 0)
  (-0.283231 0.188075 0)
  (-0.00569862 0.119897 0)
  (-0.011767 0.09163 0)
  (-0.00494895 0.0622768 0)
  (0.00526883 0.020728 0)
  (0.0339017 -0.03355 0)
  (0.0549707 -0.081732 0)
  (0.0698026 -0.116103 0)
  (0.0783494 -0.13527 0)
  (0.0813833 -0.140425 0)
  (0.0803936 -0.134284 0)
  (0.0767512 -0.119877 0)
  (0.0718627 -0.100187 0)
  (0.0672051 -0.0781103 0)
  (0.06414 -0.0563363 0)
  (0.0635565 -0.03859 0)
  (0.0630874 -0.0294552 0)
  (0.0590539 -0.0271104 0)
  (0.051446 -0.024941 0)
  (0.0432236 -0.021319 0)
  (0.0366508 -0.0173403 0)
  (0.0321506 -0.0134767 0)
  (0.0298896 -0.00979413 0)
  (0.0298409 -0.00695113 0)
  (0.0315305 -0.00601997 0)
  (0.0340347 -0.00601925 0)
  (0.037014 -0.00574519 0)
  (0.0403031 -0.00423046 0)
  (0.0436812 -0.000626321 0)
  (0.0466653 0.00533747 0)
  (0.0482275 0.013357 0)
  (0.0485713 0.0236369 0)
  (0.0491089 0.0379445 0)
  (0.0484187 0.055885 0)
  (0.0703738 0.0787326 0)
  (0.0522956 0.0972796 0)
  (0.0914824 0.0683154 0)
  (0.114491 0.0445983 0)
  (-0.128194 -0.00733294 0)
  (0.76759 0.468491 0)
  (-0.301798 0.173463 0)
  (0.0220267 0.0677588 0)
  (0.0495069 0.0629377 0)
  (0.0701825 0.0439744 0)
  (0.103029 -0.00357696 0)
  (0.134766 -0.0572009 0)
  (0.153096 -0.0982256 0)
  (0.159136 -0.124 0)
  (0.154957 -0.135494 0)
  (0.143186 -0.134848 0)
  (0.126684 -0.124905 0)
  (0.107992 -0.108561 0)
  (0.0892633 -0.0887342 0)
  (0.0722493 -0.0680082 0)
  (0.0580563 -0.0484495 0)
  (0.0471953 -0.0327119 0)
  (0.038553 -0.023177 0)
  (0.0301431 -0.0188817 0)
  (0.0216107 -0.0165134 0)
  (0.0139636 -0.0142266 0)
  (0.0081663 -0.0120844 0)
  (0.00441048 -0.0102505 0)
  (0.00268903 -0.00874575 0)
  (0.00283746 -0.0079358 0)
  (0.00435191 -0.00821928 0)
  (0.0066188 -0.00895734 0)
  (0.0094232 -0.00927549 0)
  (0.0128163 -0.00831801 0)
  (0.0169283 -0.00509446 0)
  (0.0226856 0.00135745 0)
  (0.0284111 0.0101464 0)
  (0.0338556 0.0205361 0)
  (0.040839 0.0331716 0)
  (0.0486515 0.0478213 0)
  (0.0704182 0.0662252 0)
  (0.0840256 0.0745778 0)
  (0.115888 0.0525554 0)
  (0.155416 0.0440086 0)
  (-0.0362282 0.0925756 0)
  (0.872403 0.469819 0)
  (-0.0642836 0.152093 0)
  (0.109978 -0.0138177 0)
  (0.181721 -0.0410107 0)
  (0.212276 -0.0526785 0)
  (0.243722 -0.0751927 0)
  (0.261497 -0.0974761 0)
  (0.262295 -0.113347 0)
  (0.247694 -0.120838 0)
  (0.221768 -0.120002 0)
  (0.189013 -0.112065 0)
  (0.153465 -0.0988354 0)
  (0.118271 -0.0820679 0)
  (0.0858217 -0.0639463 0)
  (0.0577255 -0.046389 0)
  (0.0346039 -0.0306009 0)
  (0.0172496 -0.018735 0)
  (0.00474269 -0.0121086 0)
  (-0.00483462 -0.00953569 0)
  (-0.0121452 -0.00877502 0)
  (-0.0179427 -0.00836475 0)
  (-0.0221639 -0.0081415 0)
  (-0.024918 -0.0081274 0)
  (-0.026351 -0.00836265 0)
  (-0.0266889 -0.00899801 0)
  (-0.026342 -0.0101084 0)
  (-0.0256997 -0.0113753 0)
  (-0.0248679 -0.0123323 0)
  (-0.023685 -0.0124801 0)
  (-0.021756 -0.0112421 0)
  (-0.0181113 -0.00788481 0)
  (-0.00949513 -0.00170222 0)
  (-0.00117808 0.00632161 0)
  (0.00934249 0.014492 0)
  (0.0210236 0.0215527 0)
  (0.0407881 0.0288858 0)
  (0.0598184 0.0224539 0)
  (0.0798381 -0.00467306 0)
  (0.138594 0.0391084 0)
  (-0.405124 0.202548 0)
  (1.01939 0.422921 0)
  (0.484925 0.279493 0)
  (0.499765 0.182984 0)
  (0.5262 0.111722 0)
  (0.507218 0.0604272 0)
  (0.465329 0.0132903 0)
  (0.41659 -0.0259923 0)
  (0.363041 -0.0528892 0)
  (0.304977 -0.0666222 0)
  (0.245306 -0.0692022 0)
  (0.187497 -0.064001 0)
  (0.134144 -0.0541763 0)
  (0.0868148 -0.0416027 0)
  (0.0470645 -0.0284936 0)
  (0.0149724 -0.0166542 0)
  (-0.0104757 -0.00716404 0)
  (-0.0254365 -0.00292151 0)
  (-0.034651 -0.00189436 0)
  (-0.0408429 -0.00240643 0)
  (-0.0456415 -0.00340355 0)
  (-0.0495722 -0.00441238 0)
  (-0.0527724 -0.00540419 0)
  (-0.0553504 -0.00640248 0)
  (-0.0574632 -0.00744422 0)
  (-0.0593483 -0.00857786 0)
  (-0.061358 -0.00978981 0)
  (-0.0638475 -0.0108703 0)
  (-0.0671123 -0.0114428 0)
  (-0.0714655 -0.0109762 0)
  (-0.0773344 -0.00877485 0)
  (-0.0852646 -0.00401991 0)
  (-0.0952169 0.00385118 0)
  (-0.105356 0.0143232 0)
  (-0.120137 0.0276169 0)
  (-0.143332 0.0438643 0)
  (-0.177448 0.062006 0)
  (-0.225836 0.0781869 0)
  (-0.281519 0.0898497 0)
  (-0.349516 0.096932 0)
  (-0.60921 0.0999676 0)
  (-0.150853 0.00197449 0)
  (0.121388 0.00177549 0)
  (0.200537 -0.0315271 0)
  (0.187528 -0.0416359 0)
  (0.171458 -0.039776 0)
  (0.149395 -0.0349908 0)
  (0.119969 -0.028874 0)
  (0.0862527 -0.0215712 0)
  (0.0517515 -0.0135469 0)
  (0.016935 -0.00540659 0)
  (-0.0165345 0.00218416 0)
  (-0.0389586 0.00651006 0)
  (-0.0544309 0.0088607 0)
  (-0.0636837 0.0093673 0)
  (-0.0687907 0.00853418 0)
  (-0.0723342 0.00759656 0)
  (-0.0751351 0.00683219 0)
  (-0.0776273 0.00624898 0)
  (-0.0801284 0.00575623 0)
  (-0.0827608 0.005099 0)
  (-0.0855025 0.00434119 0)
  (-0.0884333 0.00349689 0)
  (-0.0916767 0.00262239 0)
  (-0.0953771 0.00184168 0)
  (-0.099616 0.00139951 0)
  (-0.104391 0.00161402 0)
  (-0.109627 0.00281537 0)
  (-0.115148 0.00530034 0)
  (-0.12034 0.00958772 0)
  (-0.124467 0.0165819 0)
  (-0.127886 0.0274063 0)
  (-0.13081 0.0424435 0)
  (-0.133904 0.0608855 0)
  (-0.137603 0.0793225 0)
  (-0.138868 0.0882404 0)
  (-0.121434 0.0671522 0)
  (-0.0785549 -0.0230333 0)
  (-0.273993 -0.198307 0)
  (0.0155122 0.194583 0)
  (0.0412734 0.0703474 0)
  (0.000403958 0.00593024 0)
  (-0.0125691 -0.0021589 0)
  (-0.0258722 -0.000195388 0)
  (-0.0407448 8.7866e-05 0)
  (-0.056983 0.00116479 0)
  (-0.0724635 0.00339804 0)
  (-0.084698 0.00550549 0)
  (-0.0914609 0.0058546 0)
  (-0.0957915 0.0039486 0)
  (-0.0975922 -4.12684e-05 0)
  (-0.0978933 -0.00457229 0)
  (-0.0973459 -0.00944379 0)
  (-0.0968598 -0.0146511 0)
  (-0.0969743 -0.0197238 0)
  (-0.0977153 -0.0243749 0)
  (-0.0989825 -0.0283487 0)
  (-0.100647 -0.0314553 0)
  (-0.102635 -0.033599 0)
  (-0.105007 -0.0349275 0)
  (-0.107672 -0.0354054 0)
  (-0.110536 -0.0349806 0)
  (-0.113513 -0.0338335 0)
  (-0.116483 -0.0319935 0)
  (-0.119209 -0.0292311 0)
  (-0.121313 -0.0251261 0)
  (-0.122319 -0.0190717 0)
  (-0.121802 -0.0111472 0)
  (-0.118882 -0.00104657 0)
  (-0.112195 0.0119559 0)
  (-0.10046 0.0285044 0)
  (-0.0832316 0.0481103 0)
  (-0.0612685 0.0668584 0)
  (-0.0374395 0.0778093 0)
  (0.0023889 0.0619157 0)
  (0.142928 -0.00829571 0)
  (-0.204897 -0.108428 0)
  (-0.0432401 -0.31975 0)
  (-0.413103 -0.123192 0)
  (-0.30115 0.064352 0)
  (-0.249735 -0.0172175 0)
  (-0.209924 -0.0226113 0)
  (-0.198652 -0.0116148 0)
  (-0.194178 -0.00195237 0)
  (-0.190697 0.00605149 0)
  (-0.186172 0.0135665 0)
  (-0.1797 0.0210437 0)
  (-0.17111 0.0285642 0)
  (-0.160717 0.0360291 0)
  (-0.149656 0.0432687 0)
  (-0.139084 0.0502651 0)
  (-0.129793 0.0572946 0)
  (-0.122059 0.0643174 0)
  (-0.115923 0.0712849 0)
  (-0.111216 0.0779688 0)
  (-0.107697 0.0839552 0)
  (-0.105161 0.0888561 0)
  (-0.103425 0.0924293 0)
  (-0.102332 0.0945736 0)
  (-0.101795 0.0953559 0)
  (-0.101771 0.0947288 0)
  (-0.102217 0.0926563 0)
  (-0.103057 0.089523 0)
  (-0.104163 0.0856204 0)
  (-0.105318 0.0810431 0)
  (-0.106142 0.0758358 0)
  (-0.105961 0.0700974 0)
  (-0.103519 0.0650829 0)
  (-0.0969847 0.0617042 0)
  (-0.0839916 0.0608555 0)
  (-0.062739 0.0635113 0)
  (-0.0336709 0.070192 0)
  (0.0119911 0.0799816 0)
  (0.0550126 0.080934 0)
  (0.0957997 0.0681953 0)
  (0.160953 0.0425599 0)
  (-0.232344 -0.00746199 0)
)
;

boundaryField
{
  floor
  {
    type noSlip;
  }
  ceiling
  {
    type noSlip;
  }
  sWall
  {
    type noSlip;
  }
  nWall
  {
    type noSlip;
  }
  sideWalls
  {
    type empty;
  }
  glass1
  {
    type noSlip;
  }
  glass2
  {
    type noSlip;
  }
  sun
  {
    type noSlip;
  }
  heatsource1
  {
    type noSlip;
  }
  heatsource2
  {
    type noSlip;
  }
  Table_master
  {
    type noSlip;
  }
  Table_slave
  {
    type noSlip;
  }
  inlet
  {
    type fixedValue;
    value uniform (0.277164 -0.114805 0);
  }
  outlet
  {
    type zeroGradient;
  }
} 	// ************************************************************************* //

