/*--------------------------------*- C++ -*----------------------------------*\
  =========                 |
  \\      /  F ield         | OpenFOAM: The Open Source CFD Toolbox
   \\    /   O peration     | Website:  https://openfoam.org
    \\  /    A nd           | Version:  6
     \\/     M anipulation  |
\*---------------------------------------------------------------------------*/
FoamFile
{
    version     2.0;
    format      ascii;
    class       volScalarField;
    location    "800";
    object      nut;
}
// * * * * * * * * * * * * * * * * * * * * * * * * * * * * * * * * * * * * * //

dimensions      [0 2 -1 0 0 0 0];

internalField   nonuniform List<scalar> 
459
(
0.000651109
0.000671733
0.000602967
0.000617107
0.000634928
0.000652213
0.00066916
0.000686517
0.000704819
0.000721592
0.000736502
0.000749091
0.000758862
0.000765014
0.000763949
0.000281761
0.000268569
0.000246266
0.000222953
0.000212648
0.000210548
0.000214228
0.000224683
0.000235873
0.000245482
0.000251527
0.000251304
0.00024999
0.000254573
0.000267881
0.00029156
0.000315816
0.000382131
0.00033733
0.00112172
0.00220694
0.00170877
0.00239571
0.0026585
0.00283582
0.00297839
0.0030807
0.003141
0.00316763
0.00314598
0.00304969
0.00283103
0.00240517
0.00167643
0.00083791
0.000507602
0.000383554
0.00110927
0.00103073
0.00084796
0.000709974
0.000637902
0.000622928
0.000695037
0.0007731
0.000832871
0.000868656
0.000877233
0.000889768
0.000937901
0.00105433
0.00127704
0.00129481
0.00154278
0.000513007
0.00156296
0.00392657
0.0020225
0.00317301
0.00397392
0.00429142
0.00447948
0.00459617
0.00464901
0.00466267
0.00462662
0.00451195
0.00426343
0.00378635
0.00297336
0.00188022
0.000880501
0.000556645
0.00145342
0.00115427
0.000814542
0.000586662
0.000427455
0.000293348
0.000310416
0.000330727
0.000353022
0.000379035
0.000411476
0.000453795
0.000512711
0.000599805
0.00167648
0.00184577
0.00230487
0.000661405
0.00199486
0.00619871
0.00309275
0.00325361
0.00431284
0.00483713
0.00512994
0.00531134
0.00540979
0.00548355
0.00554283
0.0055683
0.00551012
0.00527015
0.00469192
0.00360237
0.00203784
0.000826575
0.0018902
0.00228209
0.00185318
0.00142444
0.00107696
0.00078779
0.000557393
0.000552822
0.000551135
0.000552039
0.000556605
0.000566248
0.00058327
0.000612282
0.000663559
0.00187206
0.00191193
0.00211464
0.000674445
0.00239988
0.00868384
0.00535132
0.00414162
0.0044134
0.00482899
0.00518404
0.00544724
0.00559954
0.00574331
0.00591721
0.00612823
0.00635369
0.00653552
0.00658862
0.00642864
0.00601371
0.00539493
0.00498331
0.00449542
0.00409868
0.00383024
0.00363092
0.00344209
0.00327279
0.00316189
0.0030594
0.00295863
0.00285756
0.00275524
0.00265181
0.00254921
0.00244714
0.00233602
0.00197833
0.00156438
0.00119984
0.000651074
0.000653612
0.000644129
0.00276991
0.0108352
0.00840261
0.0063973
0.00553468
0.00523083
0.00525923
0.00540765
0.00551607
0.00563362
0.00581592
0.00609927
0.00648486
0.00691846
0.00729635
0.00749856
0.00743328
0.00707951
0.00656995
0.00605162
0.00563547
0.00531859
0.00507497
0.00487742
0.0047053
0.00454849
0.0044017
0.00426187
0.0041249
0.00398498
0.00383396
0.00366092
0.0034494
0.00316766
0.00276983
0.00228049
0.00181909
0.00150987
0.00130124
0.000892126
0.00305725
0.0117349
0.0103938
0.00863844
0.00740072
0.00649648
0.00598223
0.00572526
0.00559764
0.00554227
0.00558386
0.00576264
0.00611241
0.0066202
0.00718664
0.0076254
0.00778481
0.00764891
0.00730221
0.00688178
0.00648936
0.00615509
0.00587984
0.00565176
0.00545469
0.00527723
0.00511517
0.00496628
0.00482772
0.00469529
0.00456387
0.00442756
0.00427692
0.00408877
0.00381153
0.00337236
0.00275442
0.0021761
0.0018249
0.00108151
0.00305089
0.00975974
0.00899927
0.00907024
0.00841942
0.00753949
0.00680746
0.00626003
0.00586693
0.00560264
0.00547687
0.00550265
0.00570509
0.00609408
0.00661216
0.00711293
0.00743628
0.00750937
0.00736474
0.00709767
0.00679659
0.00650959
0.00625565
0.00603716
0.00584779
0.00568015
0.00552962
0.00539367
0.00526971
0.00515409
0.00504385
0.00493788
0.00483598
0.00473299
0.00460953
0.00441178
0.00401119
0.00329647
0.00275435
0.00123397
0.0029056
0.00330819
0.0091448
0.00983963
0.00891472
0.00790897
0.00706179
0.00641535
0.00595659
0.00566096
0.00551187
0.00550001
0.00562046
0.0058588
0.00617502
0.00650471
0.00677121
0.0069145
0.00692167
0.00682627
0.00667662
0.00651026
0.00634767
0.00619944
0.00606815
0.00595204
0.00584787
0.00575268
0.00566316
0.00557533
0.00548654
0.00539588
0.00530364
0.00520938
0.00510896
0.00498953
0.00481562
0.00448774
0.00386149
0.00137798
0.0192548
0.0173893
0.0105648
0.00855094
0.00751757
0.00686551
0.00646031
0.00623868
0.00614841
0.00613866
0.00616845
0.00621565
0.0062769
0.00635791
0.0064531
0.00654368
0.00660934
0.00664134
0.00664337
0.00662447
0.0065905
0.00655077
0.00651092
0.00647303
0.00643592
0.00639543
0.00634735
0.00628978
0.00622229
0.00614475
0.00605663
0.00595653
0.00584123
0.00570279
0.00551604
0.00519363
0.00436995
0.00157907
0.00614702
0.0116541
0.00861269
0.00743577
0.00687246
0.00660841
0.00650719
0.0064972
0.00653689
0.00659885
0.00666639
0.00673225
0.00679581
0.00685849
0.00691976
0.00697636
0.00702477
0.00706339
0.00709274
0.00711499
0.00713245
0.00714779
0.00716279
0.0071782
0.00719196
0.00719247
0.00717239
0.00713574
0.00708592
0.00702349
0.00694556
0.00684552
0.0067126
0.0065306
0.00627341
0.00588591
0.00524241
0.00190066
0.00157497
0.00213932
0.00418525
0.00345872
0.00264713
0.00219778
0.00201022
0.00188419
0.00179622
0.00173613
0.00169687
0.00167306
0.00166028
0.00165489
0.00165413
0.0016561
0.00165945
0.00166311
0.00166623
0.00166829
0.00166918
0.0016691
0.00166844
0.00166743
0.00166627
0.00166505
0.00166377
0.0016629
0.00166207
0.00166019
0.00165704
0.00165259
0.00164667
0.00163862
0.00162707
0.00160965
0.00158282
0.00154294
0.00150072
0.0013474
)
;

boundaryField
{
    floor
    {
        type            nutkWallFunction;
        Cmu             0.09;
        kappa           0.41;
        E               9.8;
        value           nonuniform List<scalar> 
29
(
9.25294e-05
3.08252e-05
2.90044e-05
2.58989e-05
2.26111e-05
2.11429e-05
2.08423e-05
2.13683e-05
2.28563e-05
2.44387e-05
2.57894e-05
2.66355e-05
2.66043e-05
2.64203e-05
2.70602e-05
2.89099e-05
3.21715e-05
3.54767e-05
4.43542e-05
3.83775e-05
3.83774e-05
6.13342e-05
7.99548e-05
8.15677e-05
9.25294e-05
3.08251e-05
4.45429e-05
6.68737e-05
0.000100106
)
;
    }
    ceiling
    {
        type            nutkWallFunction;
        Cmu             0.09;
        kappa           0.41;
        E               9.8;
        value           nonuniform List<scalar> 
43
(
0.000186732
0.000248859
0.000462053
0.000387905
0.000303152
0.000255105
0.00023475
0.000220957
0.00021127
0.000204624
0.000200268
0.000197621
0.000196198
0.000195598
0.000195513
0.000195732
0.000196104
0.000196512
0.000196859
0.000197087
0.000197186
0.000197177
0.000197103
0.000196989
0.000196859
0.000196723
0.00019658
0.000196483
0.000196389
0.00019618
0.000195828
0.000195332
0.000194671
0.000193773
0.000192484
0.000190538
0.000187537
0.000183068
0.000178321
0.000160962
0.000330483
0.000372445
0.000656459
)
;
    }
    sWall
    {
        type            nutkWallFunction;
        Cmu             0.09;
        kappa           0.41;
        E               9.8;
        value           uniform 0.00018677;
    }
    nWall
    {
        type            nutkWallFunction;
        Cmu             0.09;
        kappa           0.41;
        E               9.8;
        value           nonuniform List<scalar> 6(7.77826e-05 0.000107964 0.000130323 0.00018713 0.000222756 0.000160971);
    }
    sideWalls
    {
        type            empty;
    }
    glass1
    {
        type            nutkWallFunction;
        Cmu             0.09;
        kappa           0.41;
        E               9.8;
        value           nonuniform List<scalar> 9(7.86357e-05 0.000135087 0.000185492 0.000233302 0.000277121 0.000316471 0.00034665 0.000345995 0.000330783);
    }
    glass2
    {
        type            nutkWallFunction;
        Cmu             0.09;
        kappa           0.41;
        E               9.8;
        value           nonuniform List<scalar> 2(0.000147996 0.00016446);
    }
    sun
    {
        type            nutkWallFunction;
        Cmu             0.09;
        kappa           0.41;
        E               9.8;
        value           nonuniform List<scalar> 
14
(
7.86813e-05
8.1233e-05
7.2691e-05
7.4457e-05
7.66757e-05
7.88206e-05
8.09168e-05
8.30571e-05
8.5307e-05
8.7363e-05
8.91856e-05
9.07212e-05
9.19108e-05
9.26589e-05
)
;
    }
    heatsource1
    {
        type            nutkWallFunction;
        Cmu             0.09;
        kappa           0.41;
        E               9.8;
        value           nonuniform List<scalar> 3(7.86851e-05 7.89891e-05 7.77832e-05);
    }
    heatsource2
    {
        type            nutkWallFunction;
        Cmu             0.09;
        kappa           0.41;
        E               9.8;
        value           nonuniform List<scalar> 4(0.000101471 6.06416e-05 6.06416e-05 0.000106578);
    }
    Table_master
    {
        type            nutkWallFunction;
        Cmu             0.09;
        kappa           0.41;
        E               9.8;
        value           nonuniform List<scalar> 9(3.24047e-05 3.47329e-05 3.7482e-05 4.04745e-05 4.39356e-05 4.82102e-05 5.37233e-05 6.12936e-05 7.22933e-05);
    }
    Table_slave
    {
        type            nutkWallFunction;
        Cmu             0.09;
        kappa           0.41;
        E               9.8;
        value           nonuniform List<scalar> 9(6.6961e-05 6.63834e-05 6.61701e-05 6.62842e-05 6.6861e-05 6.80774e-05 7.02188e-05 7.38511e-05 8.02208e-05);
    }
    inlet
    {
        type            calculated;
        value           uniform 3.3541e-05;
    }
    outlet
    {
        type            calculated;
        value           nonuniform List<scalar> 2(0.00157497 0.00213932);
    }
}


// ************************************************************************* //
