/*--------------------------------*- C++ -*----------------------------------*\
  =========                 |
  \\      /  F ield         | OpenFOAM: The Open Source CFD Toolbox
   \\    /   O peration     | Website:  https://openfoam.org
    \\  /    A nd           | Version:  6
     \\/     M anipulation  |
\*---------------------------------------------------------------------------*/
FoamFile
{
    version     2.0;
    format      ascii;
    class       volScalarField;
    location    "1700";
    object      epsilon;
}
// * * * * * * * * * * * * * * * * * * * * * * * * * * * * * * * * * * * * * //

dimensions      [0 2 -3 0 0 0 0];

internalField   nonuniform List<scalar> 
459
(
0.000310108
0.000383406
0.000378269
0.000424481
0.000469733
0.000512752
0.000554453
0.000596559
0.000636605
0.0006608
0.000661749
0.000634813
0.000583091
0.000519889
0.00045925
2.34533e-05
4.05497e-05
4.06078e-05
3.54598e-05
3.07987e-05
2.65094e-05
2.1866e-05
1.80129e-05
1.49098e-05
1.23998e-05
1.03834e-05
8.77463e-06
7.49722e-06
6.48507e-06
5.68144e-06
5.0169e-06
4.52284e-06
7.20046e-06
6.13881e-06
0.000912217
0.00146555
0.000360062
0.000325881
0.000330936
0.000342293
0.000359399
0.000384749
0.000417451
0.00044639
0.000460556
0.000450717
0.000415798
0.000370363
0.000356765
0.000457612
0.000238062
8.36387e-05
6.73962e-05
4.94813e-05
3.82182e-05
3.07879e-05
2.59002e-05
2.30985e-05
1.93753e-05
1.60447e-05
1.33237e-05
1.11885e-05
9.54509e-06
8.29956e-06
7.39631e-06
6.88477e-06
6.63167e-06
7.34765e-06
4.48443e-05
2.44659e-05
0.00181082
0.00401712
0.000520181
0.000325955
0.000322867
0.000343646
0.000375885
0.000420048
0.000473676
0.000522842
0.000549812
0.0005431
0.000502612
0.000441724
0.000387023
0.00036786
0.000554087
0.000207499
0.000102519
6.43984e-05
4.63822e-05
3.65697e-05
3.29159e-05
6.61877e-05
4.57968e-05
3.36971e-05
2.60951e-05
2.10497e-05
1.75409e-05
1.50085e-05
1.31398e-05
1.18015e-05
1.01371e-05
1.07577e-05
8.71298e-05
4.34302e-05
0.0031169
0.00861838
0.000947971
0.000355919
0.000327394
0.000357022
0.000405106
0.000471881
0.000554947
0.000627301
0.000661417
0.000649824
0.000598207
0.000520272
0.00043325
0.000352172
0.000321553
0.000399734
0.000196502
9.84716e-05
6.22935e-05
4.55209e-05
3.70323e-05
3.60018e-05
9.06893e-05
7.59059e-05
7.14877e-05
7.11108e-05
7.13308e-05
6.95606e-05
6.39933e-05
5.72155e-05
4.94903e-05
3.20463e-05
2.44105e-05
0.000163671
5.94115e-05
0.00494714
0.0153318
0.00200818
0.000467524
0.000350891
0.000376055
0.000440026
0.000546072
0.00068307
0.000782749
0.000813549
0.000785369
0.000713568
0.000613293
0.000498002
0.00037839
0.000279154
0.000207175
0.000127821
8.12729e-05
5.49584e-05
4.15094e-05
3.53823e-05
3.41612e-05
3.91154e-05
4.25747e-05
4.6532e-05
5.06131e-05
5.36444e-05
5.3984e-05
5.04319e-05
4.51299e-05
4.09248e-05
3.5198e-05
3.04232e-05
9.05847e-05
8.58618e-05
9.20212e-05
0.000145567
0.000213184
0.00747242
0.022398
0.00458486
0.000978956
0.000541601
0.000491817
0.00054535
0.000723534
0.000928821
0.00102775
0.00102569
0.000959673
0.000853198
0.000721547
0.000576279
0.000429094
0.000295965
0.000186995
0.000114165
7.13585e-05
4.81894e-05
3.79076e-05
3.48852e-05
3.62986e-05
4.13571e-05
4.85417e-05
5.71589e-05
6.62826e-05
7.45417e-05
7.9433e-05
7.76035e-05
6.61833e-05
5.45138e-05
4.45731e-05
3.88457e-05
5.8986e-05
7.23568e-05
7.74215e-05
0.000270382
0.00025374
0.0104534
0.0264686
0.00970743
0.00342438
0.00185396
0.00128412
0.00113945
0.00132186
0.00143013
0.00141475
0.00132201
0.001184
0.00102022
0.000842217
0.000658466
0.000478844
0.000317477
0.00018825
0.000105174
6.14167e-05
4.17064e-05
3.58175e-05
3.63898e-05
4.09246e-05
4.87613e-05
5.95702e-05
7.33422e-05
8.90464e-05
0.00010596
0.000121693
0.000131762
0.000128127
0.000106889
8.93654e-05
8.30425e-05
9.79907e-05
0.00013509
0.00020831
0.000432948
0.000430745
0.011121
0.029576
0.0163488
0.0110099
0.00715454
0.0046889
0.00345109
0.00280315
0.00235593
0.00201054
0.00171617
0.00144734
0.00119387
0.000951817
0.000721008
0.000506289
0.000319757
0.000174686
8.64346e-05
4.94085e-05
3.72831e-05
3.55895e-05
3.91967e-05
4.64995e-05
5.72472e-05
7.16544e-05
9.01451e-05
0.00011317
0.000141204
0.000174292
0.000211702
0.000250888
0.000276431
0.000297227
0.000373906
0.000591899
0.0010961
0.00183793
0.00463514
0.00134824
0.0102424
0.0171261
0.0148501
0.0112343
0.00844652
0.00633636
0.00487773
0.00383368
0.00309063
0.00252236
0.00205582
0.00165698
0.00130914
0.00100021
0.000723194
0.000477449
0.000275048
0.000125848
6.08542e-05
3.87793e-05
3.31859e-05
3.4729e-05
4.03316e-05
4.92393e-05
6.16284e-05
7.80995e-05
9.95752e-05
0.000127379
0.000163387
0.000210198
0.000271297
0.000351096
0.000455081
0.000592196
0.000786405
0.00104107
0.00130913
0.00152175
0.00170497
0.00107556
0.00628256
0.0118133
0.00842628
0.00654335
0.0052754
0.00430821
0.00345876
0.00272095
0.00211212
0.00162075
0.0012198
0.000878195
0.000584497
0.000330363
0.00014719
6.65474e-05
3.7259e-05
2.85447e-05
2.8034e-05
3.14734e-05
3.76291e-05
4.63828e-05
5.80606e-05
7.32211e-05
9.26421e-05
0.00011741
0.000149085
0.000189944
0.000243312
0.00031387
0.000408817
0.000531785
0.00068354
0.000847543
0.000975349
0.00101444
0.000925439
0.000587988
0.00471351
0.0090939
0.00675465
0.00523275
0.00424192
0.00341624
0.00269955
0.002065
0.00156811
0.00117723
0.000847489
0.000515386
0.000277062
0.000136326
6.51674e-05
3.6074e-05
2.62758e-05
2.45697e-05
2.62255e-05
2.99871e-05
3.56888e-05
4.34777e-05
5.3672e-05
6.67335e-05
8.33131e-05
0.000104361
0.000131314
0.000166376
0.000212887
0.00027573
0.000360353
0.000469887
0.000601144
0.000747024
0.000839979
0.000915296
0.000836003
0.000617645
0.00259901
0.00311198
0.00366498
0.0042649
0.00355528
0.00299803
0.00231298
0.00152637
0.000939007
0.000722325
0.000559408
0.000429689
0.000317917
0.000217423
0.000138761
8.14928e-05
4.86267e-05
3.23631e-05
2.52096e-05
2.31336e-05
2.44385e-05
2.7911e-05
3.32143e-05
4.04439e-05
4.98262e-05
6.16919e-05
7.64958e-05
9.48799e-05
0.000117822
0.000146971
0.000185467
0.000238571
0.000305814
0.000389776
0.000491857
0.000638169
0.000665387
0.000602978
0.000493499
0.000386684
)
;

boundaryField
{
    floor
    {
        Cmu             0.09;
        kappa           0.41;
        E               9.8;
        type            epsilonWallFunction;
        value           nonuniform List<scalar> 
29
(
0.00045925
2.34533e-05
4.05497e-05
4.06078e-05
3.54598e-05
3.07987e-05
2.65094e-05
2.1866e-05
1.80129e-05
1.49098e-05
1.23998e-05
1.03834e-05
8.77463e-06
7.49722e-06
6.48507e-06
5.68144e-06
5.0169e-06
4.52284e-06
7.20046e-06
6.13881e-06
6.13881e-06
2.44659e-05
4.34302e-05
5.94115e-05
0.00045925
2.34533e-05
8.36387e-05
0.000207499
0.000399734
)
;
    }
    ceiling
    {
        Cmu             0.09;
        kappa           0.41;
        E               9.8;
        type            epsilonWallFunction;
        value           nonuniform List<scalar> 
43
(
0.00259901
0.00311198
0.00366498
0.0042649
0.00355528
0.00299803
0.00231298
0.00152637
0.000939007
0.000722325
0.000559408
0.000429689
0.000317917
0.000217423
0.000138761
8.14928e-05
4.86267e-05
3.23631e-05
2.52096e-05
2.31336e-05
2.44385e-05
2.7911e-05
3.32143e-05
4.04439e-05
4.98262e-05
6.16919e-05
7.64958e-05
9.48799e-05
0.000117822
0.000146971
0.000185467
0.000238571
0.000305814
0.000389776
0.000491857
0.000638169
0.000665387
0.000602978
0.000493499
0.000386684
0.0102424
0.0171261
0.00471351
)
;
    }
    sWall
    {
        Cmu             0.09;
        kappa           0.41;
        E               9.8;
        type            epsilonWallFunction;
        value           uniform 0.00259901;
    }
    nWall
    {
        Cmu             0.09;
        kappa           0.41;
        E               9.8;
        type            epsilonWallFunction;
        value           nonuniform List<scalar> 6(0.000213184 0.00025374 0.000430745 0.000587988 0.000617645 0.000386684);
    }
    sideWalls
    {
        type            empty;
    }
    glass1
    {
        Cmu             0.09;
        kappa           0.41;
        E               9.8;
        type            epsilonWallFunction;
        value           nonuniform List<scalar> 9(0.000310108 0.000912217 0.00181082 0.0031169 0.00494714 0.00747242 0.0104534 0.011121 0.0102424);
    }
    glass2
    {
        Cmu             0.09;
        kappa           0.41;
        E               9.8;
        type            epsilonWallFunction;
        value           nonuniform List<scalar> 2(0.00134824 0.00107556);
    }
    sun
    {
        Cmu             0.09;
        kappa           0.41;
        E               9.8;
        type            epsilonWallFunction;
        value           nonuniform List<scalar> 
14
(
0.000310108
0.000383406
0.000378269
0.000424481
0.000469733
0.000512752
0.000554453
0.000596559
0.000636605
0.0006608
0.000661749
0.000634813
0.000583091
0.000519889
)
;
    }
    heatsource1
    {
        Cmu             0.09;
        kappa           0.41;
        E               9.8;
        type            epsilonWallFunction;
        value           nonuniform List<scalar> 3(9.20212e-05 0.000145567 0.000213184);
    }
    heatsource2
    {
        Cmu             0.09;
        kappa           0.41;
        E               9.8;
        type            epsilonWallFunction;
        value           nonuniform List<scalar> 4(0.000457612 0.000238062 0.000238062 0.000554087);
    }
    Table_master
    {
        Cmu             0.09;
        kappa           0.41;
        E               9.8;
        type            epsilonWallFunction;
        value           nonuniform List<scalar> 9(6.61877e-05 4.57968e-05 3.36971e-05 2.60951e-05 2.10497e-05 1.75409e-05 1.50085e-05 1.31398e-05 1.18015e-05);
    }
    Table_slave
    {
        Cmu             0.09;
        kappa           0.41;
        E               9.8;
        type            epsilonWallFunction;
        value           nonuniform List<scalar> 9(9.06893e-05 7.59059e-05 7.14877e-05 7.11108e-05 7.13308e-05 6.95606e-05 6.39933e-05 5.72155e-05 4.94903e-05);
    }
    inlet
    {
        type            turbulentMixingLengthDissipationRateInlet;
        mixingLength    0.01;
        phi             phi;
        k               k;
        value           uniform 0.000101881;
    }
    outlet
    {
        type            zeroGradient;
    }
}


// ************************************************************************* //
