/*--------------------------------*- C++ -*----------------------------------*\
  =========                 |
  \\      /  F ield         | OpenFOAM: The Open Source CFD Toolbox
   \\    /   O peration     | Website:  https://openfoam.org
    \\  /    A nd           | Version:  6
     \\/     M anipulation  |
\*---------------------------------------------------------------------------*/
FoamFile
{
    version     2.0;
    format      ascii;
    class       volScalarField;
    location    "1700";
    object      nut;
}
// * * * * * * * * * * * * * * * * * * * * * * * * * * * * * * * * * * * * * //

dimensions      [0 2 -1 0 0 0 0];

internalField   nonuniform List<scalar> 
459
(
0.000956818
0.00102692
0.0010223
0.00106234
0.00109881
0.00113137
0.00116124
0.00118991
0.00121595
0.00123117
0.00123176
0.00121482
0.00118091
0.00113662
0.00109061
0.000404646
0.000485665
0.00048587
0.000464405
0.0004431
0.0004215
0.000395298
0.000370565
0.000347931
0.000327193
0.000308396
0.000291563
0.000276662
0.000263601
0.000252225
0.000241977
0.000233757
0.000273009
0.000258869
0.001371
0.00307628
0.00283655
0.00330032
0.00368211
0.00406899
0.00443479
0.00473657
0.00495304
0.0051224
0.00520596
0.00514498
0.00485067
0.00415778
0.00277393
0.00108932
0.000876222
0.000618262
0.000908467
0.00111095
0.00129356
0.00141441
0.00142556
0.00120083
0.00104652
0.00092483
0.000829942
0.000756146
0.000699076
0.000655411
0.000622854
0.000600933
0.000584916
0.000550784
0.000812618
0.000410427
0.00172308
0.00429684
0.00339949
0.00458063
0.00504392
0.00535304
0.0055799
0.00574742
0.00587729
0.00601033
0.00612406
0.00617673
0.00611517
0.00586368
0.00525391
0.00385568
0.00116109
0.000836846
0.00138848
0.00171782
0.00197927
0.00213889
0.00197548
0.000571789
0.000505735
0.000456572
0.000419275
0.000390298
0.000367282
0.000348682
0.000333566
0.000321837
0.000366292
0.000427624
0.000879099
0.000496941
0.00206504
0.00574869
0.00340159
0.0049297
0.00550261
0.00565528
0.00569109
0.00570439
0.00574185
0.00583846
0.00597373
0.00610935
0.00620785
0.00622874
0.00610429
0.00565206
0.00443966
0.00104122
0.00183923
0.00237285
0.00267672
0.00286508
0.00294153
0.00255309
0.000635053
0.0005985
0.000586675
0.00058566
0.000586278
0.000581399
0.000565465
0.000544758
0.000519052
0.00050188
0.000513231
0.00105935
0.000551661
0.00240885
0.00758377
0.00390476
0.00467122
0.0055456
0.00567048
0.0055821
0.00547019
0.00543455
0.00551785
0.00566812
0.00584395
0.00601308
0.00613277
0.00614397
0.00595833
0.00546079
0.00439009
0.00389791
0.00368636
0.0036045
0.00360444
0.00359169
0.00341578
0.00287103
0.00273999
0.00270845
0.00269233
0.00265791
0.0025856
0.00245835
0.00218201
0.00180408
0.00140878
0.001064
0.000982647
0.000858951
0.000638258
0.00074368
0.000844531
0.00276386
0.00952701
0.00569065
0.00450416
0.00511376
0.00545315
0.00549947
0.00532014
0.00524062
0.00532019
0.00546752
0.00564783
0.00583362
0.00597617
0.00600893
0.00586527
0.00551207
0.00494147
0.00445491
0.00415525
0.00400592
0.00391529
0.00379414
0.00361996
0.00341896
0.00331132
0.00325016
0.00320587
0.0031568
0.00308855
0.00299267
0.00283383
0.00254357
0.00214014
0.00169873
0.00121119
0.00106817
0.000931188
0.00128409
0.000895
0.00309115
0.010948
0.00844882
0.00594745
0.00517126
0.0051041
0.00532203
0.00530285
0.00526485
0.00529083
0.00539098
0.00554691
0.00572258
0.00586132
0.00588779
0.0057309
0.00536551
0.00485857
0.0044333
0.00419292
0.00402223
0.00379069
0.00354098
0.0033392
0.00321014
0.00315099
0.00312714
0.00312154
0.00311664
0.0031031
0.00307867
0.00304072
0.0028889
0.00257124
0.00218293
0.00178298
0.00156586
0.00153733
0.00159529
0.00106763
0.00315562
0.0100477
0.00883668
0.00794008
0.00692816
0.00619476
0.00591017
0.00561781
0.00539597
0.005327
0.00538845
0.00552546
0.00568315
0.0057966
0.00578454
0.00557335
0.00514382
0.0046076
0.0042232
0.00398048
0.00365951
0.00329777
0.00302314
0.00287142
0.00281504
0.00281676
0.00284713
0.00288864
0.00293377
0.00298326
0.00304714
0.00314041
0.0032376
0.00312173
0.00294878
0.00294354
0.00325847
0.00371021
0.00422851
0.00156177
0.00307023
0.00364413
0.00426435
0.00457094
0.00477618
0.00481856
0.0048019
0.00483164
0.00497169
0.00517192
0.00537782
0.005559
0.00569817
0.00575026
0.00563941
0.00530449
0.00475181
0.00419881
0.0038241
0.00344517
0.00299781
0.00264872
0.00246549
0.00240566
0.00241606
0.00246048
0.00251641
0.00256988
0.00261229
0.00263894
0.00264852
0.00264226
0.00262461
0.00260931
0.00260213
0.00259584
0.00252366
0.0023502
0.00215816
0.00144848
0.00240917
0.00495082
0.00517087
0.00533965
0.00552675
0.0057351
0.00585415
0.00587872
0.00584357
0.00579475
0.00574317
0.00560506
0.00526745
0.0047198
0.00405033
0.0035124
0.00307746
0.00259493
0.00220699
0.00200494
0.0019426
0.00195869
0.00201554
0.0020921
0.00217565
0.00225797
0.0023338
0.00240063
0.00245893
0.00251146
0.00256471
0.00260424
0.00261918
0.00258723
0.00246948
0.00226884
0.00200038
0.00118438
0.00237062
0.00554521
0.00587034
0.00587296
0.00594946
0.00602796
0.00596733
0.00565592
0.00535033
0.00514581
0.00501969
0.00474938
0.00410867
0.0034168
0.00284818
0.00239778
0.0019812
0.00166472
0.00147703
0.00140496
0.00140788
0.0014551
0.0015303
0.00162505
0.00173493
0.00185738
0.00199012
0.00212934
0.00226705
0.00239309
0.00252268
0.00264151
0.00272842
0.00277725
0.00272362
0.00268306
0.00255623
0.00120397
0.0019438
0.0020642
0.0021799
0.00229292
0.00215795
0.00203874
0.00186985
0.00162784
0.00138418
0.00126816
0.00116454
0.00106652
0.000964672
0.000849944
0.000731871
0.000612891
0.000515945
0.000450439
0.000414449
0.000402764
0.000410231
0.000428826
0.000454441
0.000485284
0.000520237
0.000558633
0.000600154
0.000644823
0.000693088
0.000746085
0.000806237
0.00087682
0.000952477
0.00103269
0.00111594
0.00121716
0.00123422
0.00119436
0.0011172
0.00102996
)
;

boundaryField
{
    floor
    {
        type            nutkWallFunction;
        Cmu             0.09;
        kappa           0.41;
        E               9.8;
        value           nonuniform List<scalar> 
29
(
0.000131347
4.73681e-05
5.78781e-05
5.7907e-05
5.51455e-05
5.23884e-05
4.9576e-05
4.61401e-05
4.28704e-05
3.98538e-05
3.70678e-05
3.45227e-05
3.22264e-05
3.01791e-05
2.83726e-05
2.67895e-05
2.53552e-05
2.41986e-05
2.96714e-05
2.77113e-05
2.77112e-05
4.81249e-05
5.93208e-05
6.62732e-05
0.000131347
4.7368e-05
7.46241e-05
0.000101346
0.000125584
)
;
    }
    ceiling
    {
        type            nutkWallFunction;
        Cmu             0.09;
        kappa           0.41;
        E               9.8;
        value           nonuniform List<scalar> 
43
(
0.000227258
0.000240286
0.000252781
0.000265027
0.000250519
0.000237611
0.000219173
0.000192431
0.000165076
0.000151864
0.000139943
0.000128549
0.000116578
0.00010292
8.86304e-05
7.396e-05
6.17541e-05
5.33475e-05
4.86633e-05
4.71297e-05
4.8106e-05
5.05335e-05
5.3857e-05
5.78285e-05
6.22922e-05
6.71534e-05
7.23649e-05
7.7923e-05
8.3877e-05
9.0358e-05
9.76487e-05
0.000106123
0.000115118
0.000124567
0.000134284
0.000145987
0.000147949
0.000143361
0.000134429
0.000124246
0.000347469
0.000406745
0.000273139
)
;
    }
    sWall
    {
        type            nutkWallFunction;
        Cmu             0.09;
        kappa           0.41;
        E               9.8;
        value           uniform 0.000227316;
    }
    nWall
    {
        type            nutkWallFunction;
        Cmu             0.09;
        kappa           0.41;
        E               9.8;
        value           nonuniform List<scalar> 6(0.00010226 0.000108297 0.000128664 0.00014222 0.000144479 0.000124253);
    }
    sideWalls
    {
        type            empty;
    }
    glass1
    {
        type            nutkWallFunction;
        Cmu             0.09;
        kappa           0.41;
        E               9.8;
        value           nonuniform List<scalar> 9(0.000115704 0.000163773 0.000203327 0.000240895 0.000277996 0.000315721 0.000350052 0.000356777 0.000347893);
    }
    glass2
    {
        type            nutkWallFunction;
        Cmu             0.09;
        kappa           0.41;
        E               9.8;
        value           nonuniform List<scalar> 2(0.000185156 0.000172413);
    }
    sun
    {
        type            nutkWallFunction;
        Cmu             0.09;
        kappa           0.41;
        E               9.8;
        value           nonuniform List<scalar> 
14
(
0.000115644
0.000123902
0.000123361
0.000128051
0.000132306
0.000136091
0.000139553
0.000142866
0.000145868
0.000147618
0.000147686
0.000145737
0.000141825
0.000136698
)
;
    }
    heatsource1
    {
        type            nutkWallFunction;
        Cmu             0.09;
        kappa           0.41;
        E               9.8;
        value           nonuniform List<scalar> 3(7.71128e-05 9.00674e-05 0.000102257);
    }
    heatsource2
    {
        type            nutkWallFunction;
        Cmu             0.09;
        kappa           0.41;
        E               9.8;
        value           nonuniform List<scalar> 4(0.000131193 0.000106048 0.000106048 0.000139522);
    }
    Table_master
    {
        type            nutkWallFunction;
        Cmu             0.09;
        kappa           0.41;
        E               9.8;
        value           nonuniform List<scalar> 9(6.88202e-05 6.04545e-05 5.41409e-05 4.92946e-05 4.54919e-05 4.2446e-05 3.99666e-05 3.79392e-05 3.63577e-05);
    }
    Table_slave
    {
        type            nutkWallFunction;
        Cmu             0.09;
        kappa           0.41;
        E               9.8;
        value           nonuniform List<scalar> 9(7.67247e-05 7.21692e-05 7.06872e-05 7.05582e-05 7.06343e-05 7.00215e-05 6.80181e-05 6.54051e-05 6.21443e-05);
    }
    inlet
    {
        type            calculated;
        value           uniform 0.000100623;
    }
    outlet
    {
        type            calculated;
        value           nonuniform List<scalar> 2(0.0019438 0.0020642);
    }
}


// ************************************************************************* //
