/*--------------------------------*- C++ -*----------------------------------*\
  =========                 |
  \\      /  F ield         | OpenFOAM: The Open Source CFD Toolbox
   \\    /   O peration     | Website:  https://openfoam.org
    \\  /    A nd           | Version:  6
     \\/     M anipulation  |
\*---------------------------------------------------------------------------*/
FoamFile
{
    version     2.0;
    format      ascii;
    class       volScalarField;
    location    "680";
    object      alphat;
}
// * * * * * * * * * * * * * * * * * * * * * * * * * * * * * * * * * * * * * //

dimensions      [1 -1 -1 0 0 0 0];

internalField   nonuniform List<scalar> 
459
(
0.000974426
0.00106361
0.0010894
0.0011429
0.00119209
0.00123845
0.00128446
0.00133218
0.00137219
0.00139961
0.00140797
0.00139033
0.00133841
0.00123538
0.00100589
0.000586203
0.000815975
0.000789499
0.000763851
0.000738998
0.000710849
0.00067258
0.00063292
0.000596178
0.000563033
0.000533413
0.000506879
0.000482804
0.000460528
0.000439241
0.00041772
0.000394599
0.000357862
0.000341175
0.0013108
0.00299453
0.00277233
0.00318051
0.00359907
0.00403742
0.00444392
0.00475532
0.0050835
0.00540963
0.00569913
0.0059096
0.00598162
0.00580223
0.00489265
0.00110823
0.000749921
0.000835899
0.002364
0.00227283
0.00245271
0.00258609
0.00253711
0.00197682
0.00170062
0.00150941
0.00136398
0.0012467
0.00114404
0.00105108
0.000962472
0.000876255
0.000803112
0.000779962
0.000666349
0.000434245
0.00159416
0.00401752
0.00338145
0.00411871
0.00445218
0.0046966
0.00488834
0.00505435
0.00529894
0.00562416
0.00601369
0.00643097
0.00680502
0.00702083
0.00670993
0.00510016
0.0011348
0.00103233
0.00189082
0.00256363
0.00306714
0.00337221
0.00317596
0.000916398
0.000810427
0.000725544
0.000657511
0.000602501
0.000557739
0.000521146
0.00049156
0.000469089
0.000527811
0.000660338
0.000734359
0.000476405
0.00186715
0.00505591
0.00329559
0.00427587
0.00444901
0.00443078
0.00440237
0.00445792
0.00464263
0.00496264
0.00541575
0.00597083
0.0065375
0.00701539
0.0071638
0.00665256
0.00429472
0.00136294
0.00191194
0.00263978
0.00339547
0.00399763
0.0043366
0.00397657
0.00101098
0.00092888
0.000875999
0.000840239
0.000812984
0.000787259
0.000757799
0.000727114
0.000690214
0.000658174
0.000685017
0.000833754
0.000538988
0.00214645
0.00643472
0.00337083
0.00405492
0.00426202
0.00408552
0.00392431
0.0039495
0.00412661
0.00444845
0.00493482
0.00555851
0.00617808
0.0066501
0.00690842
0.00687517
0.00639517
0.00554996
0.00543395
0.00553861
0.00566421
0.00572898
0.00569251
0.00544421
0.00459838
0.00425342
0.00409524
0.00400311
0.00391908
0.00380315
0.00359801
0.00320554
0.00266615
0.0020578
0.00154936
0.00133735
0.000924566
0.000625376
0.000625375
0.000617185
0.00244464
0.00801772
0.00441817
0.00369919
0.00404244
0.00396073
0.00376273
0.00374998
0.00392389
0.00424278
0.00474664
0.00538288
0.00600333
0.00645401
0.00667684
0.00673069
0.00672052
0.00672855
0.00680351
0.0068181
0.00673002
0.00655005
0.00630668
0.00602111
0.0057022
0.00549004
0.005356
0.00525938
0.0051698
0.00505515
0.00487643
0.00455961
0.0040733
0.00343576
0.00275237
0.00223116
0.0017208
0.00133464
0.00146855
0.000809356
0.0027447
0.00928722
0.0065913
0.00424096
0.00377872
0.00387068
0.00387278
0.00386722
0.00396176
0.00425049
0.00476889
0.00544314
0.0060961
0.00654873
0.00674698
0.00680989
0.00691983
0.00710581
0.00720739
0.00712453
0.00688966
0.00656966
0.00623028
0.00592728
0.00569891
0.00555651
0.00546697
0.00540387
0.00534764
0.00526888
0.0051348
0.00493503
0.00463969
0.00419224
0.00363756
0.00308972
0.00253642
0.00204496
0.00191717
0.000967216
0.00282927
0.00902156
0.0074059
0.00600042
0.00505445
0.00469092
0.00435477
0.00410005
0.00409838
0.00440621
0.00499573
0.00574265
0.00643448
0.00688216
0.00705434
0.00709959
0.00714555
0.00716677
0.00705199
0.00680319
0.00648477
0.00615761
0.00586907
0.0056434
0.0054812
0.00536346
0.00526758
0.00518476
0.00510984
0.00501972
0.00488148
0.00471219
0.00458174
0.00441691
0.00411078
0.00377883
0.00342146
0.00286911
0.00305033
0.00125492
0.00277906
0.00336485
0.00372549
0.00386433
0.00383316
0.00374013
0.00368582
0.00376775
0.00409083
0.00468104
0.00546838
0.00630987
0.00698735
0.00734249
0.00740038
0.0073066
0.00708756
0.00684972
0.00660592
0.00635802
0.00612208
0.00591357
0.0057392
0.0055915
0.00545387
0.00530769
0.00514113
0.00495532
0.00475686
0.00453129
0.00422646
0.00383037
0.00342923
0.0031036
0.00283596
0.00259195
0.0023776
0.00219402
0.00206755
0.00131393
0.00147111
0.00235106
0.00293316
0.00330973
0.00367648
0.00423277
0.00492309
0.00568866
0.00647794
0.00720318
0.00763996
0.00767486
0.007437
0.00717043
0.00696292
0.00680643
0.00667211
0.00654338
0.00641854
0.00630299
0.00619538
0.00608494
0.005954
0.00578079
0.00554414
0.00523066
0.00484395
0.0044096
0.00396006
0.00350454
0.00310007
0.00278893
0.00257299
0.00242916
0.00231397
0.0021855
0.00206568
0.00144511
0.00173165
0.0029199
0.00368504
0.00438915
0.00527416
0.00600463
0.00654901
0.00711802
0.00773986
0.00834161
0.0085767
0.00839033
0.00799464
0.00768519
0.00751638
0.00743764
0.00738996
0.00733183
0.00724899
0.0071728
0.00711128
0.00706396
0.00702138
0.00696156
0.00684871
0.00663864
0.00629397
0.00580625
0.00523705
0.00463985
0.00407159
0.00357499
0.00317604
0.00287715
0.00264846
0.00248199
0.003228
0.00159608
0.001602
0.00168713
0.00175928
0.00192381
0.00189537
0.00180552
0.00172746
0.00172392
0.00179144
0.0018607
0.0019114
0.00192463
0.00189266
0.00184001
0.00179959
0.00177132
0.00175389
0.00174229
0.00173269
0.00172454
0.00171998
0.00171695
0.00171507
0.00171269
0.00170679
0.00169328
0.00166801
0.00162883
0.00157826
0.00152564
0.00147467
0.0014302
0.00139495
0.00137087
0.00135912
0.00135818
0.00136032
0.00134793
0.00134832
0.00131116
)
;

boundaryField
{
    floor
    {
        type            compressible::alphatWallFunction;
        Prt             0.85;
        value           nonuniform List<scalar> 
29
(
0.000143401
8.25561e-05
0.00011635
0.000112524
0.000108802
0.00010518
0.000101061
9.54271e-05
8.95474e-05
8.40595e-05
7.9073e-05
7.45857e-05
7.05394e-05
6.68447e-05
6.34054e-05
6.00988e-05
5.67349e-05
5.30957e-05
4.72552e-05
4.45742e-05
4.45736e-05
5.93189e-05
6.58589e-05
7.54335e-05
0.0001434
8.25551e-05
0.000119221
0.000147122
0.000192756
)
;
    }
    ceiling
    {
        type            compressible::alphatWallFunction;
        Prt             0.85;
        value           nonuniform List<scalar> 
43
(
0.000224873
0.000236203
0.000245757
0.000267409
0.000263696
0.000251898
0.000241599
0.00024114
0.000250072
0.000259193
0.000265847
0.000267583
0.000263398
0.000256488
0.000251168
0.00024744
0.000245137
0.000243603
0.000242334
0.000241254
0.000240651
0.00024025
0.00024
0.000239685
0.000238903
0.000237111
0.000233756
0.000228542
0.000221791
0.000214741
0.000207886
0.000201884
0.000197111
0.000193843
0.000192246
0.000192118
0.000192409
0.000190724
0.000190777
0.000185712
0.000377119
0.000450049
0.000242079
)
;
    }
    sWall
    {
        type            compressible::alphatWallFunction;
        Prt             0.85;
        value           uniform 0.000224068;
    }
    nWall
    {
        type            compressible::alphatWallFunction;
        Prt             0.85;
        value           nonuniform List<scalar> 6(8.68578e-05 0.000115033 0.000137575 0.000203503 0.000223771 0.000185318);
    }
    sideWalls
    {
        type            empty;
    }
    glass1
    {
        type            compressible::alphatWallFunction;
        Prt             0.85;
        value           nonuniform List<scalar> 9(0.000136639 0.000182902 0.000220876 0.000256795 0.000292984 0.000331088 0.000368955 0.000379607 0.000373421);
    }
    glass2
    {
        type            compressible::alphatWallFunction;
        Prt             0.85;
        value           nonuniform List<scalar> 2(0.000176844 0.000184922);
    }
    sun
    {
        type            compressible::alphatWallFunction;
        Prt             0.85;
        value           nonuniform List<scalar> 
14
(
0.000138976
0.000151506
0.000155107
0.000162549
0.000169355
0.00017574
0.000182051
0.000188568
0.000194013
0.000197732
0.000198865
0.000196474
0.000189415
0.000175317
)
;
    }
    heatsource1
    {
        type            compressible::alphatWallFunction;
        Prt             0.85;
        value           nonuniform List<scalar> 3(8.82774e-05 8.82773e-05 8.7056e-05);
    }
    heatsource2
    {
        type            compressible::alphatWallFunction;
        Prt             0.85;
        value           nonuniform List<scalar> 4(0.000157573 0.000106623 0.000106622 0.000161263);
    }
    Table_master
    {
        type            compressible::alphatWallFunction;
        Prt             0.85;
        value           nonuniform List<scalar> 9(0.000130583 0.000115396 0.000103061 9.30479e-05 8.48596e-05 7.81284e-05 7.25759e-05 6.8051e-05 6.45913e-05);
    }
    Table_slave
    {
        type            compressible::alphatWallFunction;
        Prt             0.85;
        value           nonuniform List<scalar> 9(0.000143966 0.000132361 0.000124822 0.000119694 0.000115768 0.000112048 0.00010777 0.000103293 9.78781e-05);
    }
    inlet
    {
        type            fixedValue;
        value           uniform 1.94e-05;
    }
    outlet
    {
        type            zeroGradient;
    }
}


// ************************************************************************* //
