/*--------------------------------*- C++ -*----------------------------------*\
  =========                 |
  \\      /  F ield         | OpenFOAM: The Open Source CFD Toolbox
   \\    /   O peration     | Website:  https://openfoam.org
    \\  /    A nd           | Version:  6
     \\/     M anipulation  |
\*---------------------------------------------------------------------------*/
FoamFile
{
    version     2.0;
    format      ascii;
    class       volScalarField;
    location    "680";
    object      nut;
}
// * * * * * * * * * * * * * * * * * * * * * * * * * * * * * * * * * * * * * //

dimensions      [0 2 -1 0 0 0 0];

internalField   nonuniform List<scalar> 
459
(
0.000839664
0.00091611
0.000938309
0.000984397
0.00102677
0.00106669
0.00110633
0.00114743
0.00118188
0.00120548
0.00121266
0.00119745
0.00115272
0.00106397
0.000866261
0.000504777
0.00070282
0.000680072
0.000658004
0.000636607
0.000612366
0.000579399
0.000545231
0.000513575
0.000485018
0.000459498
0.000436638
0.000415894
0.000396702
0.000378361
0.000359818
0.000339896
0.00030824
0.000293805
0.0011299
0.00257957
0.00238811
0.00273976
0.00310036
0.003478
0.00382818
0.0040964
0.00437902
0.00465977
0.00490893
0.00509005
0.00515202
0.00499753
0.00421413
0.000954569
0.000645946
0.000720009
0.00203652
0.00195807
0.00211312
0.00222809
0.00218593
0.00170321
0.00146524
0.00130049
0.00117518
0.00107414
0.000985684
0.000905591
0.000829238
0.000754947
0.000691913
0.000671941
0.000574025
0.000374056
0.00137462
0.0034612
0.00291309
0.00354833
0.00383573
0.0040464
0.00421164
0.00435465
0.00456521
0.00484505
0.00518017
0.00553925
0.00586131
0.00604728
0.00577964
0.00439315
0.000977493
0.000889318
0.00162897
0.00220872
0.00264266
0.00290563
0.00273662
0.000789628
0.000698316
0.000625175
0.000566553
0.000519153
0.000480583
0.000449051
0.000423557
0.000404191
0.00045478
0.000568947
0.000632679
0.000410417
0.00161058
0.00435634
0.00283936
0.0036841
0.00383349
0.00381797
0.00379362
0.00384151
0.00400044
0.00427567
0.00466539
0.00514301
0.0056309
0.00604266
0.00617076
0.00573059
0.00369959
0.00117411
0.00164714
0.00227432
0.0029256
0.00344466
0.00373694
0.00342684
0.000871252
0.000800524
0.00075497
0.000724167
0.000700691
0.00067853
0.000653147
0.000626706
0.000594904
0.000567241
0.000590317
0.000718412
0.000464381
0.00185212
0.00554516
0.00290441
0.00349401
0.00367275
0.00352096
0.00338228
0.00340406
0.00355642
0.0038331
0.00425132
0.0047879
0.00532132
0.00572806
0.00595095
0.00592268
0.00550945
0.00478156
0.00468191
0.00477242
0.00488099
0.00493712
0.00490596
0.00469218
0.00396335
0.00366614
0.00352989
0.00345055
0.00337817
0.00327828
0.00310147
0.00276315
0.00229818
0.00177372
0.00133536
0.0011525
0.000796681
0.000538875
0.000538877
0.000531875
0.00211008
0.00691053
0.00380723
0.0031877
0.00348376
0.00341369
0.00324342
0.00323262
0.00338213
0.00365613
0.0040893
0.00463662
0.00517078
0.00555922
0.00575168
0.00579863
0.00579033
0.00579769
0.00586271
0.00587572
0.00580021
0.00564545
0.00543596
0.00519003
0.0049153
0.00473253
0.00461708
0.00453385
0.00445666
0.00435784
0.00420378
0.00393063
0.00351136
0.00296168
0.00237245
0.00192303
0.001483
0.00115016
0.00126553
0.000697516
0.00236973
0.00800688
0.00568115
0.0036551
0.00325683
0.00333637
0.00333863
0.00333394
0.00341492
0.00366278
0.00410835
0.00468836
0.00525058
0.00564089
0.00581245
0.00586744
0.00596283
0.00612365
0.00621167
0.0061407
0.00593863
0.00566308
0.00537075
0.00510971
0.00491294
0.00479025
0.00471309
0.00465872
0.00461025
0.00454235
0.00442673
0.00425447
0.0039998
0.00361397
0.00313567
0.00266326
0.00218616
0.00176247
0.00165226
0.000833603
0.00244373
0.00778337
0.00638742
0.00517411
0.00435801
0.00404458
0.00375497
0.00353494
0.00353251
0.00379649
0.00430317
0.00494585
0.00554185
0.00592833
0.00607782
0.00611788
0.00615828
0.00617715
0.00607867
0.00586454
0.0055903
0.00530845
0.00505983
0.00486535
0.00472556
0.00462408
0.00454143
0.00447002
0.0044054
0.00432768
0.00420847
0.00406248
0.00394996
0.00380778
0.00354376
0.00325746
0.00294924
0.00247301
0.00262912
0.00108187
0.00240166
0.00290639
0.00321665
0.0033353
0.0033075
0.00322665
0.00317894
0.00324809
0.00352482
0.00403175
0.0047089
0.00543355
0.00601798
0.00632552
0.00637697
0.0062974
0.00610931
0.00590472
0.00569485
0.00548134
0.00527808
0.0050984
0.00494814
0.00482083
0.00470218
0.00457615
0.00443254
0.00427232
0.00410119
0.00390668
0.00364384
0.00330231
0.00295644
0.00267569
0.00244494
0.00223458
0.00204983
0.00189163
0.00178269
0.00113306
0.00126006
0.00201864
0.00252166
0.00284675
0.00316257
0.00364137
0.00423566
0.00489519
0.00557587
0.00620234
0.00658095
0.00661342
0.00640995
0.00618102
0.00600259
0.00586796
0.00575234
0.00564147
0.00553391
0.00543434
0.00534159
0.00524639
0.0051335
0.00498416
0.00478011
0.00450983
0.00417639
0.00380188
0.00341429
0.00302153
0.0026728
0.00240455
0.00221838
0.0020944
0.00199513
0.00188444
0.00178122
0.00124623
0.00148352
0.00250628
0.00316568
0.00377213
0.0045338
0.00516326
0.00563352
0.00612563
0.00666385
0.00718541
0.00739053
0.00723164
0.00689159
0.00662537
0.00648014
0.00641243
0.00637144
0.0063214
0.00625003
0.00618437
0.00613135
0.00609058
0.00605388
0.00600232
0.00590503
0.00572393
0.00542675
0.00500625
0.00451547
0.00400056
0.00351059
0.00308242
0.00273845
0.00248076
0.00228361
0.00214013
0.0027835
0.00137639
0.00137461
0.00144747
0.00150937
0.00165227
0.00162878
0.00155222
0.0014858
0.00148353
0.00154239
0.00160267
0.00164686
0.00165867
0.00163137
0.00158615
0.00155139
0.00152708
0.00151207
0.00150209
0.00149383
0.00148681
0.00148289
0.00148029
0.00147867
0.00147662
0.00147155
0.0014599
0.00143813
0.00140435
0.00136076
0.0013154
0.00127147
0.00123313
0.00120275
0.001182
0.00117187
0.00117107
0.00117293
0.00116226
0.0011626
0.00113067
)
;

boundaryField
{
    floor
    {
        type            nutkWallFunction;
        Cmu             0.09;
        kappa           0.41;
        E               9.8;
        value           nonuniform List<scalar> 
29
(
0.000104856
6.03302e-05
8.50727e-05
8.22783e-05
7.95567e-05
7.69076e-05
7.38931e-05
6.97702e-05
6.54668e-05
6.14504e-05
5.78011e-05
5.45172e-05
5.15563e-05
4.88527e-05
4.63362e-05
4.39168e-05
4.14557e-05
3.87932e-05
3.45207e-05
3.25549e-05
3.25549e-05
4.33469e-05
4.81357e-05
5.51465e-05
0.000104856
6.03302e-05
8.71775e-05
0.000107612
0.000141016
)
;
    }
    ceiling
    {
        type            nutkWallFunction;
        Cmu             0.09;
        kappa           0.41;
        E               9.8;
        value           nonuniform List<scalar> 
43
(
0.000163943
0.000172186
0.000179153
0.000195132
0.000192524
0.000183978
0.000176527
0.000176277
0.000182891
0.000189637
0.000194566
0.00019588
0.000192844
0.000187798
0.000183911
0.000181185
0.0001795
0.000178379
0.00017745
0.00017666
0.000176219
0.000175926
0.000175744
0.000175513
0.000174941
0.000173629
0.000171171
0.000167351
0.000162406
0.000157241
0.000152219
0.000147822
0.000144325
0.000141932
0.000140762
0.000140669
0.000140884
0.000139651
0.00013969
0.000135992
0.000276836
0.000330242
0.000176234
)
;
    }
    sWall
    {
        type            nutkWallFunction;
        Cmu             0.09;
        kappa           0.41;
        E               9.8;
        value           uniform 0.000163973;
    }
    nWall
    {
        type            nutkWallFunction;
        Cmu             0.09;
        kappa           0.41;
        E               9.8;
        value           nonuniform List<scalar> 6(6.37606e-05 8.4418e-05 0.000100945 0.000149339 0.000164197 0.000136002);
    }
    sideWalls
    {
        type            empty;
    }
    glass1
    {
        type            nutkWallFunction;
        Cmu             0.09;
        kappa           0.41;
        E               9.8;
        value           nonuniform List<scalar> 9(0.000101684 0.000135973 0.000164094 0.000190678 0.00021745 0.000245628 0.00027362 0.00028154 0.000277048);
    }
    glass2
    {
        type            nutkWallFunction;
        Cmu             0.09;
        kappa           0.41;
        E               9.8;
        value           nonuniform List<scalar> 2(0.000130341 0.000136299);
    }
    sun
    {
        type            nutkWallFunction;
        Cmu             0.09;
        kappa           0.41;
        E               9.8;
        value           nonuniform List<scalar> 
14
(
0.000101671
0.000110802
0.000113437
0.000118884
0.000123866
0.000128539
0.000133159
0.000137929
0.000141913
0.000144634
0.000145461
0.000143709
0.000138541
0.000128221
)
;
    }
    heatsource1
    {
        type            nutkWallFunction;
        Cmu             0.09;
        kappa           0.41;
        E               9.8;
        value           nonuniform List<scalar> 3(6.46563e-05 6.46565e-05 6.37686e-05);
    }
    heatsource2
    {
        type            nutkWallFunction;
        Cmu             0.09;
        kappa           0.41;
        E               9.8;
        value           nonuniform List<scalar> 4(0.000115364 7.80633e-05 7.80633e-05 0.000118073);
    }
    Table_master
    {
        type            nutkWallFunction;
        Cmu             0.09;
        kappa           0.41;
        E               9.8;
        value           nonuniform List<scalar> 9(9.56421e-05 8.45188e-05 7.54839e-05 6.81504e-05 6.2153e-05 5.72229e-05 5.31561e-05 4.98418e-05 4.73074e-05);
    }
    Table_slave
    {
        type            nutkWallFunction;
        Cmu             0.09;
        kappa           0.41;
        E               9.8;
        value           nonuniform List<scalar> 9(0.000105457 9.69588e-05 9.14389e-05 8.76842e-05 8.48098e-05 8.20859e-05 7.89529e-05 7.56735e-05 7.17072e-05);
    }
    inlet
    {
        type            calculated;
        value           uniform 0.000100623;
    }
    outlet
    {
        type            calculated;
        value           nonuniform List<scalar> 2(0.00137461 0.00144747);
    }
}


// ************************************************************************* //
