/*--------------------------------*- C++ -*----------------------------------*\
  =========                 |
  \\      /  F ield         | OpenFOAM: The Open Source CFD Toolbox
   \\    /   O peration     | Website:  https://openfoam.org
    \\  /    A nd           | Version:  6
     \\/     M anipulation  |
\*---------------------------------------------------------------------------*/
FoamFile
{
    version     2.0;
    format      ascii;
    class       surfaceScalarField;
    location    "680";
    object      phi;
}
// * * * * * * * * * * * * * * * * * * * * * * * * * * * * * * * * * * * * * //

dimensions      [1 0 -1 0 0 0 0];

internalField   nonuniform List<scalar> 
852
(
-0.00231523
0.00235036
-0.00314983
0.000834601
-0.00381914
0.000669297
-0.00435632
0.000537178
-0.0047322
0.000375873
-0.00492161
0.000189412
-0.00489721
-2.44134e-05
-0.00462897
-0.000268238
-0.00410922
-0.000519761
-0.00337507
-0.000734152
-0.00250424
-0.000870833
-0.00159849
-0.00090576
-0.000771975
-0.000826515
-0.00016005
-0.000611931
-0.000162528
6.03783e-05
-6.39583e-05
0.000288358
-0.000227985
0.000663792
-0.000375439
0.00101389
-0.000350107
0.00129272
-0.000278835
0.00149266
-0.000199941
0.00159854
-0.000105886
0.00163861
-4.00709e-05
0.00165332
-1.4719e-05
0.00165705
-3.73854e-06
0.00165221
4.83289e-06
0.00163838
1.38327e-05
0.00161083
2.75424e-05
0.00155562
5.52009e-05
0.00143936
0.00011626
0.00120404
0.000235311
0.000796493
0.00040754
0.000125732
0.000670755
0.000120666
-0.00171005
0.00415653
-0.00253994
0.00166448
-0.0032415
0.00137086
-0.00378318
0.00107885
-0.00416253
0.000755227
-0.00436361
0.000390485
-0.00435849
-2.95435e-05
-0.00412006
-0.000506671
-0.00364714
-0.000992682
-0.00298881
-0.00139249
-0.00222909
-0.00163055
-0.00146631
-0.00166855
-0.000796926
-0.0014959
-0.000286695
-0.00112217
0.000125484
-0.000574712
0.000220195
-9.47664e-05
0.000220139
-8.11087e-05
8.48829e-06
0.000594673
-0.000903772
0.000961694
-0.000742465
0.00123276
-0.000621179
0.0014458
-0.000491877
0.00159388
-0.000348027
0.0016266
-0.000138618
0.00163455
-4.80207e-05
0.00164243
-2.26051e-05
0.00164889
-1.02093e-05
0.00165293
7.88248e-07
0.00165446
1.22997e-05
0.00165246
2.9535e-05
0.00164223
6.54294e-05
0.0015893
0.000169185
0.00138282
0.000441788
0.00102749
0.000762865
0.000621328
0.00107691
0.000728507
-0.00124454
0.00554978
-0.00197183
0.00239176
-0.00261634
0.00201537
-0.00310301
0.00156551
-0.00345625
0.00110847
-0.00365826
0.000592492
-0.00367065
-1.71615e-05
-0.0034502
-0.000727131
-0.00300332
-0.00143956
-0.00240076
-0.00199506
-0.00173136
-0.00229996
-0.00107875
-0.00232116
-0.000509674
-0.00206498
-6.84739e-05
-0.00156337
0.000261982
-0.000905174
0.000394774
-0.000227563
0.000614908
0.000983146
-0.000987158
0.00108118
-0.00100181
0.00128812
-0.00094941
0.00144349
-0.000776558
0.0015606
-0.000608984
0.00169745
-0.000484891
0.00155898
0.00151111
0.00148865
0.00147859
0.00147953
0.00149197
0.00152166
0.00158723
0.00175657
0.0015455
0.000652848
0.00128456
0.0010238
0.000890803
0.00147065
0.00159795
-0.000905825
0.00665004
-0.00148993
0.00297586
-0.00195528
0.00248072
-0.00231384
0.00192406
-0.00259208
0.00138671
-0.00276523
0.000765635
-0.00277586
-6.53895e-06
-0.00255214
-0.000950853
-0.00212315
-0.00186855
-0.00159131
-0.00252691
-0.00103679
-0.00285448
-0.000516241
-0.00284171
-6.18892e-05
-0.00251934
0.00032676
-0.00195203
0.000689499
-0.00126792
0.00107228
-0.000610346
0.00183001
-0.000142828
0.00216386
-0.000346083
0.00195974
-0.000783036
0.00178418
-0.00082626
0.00162307
-0.000788309
0.00153288
-0.000686368
0.00148544
-0.000561554
0.00141235
-0.000411808
0.00161114
-0.000198939
0.00174256
-0.000131584
0.00185657
-0.000114166
0.00196064
-0.000104233
0.00204734
-8.68581e-05
0.00209945
-5.2268e-05
0.00208656
1.27304e-05
0.00196496
0.000121442
0.0016655
0.000299307
0.00162801
0.000690323
0.00149842
0.00115339
0.00126979
0.00169928
0.00283997
-0.000655259
0.00753934
-0.00109672
0.00341731
-0.00126579
0.00264978
-0.00142794
0.0020862
-0.00157167
0.00153044
-0.00166433
0.000858283
-0.00162782
-4.3055e-05
-0.00137081
-0.00120786
-0.000980487
-0.00225888
-0.000568837
-0.00293857
-0.000183201
-0.00324012
0.000151875
-0.00317679
0.000432373
-0.00279984
0.000691606
-0.00221126
0.000963849
-0.00154017
0.00128072
-0.00092722
0.00165871
-0.000520821
0.00181489
-0.000502276
0.00165308
-0.000621227
0.00148813
-0.000661317
0.00133489
-0.000635075
0.00121955
-0.000571032
0.00114493
-0.000486934
0.00111847
-0.000385363
0.00119758
-0.000278055
0.00129086
-0.000224865
0.00138624
-0.000209554
0.00148286
-0.000200863
0.00157563
-0.000179635
0.0016544
-0.000131042
0.00170283
-3.57093e-05
0.00170311
0.000121162
0.00165736
0.000345051
0.00167414
0.000673531
0.00178885
0.00103867
0.00222357
0.00126455
0.00337785
0.00168569
0.00219102
0.00118661
0.00130822
0.000882596
0.00135163
-0.000565876
0.00837328
-0.000854684
0.00370611
-0.000598832
0.00239393
-0.000494977
0.00198234
-0.000461041
0.0014965
-0.000405323
0.000802561
-0.000217272
-0.000231111
8.68899e-05
-0.00151203
0.000377796
-0.00254979
0.000606475
-0.00316725
0.000762215
-0.00339586
0.000856673
-0.00327125
0.000917858
-0.00286103
0.000972273
-0.00226568
0.00104502
-0.00161292
0.00115027
-0.00103248
0.00126922
-0.000639779
0.0012698
-0.000502868
0.00114599
-0.000497424
0.000991115
-0.000506443
0.000847178
-0.000491143
0.000734315
-0.000458175
0.000662952
-0.000415576
0.000643948
-0.000366366
0.000685945
-0.000320058
0.000760733
-0.000299659
0.000849047
-0.000297875
0.000943734
-0.000295557
0.00104182
-0.000277729
0.00114197
-0.000231202
0.00124384
-0.000137578
0.00133717
2.78258e-05
0.00141873
0.000263476
0.00154056
0.000551693
0.00173485
0.00084438
0.00196335
0.00103605
0.00225856
0.00139047
0.00198133
0.00146383
0.00120188
0.00166204
0.00259809
-0.000689422
0.00936076
-0.000574784
0.00359147
0.000210155
0.00160898
0.000549782
0.00164271
0.000761587
0.00128469
0.00106395
0.000500197
0.00145022
-0.000617392
0.00173795
-0.00179976
0.00185812
-0.00266995
0.00184371
-0.00315284
0.0017216
-0.00327375
0.00153213
-0.00308179
0.00131869
-0.00264759
0.00111521
-0.00206221
0.000948218
-0.00144593
0.000829792
-0.000914056
0.000751998
-0.00056199
0.000654471
-0.000405347
0.00052338
-0.000366338
0.000380886
-0.000363955
0.000252026
-0.000362289
0.0001515
-0.000357655
8.81656e-05
-0.000352248
6.89601e-05
-0.000347167
9.45024e-05
-0.000345607
0.000148955
-0.000354119
0.000217144
-0.00036607
0.000292182
-0.000370602
0.000373584
-0.000359139
0.000467088
-0.000324712
0.000585455
-0.000255952
0.000739461
-0.000126188
0.000913723
8.92078e-05
0.00110625
0.000359155
0.00132833
0.000622293
0.00152617
0.000838204
0.00177256
0.00114407
0.0019039
0.00133248
0.0016339
0.00193204
0.00427842
0.00177081
0.00792283
0.00226887
0.00309341
0.0022965
0.00158134
0.00242243
0.00151677
0.00264552
0.0010616
0.00306521
8.05034e-05
0.00347306
-0.00102525
0.00358138
-0.00190808
0.00340694
-0.00249552
0.00303429
-0.00278019
0.00254479
-0.00278426
0.00200938
-0.00254638
0.00148762
-0.00212584
0.00101694
-0.00159154
0.00062952
-0.00105851
0.000336278
-0.00062082
0.000138296
-0.000364015
-1.16167e-05
-0.00025544
-0.000146413
-0.000231548
-0.000271261
-0.000239113
-0.000379931
-0.000253625
-0.00046604
-0.000271553
-0.000525683
-0.000292613
-0.000556765
-0.000316092
-0.000560813
-0.000341566
-0.000546668
-0.000368271
-0.000522616
-0.00039013
-0.000493817
-0.000399408
-0.000462694
-0.000390269
-0.000426109
-0.000361305
-0.000366913
-0.000315155
-0.000247407
-0.000245701
-4.65952e-05
-0.000111611
0.000199862
0.00011269
0.000454438
0.00036771
0.000675921
0.000616714
0.000933597
0.000886385
0.00116397
0.00110211
0.0007422
0.0023538
0.00521404
0.00826755
0.0113394
0.00947197
0.00344879
0.00845276
0.00253598
0.00781609
0.00169826
0.00724699
0.000649595
0.00652483
-0.000303096
0.00567855
-0.0010618
0.00475909
-0.00157606
0.0038104
-0.0018315
0.00287114
-0.001845
0.00198368
-0.00165893
0.00119777
-0.00133994
0.000534934
-0.000928714
2.41714e-05
-0.000547758
-0.00031791
-0.000278746
-0.000527529
-0.000154402
-0.000669384
-0.000113592
-0.000783812
-0.000117127
-0.000885613
-0.000137319
-0.000978395
-0.00016085
-0.00106158
-0.000188371
-0.00113499
-0.000219214
-0.00119874
-0.000252349
-0.00125372
-0.000286598
-0.00130261
-0.000319384
-0.00134821
-0.000344542
-0.00139481
-0.000352806
-0.0014521
-0.000332989
-0.001538
-0.00027541
-0.00167044
-0.000182723
-0.00185678
-5.93664e-05
-0.00209416
0.000125756
-0.0023822
0.00040073
-0.00279522
0.000780721
-0.00346929
0.00129078
-0.00454267
0.00195976
-0.00607263
0.00263206
-0.00630121
0.00258237
-0.000877728
0.00612644
0.0036184
0.0055158
0.00314662
0.00551656
0.00169751
0.00542264
0.000743516
0.00507174
4.78104e-05
0.00449803
-0.000488078
0.00373408
-0.000812119
0.00285059
-0.000948008
0.00192023
-0.000914642
0.00101609
-0.000754799
0.000218422
-0.000542278
-0.000391444
-0.000318857
-0.000782508
-0.000156701
-0.00100064
-6.0617e-05
-0.00113263
-2.24267e-05
-0.00122541
-2.0818e-05
-0.00130452
-3.80274e-05
-0.00138137
-6.04723e-05
-0.00146281
-7.94127e-05
-0.00155072
-0.000100477
-0.00164725
-0.000122685
-0.00175415
-0.000145464
-0.00187217
-0.000168582
-0.00200053
-0.000191027
-0.00213586
-0.000209219
-0.00227292
-0.000215754
-0.00240781
-0.000198103
-0.00254511
-0.000138124
-0.00268955
-3.82877e-05
-0.00283983
9.09046e-05
-0.0029783
0.00026422
-0.00309454
0.00051697
-0.00318749
0.000873666
-0.00324618
0.00134946
-0.00323364
0.00194721
-0.00304231
0.00244072
-0.00143969
0.000979747
-0.00226936
0.000563049
0.00304232
0.00182761
0.00188206
0.00236052
0.00116461
0.0025411
0.000562936
0.00243966
0.000149254
0.00206571
-0.000114128
0.00152461
-0.000271028
0.000868246
-0.000291654
0.000202609
-0.000249015
-0.000385467
-0.000166735
-0.000852757
-7.49964e-05
-0.00116659
-5.03114e-06
-0.00135452
3.12226e-05
-0.0014583
4.31529e-05
-0.00151984
3.91e-05
-0.00156817
2.75104e-05
-0.00161924
1.30345e-05
-0.00167743
-2.28719e-06
-0.00174031
-1.65402e-05
-0.0018115
-2.9297e-05
-0.0018939
-4.02965e-05
-0.00199109
-4.82736e-05
-0.00210775
-5.19299e-05
-0.00224858
-5.02086e-05
-0.00241546
-4.23462e-05
-0.00260344
-2.77796e-05
-0.00279525
-6.30343e-06
-0.00295845
2.50749e-05
-0.00306446
6.77112e-05
-0.00310928
0.000135718
-0.0030787
0.000233633
-0.00293437
0.000372642
-0.00263326
0.000572546
-0.00211847
0.00083466
-0.00120773
0.00103646
0.000307039
0.000925947
0.00136651
-7.97297e-05
-0.00085321
-0.00595004
-0.00721424
-0.0041921
-0.00233321
-0.00119452
-0.000660417
-0.000543119
-0.000691606
-0.000998003
-0.00132563
-0.00161112
-0.0018151
-0.00192848
-0.00197319
-0.00198261
-0.00198076
-0.00198338
-0.00199786
-0.00202704
-0.00207173
-0.00213077
-0.00220265
-0.00228558
-0.00237655
-0.00247129
-0.00256461
-0.00265059
-0.00272287
-0.00277481
-0.00279665
-0.00277715
-0.00269086
-0.00250767
-0.00218623
-0.0016653
-0.000882386
0.00010226
0.000975928
0.000843942
)
;

boundaryField
{
    floor
    {
        type            calculated;
        value           nonuniform List<scalar> 
29
(
0
0
0
0
0
0
0
0
0
0
0
0
0
0
0
0
0
0
0
0
5.06072e-06
1.34811e-05
2.13494e-05
2.77665e-05
2.4743e-06
3.57487e-06
8.65717e-06
1.24953e-05
1.22213e-05
)
;
    }
    ceiling
    {
        type            calculated;
        value           nonuniform List<scalar> 
43
(
2.24403e-05
2.08993e-05
2.01841e-05
2.31716e-05
2.59076e-05
2.88292e-05
3.19426e-05
3.43442e-05
3.53556e-05
3.5958e-05
3.64713e-05
3.72275e-05
3.83808e-05
3.96739e-05
4.06316e-05
4.12949e-05
4.17093e-05
4.1985e-05
4.22066e-05
4.23916e-05
4.25003e-05
4.2575e-05
4.26247e-05
4.26835e-05
4.28128e-05
4.30982e-05
4.36331e-05
4.4485e-05
4.56358e-05
4.69038e-05
4.82087e-05
4.94197e-05
5.04406e-05
5.11887e-05
5.16093e-05
5.17408e-05
5.18089e-05
5.22726e-05
5.225e-05
5.39971e-05
2.6636e-05
2.1538e-05
1.30305e-05
)
;
    }
    sWall
    {
        type            calculated;
        value           uniform -0.000173024;
    }
    nWall
    {
        type            calculated;
        value           nonuniform List<scalar> 6(-4.3623e-05 -4.45862e-05 -4.64341e-05 -4.80631e-05 -4.96448e-05 -6.32724e-05);
    }
    sideWalls
    {
        type            empty;
        value           nonuniform 0();
    }
    glass1
    {
        type            calculated;
        value           nonuniform List<scalar> 9(-3.51319e-05 -9.61273e-05 -0.000148714 -0.000194439 -0.000234043 -0.000268066 -0.000298066 -0.000332889 -0.000371357);
    }
    glass2
    {
        type            calculated;
        value           nonuniform List<scalar> 2(-0.000193425 -0.000209449);
    }
    sun
    {
        type            calculated;
        value           uniform 0;
    }
    heatsource1
    {
        type            calculated;
        value           nonuniform List<scalar> 3(2.03079e-07 2.03597e-07 2.03957e-07);
    }
    heatsource2
    {
        type            calculated;
        value           nonuniform List<scalar> 4(5.11026e-08 5.11569e-08 0 0);
    }
    Table_master
    {
        type            calculated;
        value           nonuniform List<scalar> 9(-1.5279e-07 -1.52885e-07 -1.52912e-07 -1.52928e-07 -1.52938e-07 -1.5294e-07 -1.52935e-07 -1.52919e-07 -1.52868e-07);
    }
    Table_slave
    {
        type            calculated;
        value           nonuniform List<scalar> 9(1.52718e-07 1.52725e-07 1.52687e-07 1.52651e-07 1.5262e-07 1.52603e-07 1.52605e-07 1.52616e-07 1.52666e-07);
    }
    inlet
    {
        type            calculated;
        value           uniform -0.00629605;
    }
    outlet
    {
        type            calculated;
        value           nonuniform List<scalar> 2(0.00610062 0.0012433);
    }
}


// ************************************************************************* //
