/*--------------------------------*- C++ -*----------------------------------*\
  =========                 |
  \\      /  F ield         | OpenFOAM: The Open Source CFD Toolbox
   \\    /   O peration     | Website:  https://openfoam.org
    \\  /    A nd           | Version:  6
     \\/     M anipulation  |
\*---------------------------------------------------------------------------*/
FoamFile
{
    version     2.0;
    format      ascii;
    class       volScalarField;
    location    "700";
    object      alphat;
}
// * * * * * * * * * * * * * * * * * * * * * * * * * * * * * * * * * * * * * //

dimensions      [1 -1 -1 0 0 0 0];

internalField   nonuniform List<scalar> 
459
(
0.000846248
0.000886328
0.000878623
0.000905787
0.000928182
0.000946484
0.000961676
0.000974694
0.000986459
0.000997772
0.00100505
0.00100715
0.00100404
0.000997959
0.000990206
0.000716273
0.000664411
0.00062713
0.000600871
0.000580547
0.000562356
0.000543934
0.000526652
0.000510345
0.000494817
0.000479976
0.000465738
0.000451979
0.000438487
0.000424872
0.00041053
0.000394278
0.000380617
0.000349974
0.00126301
0.00200889
0.00172267
0.00197846
0.00211477
0.00225923
0.00240214
0.00253104
0.00262805
0.00267485
0.00268232
0.00262046
0.00244873
0.00211357
0.0015675
0.00100409
0.000934397
0.000822256
0.00112442
0.001335
0.00150934
0.00162219
0.00163937
0.00146701
0.00134974
0.00125155
0.00116612
0.00108917
0.0010179
0.000949016
0.000877515
0.000799111
0.000727854
0.000668794
0.000780839
0.000435187
0.00164532
0.00294511
0.00189003
0.00272906
0.002928
0.00307114
0.00317925
0.00326023
0.00332026
0.00335463
0.00337013
0.0033395
0.0032288
0.00300027
0.00260722
0.00199162
0.0010716
0.000909315
0.00179499
0.00217853
0.0023673
0.00242464
0.00217908
0.000635938
0.000576094
0.000529806
0.000493526
0.000464568
0.000441043
0.000421808
0.000406494
0.000395927
0.000454321
0.000542559
0.000888467
0.000500902
0.00204569
0.00441682
0.00180478
0.00303703
0.00333619
0.00344027
0.00348561
0.00350397
0.00351797
0.00353556
0.00355783
0.00356262
0.00352099
0.00340508
0.00317968
0.00277376
0.00203676
0.00104016
0.00240456
0.00264713
0.00268653
0.00270479
0.00268789
0.00237566
0.000663609
0.000639058
0.000630438
0.000625901
0.000618251
0.00060308
0.000584856
0.000563892
0.000536582
0.000516579
0.000544027
0.00102748
0.000555607
0.00246296
0.00645093
0.00214081
0.00289234
0.00349114
0.00359244
0.00359534
0.00356577
0.00354467
0.0035572
0.00359652
0.00364246
0.00365406
0.00359673
0.00344086
0.00319107
0.00294624
0.00281506
0.00276497
0.00277715
0.00269027
0.00264745
0.00265556
0.00264705
0.00245773
0.00246017
0.00249155
0.00250393
0.00247558
0.00239235
0.00219149
0.00189968
0.00155197
0.00117908
0.000890766
0.000989589
0.000691588
0.000726008
0.000867296
0.000962346
0.00289713
0.00869634
0.00367012
0.00248828
0.00328972
0.00356824
0.00362902
0.00360064
0.00353663
0.00350985
0.00357582
0.00366574
0.00372082
0.00370103
0.00355543
0.00324555
0.00284303
0.00263959
0.00276489
0.00274834
0.00259845
0.00251949
0.00254662
0.00263301
0.00273096
0.00284006
0.00292692
0.0029764
0.00298156
0.00293998
0.00281779
0.00257723
0.00222122
0.00177157
0.00135189
0.00105443
0.000864726
0.000804505
0.00121745
0.000999803
0.00334564
0.0105704
0.00689902
0.00344838
0.00263312
0.0027882
0.00315652
0.00344338
0.00362592
0.00348589
0.00358253
0.00368547
0.00375284
0.00375171
0.00362277
0.00328786
0.0027643
0.00247579
0.00273722
0.00272954
0.00254221
0.00245233
0.00248556
0.00258681
0.00271252
0.00283671
0.00293824
0.00300573
0.00304211
0.00305347
0.00304146
0.00288598
0.00256921
0.00214216
0.00173951
0.00137729
0.00115254
0.0011128
0.00120381
0.00108008
0.0034686
0.0107037
0.00866691
0.00668461
0.00486462
0.00372782
0.00331368
0.00335578
0.00356209
0.00362379
0.00367493
0.00373114
0.0037714
0.00375556
0.00361653
0.00325927
0.00266922
0.00232733
0.0027012
0.00273047
0.00251862
0.00242209
0.00244314
0.00251954
0.00261194
0.00270065
0.00277668
0.00283914
0.00289757
0.00296659
0.00306115
0.00314108
0.0028982
0.00253208
0.00223608
0.00213027
0.00229639
0.00294024
0.00403676
0.00176258
0.00341198
0.00417471
0.00469292
0.00486711
0.00471685
0.00434906
0.004004
0.00379804
0.00370814
0.00368201
0.00370602
0.00374578
0.00376237
0.00371163
0.00352964
0.00311741
0.00244877
0.00210274
0.0026721
0.00273194
0.00248875
0.00236935
0.00235645
0.00238711
0.00242733
0.00246128
0.00248116
0.00248394
0.00246935
0.0024377
0.0023894
0.00232621
0.00226323
0.00223151
0.00226626
0.00235592
0.00242153
0.00238181
0.00224459
0.00163814
0.00251422
0.00420674
0.00455946
0.00451775
0.00437073
0.0042314
0.00413133
0.00404616
0.00396565
0.00387153
0.00374189
0.00355128
0.00325189
0.00275145
0.00202895
0.00175696
0.00264538
0.00270194
0.00241488
0.00226467
0.00221548
0.00220615
0.00221046
0.00221687
0.00221936
0.00221586
0.00220815
0.00220178
0.00220561
0.00222943
0.00226623
0.00231789
0.00238101
0.00242533
0.00239779
0.00227111
0.00205167
0.00133954
0.00266811
0.00482496
0.00506419
0.00490916
0.00472575
0.00452963
0.0043276
0.00412143
0.00384381
0.00352157
0.00317823
0.00282214
0.00243864
0.00197824
0.00141209
0.00128327
0.00207343
0.00207261
0.00186658
0.00175361
0.00171289
0.00171114
0.00173693
0.0017855
0.00185309
0.00193543
0.00202687
0.00211945
0.00220153
0.00229531
0.00239944
0.0025107
0.00261778
0.00270578
0.00272678
0.00279998
0.00261486
0.00135509
0.00231883
0.00244569
0.00255207
0.00270722
0.00256026
0.00236339
0.00219001
0.00203122
0.0018783
0.00173069
0.00160389
0.00148902
0.00137838
0.00126744
0.00115275
0.00102823
0.000802091
0.000645186
0.000655878
0.000661656
0.000668408
0.000682947
0.000703342
0.000727954
0.000756025
0.000787168
0.000821235
0.000858365
0.000899114
0.000944705
0.000997527
0.00105572
0.00112004
0.00119131
0.00127044
0.00137298
0.00141007
0.00138258
0.00129449
0.00119987
)
;

boundaryField
{
    floor
    {
        type            compressible::alphatWallFunction;
        Prt             0.85;
        value           nonuniform List<scalar> 
29
(
0.0001409
0.000101576
9.39429e-05
8.84117e-05
8.44918e-05
8.14433e-05
7.87039e-05
7.59181e-05
7.3294e-05
7.0808e-05
6.84315e-05
6.61515e-05
6.39555e-05
6.18255e-05
5.97287e-05
5.76045e-05
5.53575e-05
5.27989e-05
5.06379e-05
4.57537e-05
4.57531e-05
5.92129e-05
6.93607e-05
7.76807e-05
0.000140898
0.000101575
0.000116971
0.000129443
0.000147923
)
;
    }
    ceiling
    {
        type            compressible::alphatWallFunction;
        Prt             0.85;
        value           nonuniform List<scalar> 
43
(
0.000318238
0.000334453
0.000347986
0.000367711
0.000349156
0.000324096
0.00030183
0.000281266
0.000261296
0.000241848
0.000224997
0.000209602
0.000194649
0.00017952
0.000163719
0.000146359
0.000114192
9.12085e-05
9.27939e-05
9.36502e-05
9.46482e-05
9.67932e-05
9.97931e-05
0.0001034
0.000107496
0.000112018
0.000116941
0.000122279
0.000128106
0.000134589
0.000142055
0.000150226
0.000159198
0.00016907
0.000179951
0.000193939
0.00019897
0.000195244
0.000183244
0.000170254
0.000455739
0.000548653
0.000362592
)
;
    }
    sWall
    {
        type            compressible::alphatWallFunction;
        Prt             0.85;
        value           uniform 0.000317021;
    }
    nWall
    {
        type            compressible::alphatWallFunction;
        Prt             0.85;
        value           nonuniform List<scalar> 6(0.000136749 0.000142031 0.000153281 0.000189048 0.000191162 0.000169912);
    }
    sideWalls
    {
        type            empty;
    }
    glass1
    {
        type            compressible::alphatWallFunction;
        Prt             0.85;
        value           nonuniform List<scalar> 9(0.000117036 0.000174466 0.000225406 0.000277483 0.000330691 0.000385118 0.000440499 0.000455679 0.000448965);
    }
    glass2
    {
        type            compressible::alphatWallFunction;
        Prt             0.85;
        value           nonuniform List<scalar> 2(0.000244118 0.000227762);
    }
    sun
    {
        type            compressible::alphatWallFunction;
        Prt             0.85;
        value           nonuniform List<scalar> 
14
(
0.000120441
0.000126164
0.000125062
0.000128939
0.000132125
0.000134722
0.000136873
0.000138713
0.000140373
0.000141968
0.000142992
0.000143288
0.00014285
0.000141993
)
;
    }
    heatsource1
    {
        type            compressible::alphatWallFunction;
        Prt             0.85;
        value           nonuniform List<scalar> 3(0.000103132 0.000123577 0.000137106);
    }
    heatsource2
    {
        type            compressible::alphatWallFunction;
        Prt             0.85;
        value           nonuniform List<scalar> 4(0.000142994 0.000133143 0.000133141 0.00015246);
    }
    Table_master
    {
        type            compressible::alphatWallFunction;
        Prt             0.85;
        value           nonuniform List<scalar> 9(8.98512e-05 8.08997e-05 7.38971e-05 6.83549e-05 6.38946e-05 6.02452e-05 5.72428e-05 5.48398e-05 5.31749e-05);
    }
    Table_slave
    {
        type            compressible::alphatWallFunction;
        Prt             0.85;
        value           nonuniform List<scalar> 9(9.39548e-05 9.03147e-05 8.90327e-05 8.83571e-05 8.72166e-05 8.49497e-05 8.22172e-05 7.90609e-05 7.49271e-05);
    }
    inlet
    {
        type            fixedValue;
        value           uniform 1.94e-05;
    }
    outlet
    {
        type            zeroGradient;
    }
}


// ************************************************************************* //
