/*--------------------------------*- C++ -*----------------------------------*\
  =========                 |
  \\      /  F ield         | OpenFOAM: The Open Source CFD Toolbox
   \\    /   O peration     | Website:  https://openfoam.org
    \\  /    A nd           | Version:  6
     \\/     M anipulation  |
\*---------------------------------------------------------------------------*/
FoamFile
{
    version     2.0;
    format      ascii;
    class       volScalarField;
    location    "700";
    object      T;
}
// * * * * * * * * * * * * * * * * * * * * * * * * * * * * * * * * * * * * * //

dimensions      [0 0 0 1 0 0 0];

internalField   nonuniform List<scalar> 
459
(
303.185
302.887
302.878
302.877
302.876
302.875
302.873
302.872
302.87
302.868
302.864
302.858
302.851
302.841
302.831
302.812
302.806
302.802
302.8
302.798
302.796
302.794
302.793
302.791
302.789
302.787
302.785
302.783
302.781
302.778
302.776
302.773
302.77
302.779
303.405
302.918
302.899
302.904
302.909
302.913
302.916
302.918
302.919
302.918
302.911
302.898
302.879
302.853
302.824
302.802
302.788
302.801
302.794
302.788
302.784
302.78
302.776
302.771
302.766
302.761
302.757
302.752
302.748
302.743
302.739
302.736
302.735
302.736
302.738
302.761
303.626
302.962
302.926
302.94
302.955
302.969
302.982
302.992
302.998
302.999
302.991
302.97
302.938
302.896
302.85
302.814
302.79
302.797
302.795
302.793
302.789
302.785
302.781
302.773
302.764
302.756
302.749
302.741
302.734
302.728
302.722
302.717
302.716
302.717
302.72
302.751
303.838
303.02
302.953
302.973
302.999
303.025
303.049
303.07
303.085
303.09
303.081
303.054
303.008
302.948
302.883
302.826
302.79
302.786
302.793
302.802
302.802
302.8
302.797
302.793
302.79
302.787
302.784
302.781
302.778
302.773
302.769
302.764
302.757
302.737
302.722
302.716
302.747
304.035
303.095
302.981
302.997
303.03
303.066
303.101
303.134
303.16
303.172
303.167
303.137
303.08
303.004
302.92
302.842
302.791
302.781
302.796
302.809
302.812
302.812
302.81
302.807
302.805
302.802
302.8
302.796
302.792
302.786
302.779
302.772
302.762
302.747
302.729
302.716
302.738
302.792
302.821
302.831
304.206
303.191
303.028
303.015
303.046
303.085
303.126
303.166
303.203
303.229
303.232
303.201
303.137
303.05
302.952
302.857
302.79
302.779
302.798
302.816
302.822
302.823
302.822
302.82
302.819
302.816
302.813
302.809
302.803
302.796
302.786
302.776
302.765
302.751
302.734
302.719
302.728
302.753
302.762
302.797
304.335
303.352
303.172
303.087
303.078
303.1
303.134
303.171
303.211
303.257
303.267
303.234
303.165
303.072
302.968
302.864
302.786
302.777
302.8
302.823
302.831
302.833
302.834
302.833
302.832
302.83
302.826
302.821
302.814
302.805
302.792
302.779
302.767
302.754
302.739
302.725
302.724
302.732
302.74
302.769
304.555
303.823
303.614
303.424
303.297
303.236
303.22
303.229
303.263
303.293
303.285
303.235
303.156
303.058
302.953
302.851
302.776
302.774
302.804
302.83
302.84
302.843
302.845
302.845
302.845
302.843
302.84
302.835
302.829
302.82
302.808
302.792
302.779
302.768
302.757
302.748
302.749
302.765
302.791
302.949
304.861
304.549
304.28
304.019
303.8
303.638
303.532
303.469
303.431
303.37
303.286
303.191
303.092
302.993
302.897
302.806
302.75
302.772
302.811
302.839
302.849
302.854
302.857
302.858
302.859
302.859
302.858
302.856
302.853
302.85
302.849
302.851
302.857
302.871
302.895
302.928
302.971
303.012
303.037
303.098
298.027
300.92
302.266
302.755
302.948
303.022
303.035
303.027
302.999
302.956
302.906
302.85
302.792
302.734
302.716
302.781
302.826
302.849
302.859
302.865
302.869
302.873
302.876
302.878
302.881
302.883
302.886
302.889
302.894
302.899
302.907
302.92
302.94
302.966
302.995
303.019
303.032
303.044
298.508
300.868
301.805
302.289
302.534
302.648
302.694
302.709
302.714
302.712
302.703
302.69
302.673
302.655
302.698
302.819
302.85
302.864
302.872
302.877
302.882
302.886
302.89
302.894
302.898
302.902
302.906
302.91
302.915
302.92
302.927
302.937
302.951
302.969
302.989
303.007
302.998
303.025
299.936
299.878
299.874
301.317
301.879
302.262
302.41
302.479
302.514
302.53
302.543
302.555
302.565
302.575
302.584
302.599
302.731
302.874
302.886
302.892
302.896
302.9
302.903
302.906
302.909
302.912
302.915
302.918
302.92
302.923
302.926
302.93
302.934
302.94
302.948
302.962
302.973
302.978
302.978
303.014
)
;

boundaryField
{
    floor
    {
        type            wallHeatTransfer;
        Tinf            uniform 305.2;
        alphaWall       uniform 0.24;
        value           nonuniform List<scalar> 
29
(
303.129
303.191
303.206
303.219
303.229
303.237
303.245
303.254
303.262
303.27
303.279
303.287
303.295
303.303
303.311
303.32
303.33
303.341
303.351
303.388
303.388
303.299
303.245
303.209
303.129
303.191
303.146
303.119
303.079
)
;
    }
    ceiling
    {
        type            wallHeatTransfer;
        Tinf            uniform 303.2;
        alphaWall       uniform 0.24;
        value           nonuniform List<scalar> 
43
(
300.149
300.086
300.075
301.425
301.958
302.322
302.463
302.531
302.567
302.585
302.6
302.614
302.627
302.64
302.653
302.672
302.8
302.929
302.939
302.943
302.947
302.949
302.951
302.952
302.953
302.955
302.956
302.957
302.958
302.959
302.96
302.962
302.965
302.968
302.974
302.986
302.995
303
303.001
303.035
304.782
304.494
298.782
)
;
    }
    sWall
    {
        type            wallHeatTransfer;
        Tinf            uniform 315.2;
        alphaWall       uniform 0.36;
        value           uniform 301.387;
    }
    nWall
    {
        type            wallHeatTransfer;
        Tinf            uniform 307.2;
        alphaWall       uniform 0.36;
        value           nonuniform List<scalar> 6(303.624 303.575 303.511 303.64 303.62 303.665);
    }
    sideWalls
    {
        type            empty;
    }
    glass1
    {
        type            wallHeatTransfer;
        Tinf            uniform 315.2;
        alphaWall       uniform 4.3;
        value           nonuniform List<scalar> 9(312.205 311.453 310.933 310.501 310.14 309.828 309.548 309.577 309.775);
    }
    glass2
    {
        type            wallHeatTransfer;
        Tinf            uniform 307.2;
        alphaWall       uniform 4.3;
        value           nonuniform List<scalar> 2(305.561 305.679);
    }
    sun
    {
        type            wallHeatTransfer;
        Tinf            uniform 305.2;
        alphaWall       uniform 0.24;
        value           nonuniform List<scalar> 
14
(
303.469
303.203
303.197
303.189
303.183
303.177
303.173
303.168
303.164
303.16
303.155
303.15
303.143
303.136
)
;
    }
    heatsource1
    {
        type            fixedGradient;
        gradient        uniform 0;
    }
    heatsource2
    {
        type            fixedGradient;
        gradient        uniform 0;
    }
    Table_master
    {
        type            zeroGradient;
    }
    Table_slave
    {
        type            zeroGradient;
    }
    inlet
    {
        type            fixedValue;
        value           uniform 293.15;
    }
    outlet
    {
        type            zeroGradient;
    }
}


// ************************************************************************* //
