/*--------------------------------*- C++ -*----------------------------------*\
  =========                 |
  \\      /  F ield         | OpenFOAM: The Open Source CFD Toolbox
   \\    /   O peration     | Website:  https://openfoam.org
    \\  /    A nd           | Version:  6
     \\/     M anipulation  |
\*---------------------------------------------------------------------------*/
FoamFile
{
    version     2.0;
    format      ascii;
    class       volScalarField;
    location    "400";
    object      nut;
}
// * * * * * * * * * * * * * * * * * * * * * * * * * * * * * * * * * * * * * //

dimensions      [0 2 -1 0 0 0 0];

internalField   nonuniform List<scalar> 
459
(
0.000773194
0.000802915
0.000632982
0.000587257
0.000586662
0.000593077
0.000601912
0.000612234
0.000623537
0.000635269
0.000646597
0.000656355
0.00066317
0.000664839
0.000654327
0.000396794
0.000361621
0.000359898
0.000361525
0.000346485
0.000335129
0.00032031
0.000319053
0.00032624
0.000337908
0.000347271
0.000347968
0.000343583
0.000336363
0.000325867
0.000313045
0.000297892
0.000282256
0.000256887
0.00140966
0.00322473
0.00183723
0.00243941
0.00291101
0.00304663
0.0030949
0.00311539
0.00311667
0.00309356
0.00303243
0.002909
0.00268158
0.00228069
0.00162416
0.000744108
0.000522588
0.000540812
0.00120267
0.00134746
0.00130257
0.00113661
0.000958822
0.000781953
0.00086389
0.00102114
0.00116561
0.00124652
0.00124726
0.00118146
0.00108219
0.000982094
0.000909609
0.00070047
0.000537219
0.000282055
0.00196177
0.00588976
0.00300103
0.00288689
0.00379794
0.00430807
0.00452396
0.00460402
0.00460602
0.00454386
0.00441123
0.00418537
0.0038253
0.00327585
0.00250751
0.00161751
0.000817697
0.000704006
0.00205809
0.00187772
0.00146964
0.00104006
0.000657894
0.000342019
0.0003535
0.000371922
0.000387383
0.000398787
0.000406681
0.000411796
0.00042157
0.000445398
0.00094759
0.000787452
0.000622678
0.00047238
0.00245105
0.00892164
0.00542115
0.00388614
0.00403318
0.00460097
0.0050984
0.00541628
0.00558397
0.00563771
0.00559356
0.00544175
0.00514321
0.00463052
0.00383247
0.00275335
0.00162267
0.000922081
0.00251552
0.0029172
0.00246888
0.00190252
0.00139702
0.00098105
0.000674938
0.000661559
0.000649595
0.000638542
0.000629732
0.00062494
0.00062656
0.000638044
0.000665066
0.00153878
0.00146999
0.00123945
0.000718265
0.00286446
0.0117325
0.00852635
0.00614438
0.00494452
0.00463981
0.00502136
0.00558853
0.00606068
0.00638368
0.00658557
0.0066949
0.00672185
0.0066599
0.00649285
0.00620872
0.00583102
0.00546955
0.00547886
0.00521979
0.0049299
0.00467551
0.00443834
0.00419982
0.0039776
0.00381278
0.00363642
0.00344074
0.00322575
0.00299611
0.00276292
0.0025436
0.00235592
0.0022068
0.00200931
0.0017884
0.00144946
0.000890812
0.000830552
0.000700412
0.00322007
0.0136546
0.0112755
0.0085756
0.00669682
0.00529548
0.00480731
0.00519453
0.00586777
0.00649377
0.00698254
0.00734759
0.00761391
0.00779984
0.00790657
0.00791978
0.00781956
0.00760623
0.00733311
0.00702889
0.00675001
0.00650986
0.00629102
0.00607897
0.00586081
0.00563041
0.00538205
0.0051118
0.00481451
0.00448416
0.00411713
0.00371935
0.0033137
0.00293593
0.00261267
0.00233992
0.00207937
0.00179828
0.00145725
0.000730634
0.00349075
0.0136227
0.0114183
0.00986145
0.00815909
0.00646922
0.00522808
0.00476715
0.00518154
0.00593693
0.00667342
0.00729269
0.00777368
0.00814319
0.00841654
0.00858692
0.00863373
0.008547
0.00835826
0.00812204
0.00788219
0.00765492
0.00743884
0.00722576
0.00700583
0.00677393
0.00652987
0.00627363
0.00600334
0.00571353
0.00539331
0.00502665
0.00459903
0.00411409
0.00360578
0.0031144
0.00266653
0.00230696
0.00198671
0.00123089
0.00341578
0.0101336
0.0104662
0.010533
0.00915922
0.00735209
0.00585053
0.00492539
0.00468652
0.00508884
0.00585474
0.00662599
0.00726395
0.00778859
0.00821219
0.0085231
0.00871279
0.00877306
0.00872135
0.00859654
0.00843515
0.0082597
0.00807919
0.00789395
0.00770051
0.00749594
0.00728068
0.00705698
0.0068277
0.00659509
0.00635922
0.00611564
0.00585243
0.00554775
0.00516987
0.00467353
0.00402101
0.00340076
0.0031052
0.00140932
0.00321905
0.00392258
0.0151229
0.0142087
0.0107021
0.0079839
0.00630608
0.00540002
0.00506116
0.00515537
0.00553244
0.00603339
0.00655468
0.00705316
0.00750985
0.00789471
0.00819037
0.00838136
0.00846972
0.00847556
0.00842235
0.00833257
0.00822055
0.0080926
0.00795067
0.0077939
0.00762266
0.00743891
0.00724546
0.00704525
0.00684072
0.00663289
0.00642051
0.00619999
0.00596744
0.00571625
0.00541333
0.00498231
0.0045767
0.00150465
0.0280721
0.022123
0.0121318
0.00868097
0.0071682
0.00638528
0.00603677
0.00599936
0.00615187
0.00639408
0.00666746
0.00694486
0.00721487
0.00747006
0.00770059
0.00789222
0.0080335
0.00812131
0.00815562
0.00814828
0.00811032
0.00804806
0.00796359
0.00785843
0.00773519
0.00759687
0.00744595
0.00728398
0.00711113
0.00692582
0.00672444
0.00650177
0.00625245
0.00597109
0.00564175
0.00522457
0.00447375
0.00158292
0.008562
0.016059
0.01128
0.00837865
0.00687379
0.00614274
0.00592285
0.00604393
0.00633994
0.00667806
0.00698512
0.0072319
0.00741936
0.00756097
0.00766966
0.00775291
0.00781391
0.00785478
0.00787794
0.00788595
0.0078811
0.00786299
0.00781955
0.00775377
0.00767094
0.00757508
0.00746822
0.00735017
0.00721867
0.00706949
0.00689684
0.00669379
0.00645218
0.00616054
0.00579915
0.00532229
0.00477562
0.00173128
0.00140914
0.00191587
0.00555407
0.0049706
0.00414253
0.00345416
0.00293787
0.00255878
0.0022824
0.00208707
0.00195897
0.00188475
0.00184783
0.00183247
0.00182695
0.00182433
0.00182137
0.00181686
0.00181047
0.00180223
0.00179251
0.00178154
0.0017696
0.00175694
0.00174473
0.00173225
0.00171908
0.00170507
0.00169021
0.00167444
0.00165756
0.00163919
0.00161876
0.00159547
0.00156833
0.00153572
0.00149463
0.00143895
0.00138937
0.00125205
)
;

boundaryField
{
    floor
    {
        type            nutkWallFunction;
        Cmu             0.09;
        kappa           0.41;
        E               9.8;
        value           nonuniform List<scalar> 
29
(
7.91071e-05
4.63161e-05
4.16694e-05
4.14539e-05
4.16698e-05
3.96568e-05
3.8128e-05
3.61277e-05
3.59557e-05
3.6925e-05
3.84949e-05
3.97514e-05
3.98464e-05
3.92612e-05
3.8293e-05
3.68795e-05
3.51442e-05
3.30789e-05
3.09357e-05
2.74227e-05
2.74226e-05
3.0902e-05
5.6132e-05
8.69545e-05
7.9107e-05
4.6316e-05
6.49097e-05
8.52344e-05
0.000111552
)
;
    }
    ceiling
    {
        type            nutkWallFunction;
        Cmu             0.09;
        kappa           0.41;
        E               9.8;
        value           nonuniform List<scalar> 
43
(
0.000168073
0.000224571
0.000599157
0.00054133
0.000458137
0.00038773
0.000334004
0.000293942
0.000264348
0.000243207
0.000229225
0.000221077
0.000217007
0.000215307
0.000214691
0.000214397
0.000214067
0.000213566
0.000212857
0.000211945
0.000210868
0.000209654
0.000208332
0.000206928
0.000205573
0.000204188
0.000202724
0.000201167
0.000199514
0.000197758
0.000195877
0.000193827
0.000191544
0.00018894
0.000185899
0.000182238
0.000177614
0.000171324
0.000165698
0.000150049
0.000363113
0.000435374
0.000888955
)
;
    }
    sWall
    {
        type            nutkWallFunction;
        Cmu             0.09;
        kappa           0.41;
        E               9.8;
        value           uniform 0.000168105;
    }
    nWall
    {
        type            nutkWallFunction;
        Cmu             0.09;
        kappa           0.41;
        E               9.8;
        value           nonuniform List<scalar> 6(8.47715e-05 8.84689e-05 0.000147605 0.000187535 0.000204058 0.000150057);
    }
    sideWalls
    {
        type            empty;
    }
    glass1
    {
        type            nutkWallFunction;
        Cmu             0.09;
        kappa           0.41;
        E               9.8;
        value           nonuniform List<scalar> 9(9.36276e-05 0.000168149 0.000229625 0.000282525 0.000326351 0.000363527 0.000391549 0.00038385 0.000363486);
    }
    glass2
    {
        type            nutkWallFunction;
        Cmu             0.09;
        kappa           0.41;
        E               9.8;
        value           nonuniform List<scalar> 2(0.000168011 0.000178774);
    }
    sun
    {
        type            nutkWallFunction;
        Cmu             0.09;
        kappa           0.41;
        E               9.8;
        value           nonuniform List<scalar> 
14
(
9.36348e-05
9.72295e-05
7.64327e-05
7.07378e-05
7.06676e-05
7.14743e-05
7.25821e-05
7.38732e-05
7.52833e-05
7.67432e-05
7.81494e-05
7.9358e-05
8.02008e-05
8.04068e-05
)
;
    }
    heatsource1
    {
        type            nutkWallFunction;
        Cmu             0.09;
        kappa           0.41;
        E               9.8;
        value           nonuniform List<scalar> 3(0.000107806 0.000100582 8.47726e-05);
    }
    heatsource2
    {
        type            nutkWallFunction;
        Cmu             0.09;
        kappa           0.41;
        E               9.8;
        value           nonuniform List<scalar> 4(9.01316e-05 6.25849e-05 6.25848e-05 9.90523e-05);
    }
    Table_master
    {
        type            nutkWallFunction;
        Cmu             0.09;
        kappa           0.41;
        E               9.8;
        value           nonuniform List<scalar> 9(3.9047e-05 4.05832e-05 4.30365e-05 4.50846e-05 4.65897e-05 4.76274e-05 4.82968e-05 4.95712e-05 5.26664e-05);
    }
    Table_slave
    {
        type            nutkWallFunction;
        Cmu             0.09;
        kappa           0.41;
        E               9.8;
        value           nonuniform List<scalar> 9(8.16512e-05 7.9997e-05 7.85144e-05 7.71418e-05 7.60455e-05 7.54477e-05 7.56479e-05 7.70736e-05 8.04182e-05);
    }
    inlet
    {
        type            calculated;
        value           uniform 0.0280721;
    }
    outlet
    {
        type            calculated;
        value           nonuniform List<scalar> 2(0.00140914 0.00191587);
    }
}


// ************************************************************************* //
