// -*- C++ -*-
// File generated by PyFoam - sorry for the ugliness

FoamFile
{
 version 2.0;
 format ascii;
 class volScalarField;
 location "400";
 object T;
}

dimensions [ 0 0 0 1 0 0 0 ];

internalField nonuniform List<scalar> 459
(
  305.062
  304.798
  304.8
  304.812
  304.827
  304.843
  304.859
  304.875
  304.892
  304.908
  304.924
  304.939
  304.952
  304.962
  304.966
  303.958
  303.878
  303.87
  303.866
  303.848
  303.835
  303.83
  303.826
  303.823
  303.826
  303.832
  303.839
  303.847
  303.859
  303.872
  303.886
  303.9
  303.909
  303.935
  305.29
  304.962
  304.936
  304.949
  304.97
  304.991
  305.013
  305.034
  305.053
  305.072
  305.089
  305.102
  305.109
  305.108
  305.094
  305.062
  304.8
  304.358
  304.238
  304.178
  304.139
  304.108
  304.065
  304.055
  304.052
  304.052
  304.062
  304.085
  304.12
  304.147
  304.17
  304.193
  304.214
  304.179
  304.097
  304.023
  305.498
  305.128
  305.079
  305.079
  305.098
  305.122
  305.148
  305.173
  305.197
  305.218
  305.236
  305.249
  305.252
  305.242
  305.213
  305.166
  305.105
  304.628
  304.63
  304.617
  304.611
  304.593
  304.526
  304.34
  304.363
  304.387
  304.407
  304.428
  304.452
  304.488
  304.539
  304.614
  304.729
  304.727
  304.768
  304.849
  305.697
  305.328
  305.288
  305.256
  305.249
  305.263
  305.287
  305.314
  305.342
  305.367
  305.389
  305.403
  305.406
  305.393
  305.358
  305.298
  305.212
  305.127
  305.066
  305.137
  305.211
  305.285
  305.346
  305.4
  305.445
  305.459
  305.47
  305.479
  305.487
  305.493
  305.496
  305.497
  305.495
  305.487
  305.544
  305.63
  305.733
  305.896
  305.562
  305.567
  305.536
  305.481
  305.444
  305.444
  305.466
  305.494
  305.523
  305.549
  305.57
  305.581
  305.581
  305.566
  305.537
  305.498
  305.461
  305.437
  305.449
  305.483
  305.518
  305.546
  305.568
  305.584
  305.596
  305.61
  305.624
  305.641
  305.66
  305.683
  305.71
  305.741
  305.777
  305.827
  305.88
  305.926
  305.951
  305.915
  305.858
  306.096
  305.835
  305.959
  305.942
  305.845
  305.735
  305.67
  305.651
  305.668
  305.696
  305.725
  305.75
  305.769
  305.777
  305.772
  305.754
  305.727
  305.7
  305.682
  305.678
  305.685
  305.695
  305.705
  305.713
  305.719
  305.725
  305.733
  305.742
  305.754
  305.771
  305.792
  305.819
  305.852
  305.891
  305.933
  305.972
  306.004
  306.017
  305.99
  305.85
  306.298
  306.147
  306.494
  306.484
  306.337
  306.164
  306.024
  305.933
  305.901
  305.911
  305.938
  305.965
  305.987
  306.001
  306.004
  305.993
  305.973
  305.949
  305.928
  305.913
  305.905
  305.9
  305.897
  305.893
  305.89
  305.886
  305.883
  305.881
  305.882
  305.885
  305.892
  305.906
  305.926
  305.955
  305.991
  306.03
  306.07
  306.105
  306.134
  306.154
  306.524
  306.525
  307.026
  307.083
  306.907
  306.658
  306.454
  306.324
  306.258
  306.237
  306.239
  306.254
  306.272
  306.285
  306.289
  306.282
  306.265
  306.241
  306.216
  306.193
  306.173
  306.156
  306.14
  306.125
  306.11
  306.095
  306.079
  306.065
  306.05
  306.038
  306.028
  306.022
  306.022
  306.03
  306.045
  306.069
  306.1
  306.137
  306.176
  306.216
  306.819
  306.923
  308.056
  308.017
  307.576
  307.167
  306.905
  306.768
  306.709
  306.691
  306.689
  306.689
  306.687
  306.681
  306.67
  306.654
  306.631
  306.601
  306.568
  306.535
  306.502
  306.471
  306.442
  306.413
  306.385
  306.356
  306.328
  306.299
  306.271
  306.244
  306.218
  306.195
  306.176
  306.163
  306.157
  306.158
  306.164
  306.174
  306.191
  306.221
  312.454
  309.165
  308.143
  307.631
  307.414
  307.328
  307.298
  307.289
  307.284
  307.273
  307.252
  307.223
  307.187
  307.144
  307.097
  307.046
  306.994
  306.941
  306.89
  306.842
  306.794
  306.748
  306.703
  306.659
  306.616
  306.572
  306.53
  306.489
  306.449
  306.411
  306.376
  306.345
  306.32
  306.3
  306.283
  306.268
  306.252
  306.228
  311.546
  309.792
  309.117
  308.663
  308.411
  308.281
  308.197
  308.127
  308.061
  307.993
  307.92
  307.843
  307.764
  307.684
  307.604
  307.525
  307.448
  307.372
  307.299
  307.227
  307.158
  307.092
  307.028
  306.967
  306.907
  306.849
  306.792
  306.737
  306.683
  306.631
  306.581
  306.534
  306.49
  306.45
  306.41
  306.369
  306.317
  306.244
  310.417
  310.458
  311.182
  310.784
  310.419
  310.117
  309.889
  309.686
  309.5
  309.323
  309.149
  308.976
  308.81
  308.651
  308.503
  308.364
  308.234
  308.113
  307.999
  307.891
  307.789
  307.692
  307.6
  307.511
  307.426
  307.343
  307.263
  307.185
  307.109
  307.035
  306.962
  306.89
  306.819
  306.75
  306.68
  306.61
  306.538
  306.457
  306.346
  306.137
)
;

boundaryField
{
  floor
  {
    type wallHeatTransfer;
    Tinf uniform 305.2;
    alphaWall uniform 0.24;
    value nonuniform List<scalar> 29
(
  305.001
  304.222
  304.176
  304.17
  304.167
  304.16
  304.157
  304.163
  304.16
  304.154
  304.148
  304.148
  304.153
  304.162
  304.175
  304.191
  304.209
  304.229
  304.246
  304.284
  304.284
  304.331
  304.916
  305.656
  305.001
  304.222
  304.504
  304.711
  305.136
)
;
  }
  ceiling
  {
    type wallHeatTransfer;
    Tinf uniform 303.2;
    alphaWall uniform 0.24;
    value nonuniform List<scalar> 43
(
  309.786
  309.96
  310.956
  310.548
  310.157
  309.825
  309.565
  309.335
  309.125
  308.931
  308.749
  308.576
  308.415
  308.265
  308.126
  307.997
  307.876
  307.763
  307.656
  307.555
  307.459
  307.368
  307.28
  307.196
  307.116
  307.037
  306.961
  306.887
  306.815
  306.744
  306.674
  306.606
  306.538
  306.47
  306.402
  306.334
  306.261
  306.179
  306.071
  305.859
  306.658
  306.783
  311.383
)
;
  }
  sWall
  {
    type wallHeatTransfer;
    Tinf uniform 315.2;
    alphaWall uniform 0.36;
    value uniform 311.02;
  }
  nWall
  {
    type wallHeatTransfer;
    Tinf uniform 307.2;
    alphaWall uniform 0.36;
    value nonuniform List<scalar> 6
(
  306.131
  306.118
  306.298
  306.338
  306.346
  306.282
)
;
  }
  sideWalls
  {
    type empty;
  }
  glass1
  {
    type wallHeatTransfer;
    Tinf uniform 315.2;
    alphaWall uniform 4.3;
    value nonuniform List<scalar> 9
(
  312.58
  311.563
  310.975
  310.605
  310.384
  310.255
  310.209
  310.378
  310.651
)
;
  }
  glass2
  {
    type wallHeatTransfer;
    Tinf uniform 307.2;
    alphaWall uniform 4.3;
    value nonuniform List<scalar> 2
(
  306.836
  306.825
)
;
  }
  sun
  {
    type wallHeatTransfer;
    Tinf uniform 305.2;
    alphaWall uniform 0.24;
    value nonuniform List<scalar> 14
(
  305.08
  304.851
  304.862
  304.876
  304.888
  304.901
  304.914
  304.927
  304.94
  304.954
  304.966
  304.978
  304.989
  304.998
)
;
  }
  heatsource1
  {
    type fixedGradient;
    gradient uniform 0;
  }
  heatsource2
  {
    type fixedGradient;
    gradient uniform 0;
  }
  Table_master
  {
    type zeroGradient;
  }
  Table_slave
  {
    type zeroGradient;
  }
  inlet
  {
    type fixedValue;
    value uniform 290.15;
  }
  outlet
  {
    type zeroGradient;
  }
} 	// ************************************************************************* //

