/*--------------------------------*- C++ -*----------------------------------*\
  =========                 |
  \\      /  F ield         | OpenFOAM: The Open Source CFD Toolbox
   \\    /   O peration     | Website:  https://openfoam.org
    \\  /    A nd           | Version:  6
     \\/     M anipulation  |
\*---------------------------------------------------------------------------*/
FoamFile
{
    version     2.0;
    format      ascii;
    class       volScalarField;
    location    "400";
    object      epsilon;
}
// * * * * * * * * * * * * * * * * * * * * * * * * * * * * * * * * * * * * * //

dimensions      [0 2 -3 0 0 0 0];

internalField   nonuniform List<scalar> 
459
(
0.000296978
0.000387693
0.000412439
0.000477251
0.000543793
0.000612747
0.00068777
0.000764962
0.000825683
0.000856258
0.000844095
0.000782821
0.000674284
0.0005201
0.000302058
7.46872e-05
0.000163172
0.000144193
0.000127791
0.000114247
0.000100539
8.36617e-05
6.83905e-05
5.61001e-05
4.64315e-05
3.88651e-05
3.28613e-05
2.80063e-05
2.39856e-05
2.05417e-05
1.74354e-05
1.46747e-05
1.17023e-05
1.6481e-05
0.000743779
0.00106406
0.000360161
0.000349953
0.000366943
0.000395998
0.000440599
0.00049935
0.000556516
0.000594404
0.000598187
0.000562128
0.000492218
0.000403707
0.000301822
0.000366005
9.93943e-05
0.000201431
0.000387247
0.000193008
0.000135502
0.000106743
8.93571e-05
8.34414e-05
6.81391e-05
5.43712e-05
4.33716e-05
3.48266e-05
2.82554e-05
2.31706e-05
1.92543e-05
1.65193e-05
1.52557e-05
1.94732e-05
2.3009e-05
3.24941e-05
0.00135242
0.00257693
0.000437536
0.000328026
0.000341928
0.000383324
0.000447088
0.000528611
0.000605765
0.000656538
0.000668462
0.000638354
0.00057301
0.000489766
0.000398913
0.000348666
0.000421298
0.00033596
0.000266406
0.000189709
0.000146198
0.000117967
0.000105595
0.000220273
0.000147006
0.000102463
7.44787e-05
5.62193e-05
4.39086e-05
3.53735e-05
2.93963e-05
2.53881e-05
2.01647e-05
2.17012e-05
3.20355e-05
4.29505e-05
0.00218602
0.00530035
0.000676058
0.000327398
0.000328936
0.000384801
0.000477024
0.000593756
0.000689032
0.000743974
0.000755631
0.000723779
0.000653266
0.000562619
0.000474801
0.000405731
0.000368162
0.000744981
0.000461477
0.000298462
0.000212343
0.000161612
0.000130223
0.000119544
0.00029576
0.000222745
0.000182441
0.000158018
0.000141231
0.000127241
0.000112626
9.89716e-05
8.4382e-05
5.12893e-05
3.65528e-05
5.48124e-05
6.11075e-05
0.00333041
0.00941282
0.0012976
0.000375207
0.000326791
0.000399845
0.000561719
0.000732873
0.000834213
0.000878255
0.000876397
0.000828843
0.000739886
0.000625417
0.000508071
0.000407021
0.000333209
0.000306457
0.000267372
0.000228346
0.000192705
0.000162467
0.000138612
0.000122411
0.000122658
0.000116643
0.000110906
0.000105611
9.99733e-05
9.30739e-05
8.42673e-05
7.46585e-05
6.54197e-05
5.38963e-05
4.32088e-05
5.75676e-05
6.38264e-05
8.78181e-05
8.24669e-05
7.08049e-05
0.0049183
0.0140002
0.00286752
0.000665594
0.000435044
0.000495379
0.000832125
0.00101412
0.0010781
0.00108477
0.00105418
0.000981462
0.000861446
0.000708483
0.00055161
0.000419281
0.00032831
0.000279271
0.000249314
0.000223898
0.000199821
0.000177546
0.000158512
0.000144308
0.000137526
0.000135316
0.000134416
0.000132281
0.000127677
0.000120126
0.000109491
9.54452e-05
8.08611e-05
6.76879e-05
5.62848e-05
5.65248e-05
6.44918e-05
7.17914e-05
0.000172156
0.000132274
0.00682815
0.0168591
0.00614124
0.00214671
0.0013369
0.001302
0.00149695
0.00151742
0.00146379
0.00139386
0.00131246
0.00119597
0.00102859
0.0008256
0.000624504
0.000461248
0.000355327
0.000300372
0.000271625
0.000250476
0.000231228
0.00021393
0.000200159
0.000191574
0.000189276
0.000191075
0.000192267
0.000189475
0.000181749
0.000170262
0.000157163
0.0001436
0.000126076
0.000110897
0.000100167
9.47548e-05
9.65233e-05
0.000104208
0.000276295
0.000216589
0.00734635
0.0201255
0.0106195
0.00660125
0.00452404
0.00347942
0.00277356
0.00230843
0.00200931
0.00181711
0.00166459
0.00148497
0.00124731
0.000975881
0.000723233
0.000529827
0.000414073
0.000358617
0.000332861
0.000316331
0.00030423
0.000295833
0.000291866
0.000292842
0.000297644
0.000302609
0.000302395
0.000292962
0.00027389
0.000249882
0.000229512
0.000219915
0.000222886
0.000228731
0.000252348
0.000291428
0.000353075
0.000429649
0.00158087
0.000417834
0.00685648
0.0117788
0.00975313
0.00728799
0.00548923
0.00426067
0.00342353
0.0028678
0.00252617
0.00231368
0.00212157
0.00186006
0.0015126
0.00114797
0.000851116
0.000649525
0.000556061
0.000518783
0.000505377
0.000501895
0.000504788
0.000511524
0.000520657
0.000532372
0.000544387
0.000551102
0.000544606
0.000517503
0.000467414
0.00040242
0.000342039
0.000305523
0.000302443
0.000331658
0.000388434
0.000479842
0.000607325
0.000769465
0.00094836
0.000519795
0.00450381
0.00614958
0.00503709
0.00424059
0.00368054
0.00334523
0.00317277
0.00302971
0.0027777
0.0023631
0.001846
0.00140764
0.00118909
0.001104
0.00108229
0.00108651
0.00110053
0.0011193
0.00114445
0.00116897
0.00118784
0.00120663
0.001225
0.00123497
0.00122201
0.00116724
0.00105485
0.000886897
0.000700411
0.000548519
0.000452116
0.000407509
0.000419555
0.000485938
0.000596215
0.000727404
0.000884646
0.00089827
0.0027984
0.00421339
0.00437482
0.00450822
0.0046121
0.00485615
0.00510856
0.00519108
0.00491505
0.00435342
0.00371588
0.00323622
0.00297074
0.00285401
0.00284315
0.00288583
0.00295097
0.00302058
0.00308007
0.00312308
0.00314976
0.00318277
0.003232
0.00329046
0.00333295
0.00331401
0.0031789
0.00289632
0.00250513
0.00206016
0.00162373
0.00125611
0.000989995
0.000833768
0.000765384
0.000764786
0.00190323
0.00133414
0.001136
0.00145938
0.00186895
0.00200243
0.00180078
0.00186754
0.00210287
0.00234073
0.0025367
0.00263542
0.00259785
0.00245059
0.00229105
0.00213276
0.00201978
0.00195578
0.00192245
0.00190514
0.00189383
0.00188225
0.00186819
0.00185252
0.00184357
0.00183754
0.00182955
0.001811
0.00176927
0.00169289
0.00158066
0.00145081
0.00131298
0.00117944
0.00106138
0.000964309
0.000891864
0.000842477
0.000805848
0.000767032
0.000845635
0.000769018
)
;

boundaryField
{
    floor
    {
        Cmu             0.09;
        kappa           0.41;
        E               9.8;
        type            epsilonWallFunction;
        value           nonuniform List<scalar> 
29
(
0.000302058
7.46872e-05
0.000163172
0.000144193
0.000127791
0.000114247
0.000100539
8.36617e-05
6.83905e-05
5.61001e-05
4.64315e-05
3.88651e-05
3.28613e-05
2.80063e-05
2.39856e-05
2.05417e-05
1.74354e-05
1.46747e-05
1.17023e-05
1.6481e-05
1.6481e-05
3.24941e-05
4.29505e-05
6.11075e-05
0.000302058
7.46872e-05
0.000201431
0.00033596
0.000744981
)
;
    }
    ceiling
    {
        Cmu             0.09;
        kappa           0.41;
        E               9.8;
        type            epsilonWallFunction;
        value           nonuniform List<scalar> 
43
(
0.001136
0.00145938
0.00186895
0.00200243
0.00180078
0.00186754
0.00210287
0.00234073
0.0025367
0.00263542
0.00259785
0.00245059
0.00229105
0.00213276
0.00201978
0.00195578
0.00192245
0.00190514
0.00189383
0.00188225
0.00186819
0.00185252
0.00184357
0.00183754
0.00182955
0.001811
0.00176927
0.00169289
0.00158066
0.00145081
0.00131298
0.00117944
0.00106138
0.000964309
0.000891864
0.000842477
0.000805848
0.000767032
0.000845635
0.000769018
0.00685648
0.0117788
0.0027984
)
;
    }
    sWall
    {
        Cmu             0.09;
        kappa           0.41;
        E               9.8;
        type            epsilonWallFunction;
        value           uniform 0.001136;
    }
    nWall
    {
        Cmu             0.09;
        kappa           0.41;
        E               9.8;
        type            epsilonWallFunction;
        value           nonuniform List<scalar> 6(7.08049e-05 0.000132274 0.000216589 0.00089827 0.00133414 0.000769018);
    }
    sideWalls
    {
        type            empty;
    }
    glass1
    {
        Cmu             0.09;
        kappa           0.41;
        E               9.8;
        type            epsilonWallFunction;
        value           nonuniform List<scalar> 9(0.000296978 0.000743779 0.00135242 0.00218602 0.00333041 0.0049183 0.00682815 0.00734635 0.00685648);
    }
    glass2
    {
        Cmu             0.09;
        kappa           0.41;
        E               9.8;
        type            epsilonWallFunction;
        value           nonuniform List<scalar> 2(0.000417834 0.000519795);
    }
    sun
    {
        Cmu             0.09;
        kappa           0.41;
        E               9.8;
        type            epsilonWallFunction;
        value           nonuniform List<scalar> 
14
(
0.000296978
0.000387693
0.000412439
0.000477251
0.000543793
0.000612747
0.00068777
0.000764962
0.000825683
0.000856258
0.000844095
0.000782821
0.000674284
0.0005201
)
;
    }
    heatsource1
    {
        Cmu             0.09;
        kappa           0.41;
        E               9.8;
        type            epsilonWallFunction;
        value           nonuniform List<scalar> 3(8.78181e-05 8.24669e-05 7.08049e-05);
    }
    heatsource2
    {
        Cmu             0.09;
        kappa           0.41;
        E               9.8;
        type            epsilonWallFunction;
        value           nonuniform List<scalar> 4(0.000366005 9.93943e-05 9.93943e-05 0.000421298);
    }
    Table_master
    {
        Cmu             0.09;
        kappa           0.41;
        E               9.8;
        type            epsilonWallFunction;
        value           nonuniform List<scalar> 9(0.000220273 0.000147006 0.000102463 7.44787e-05 5.62193e-05 4.39086e-05 3.53735e-05 2.93963e-05 2.53881e-05);
    }
    Table_slave
    {
        Cmu             0.09;
        kappa           0.41;
        E               9.8;
        type            epsilonWallFunction;
        value           nonuniform List<scalar> 9(0.00029576 0.000222745 0.000182441 0.000158018 0.000141231 0.000127241 0.000112626 9.89716e-05 8.4382e-05);
    }
    inlet
    {
        type            turbulentMixingLengthDissipationRateInlet;
        mixingLength    0.01;
        phi             phi;
        k               k;
        value           uniform 3.01869e-05;
    }
    outlet
    {
        type            zeroGradient;
    }
}


// ************************************************************************* //
