/*--------------------------------*- C++ -*----------------------------------*\
  =========                 |
  \\      /  F ield         | OpenFOAM: The Open Source CFD Toolbox
   \\    /   O peration     | Website:  https://openfoam.org
    \\  /    A nd           | Version:  6
     \\/     M anipulation  |
\*---------------------------------------------------------------------------*/
FoamFile
{
    version     2.0;
    format      ascii;
    class       volScalarField;
    location    "400";
    object      T;
}
// * * * * * * * * * * * * * * * * * * * * * * * * * * * * * * * * * * * * * //

dimensions      [0 0 0 1 0 0 0];

internalField   nonuniform List<scalar> 
459
(
305.668
305.492
305.488
305.489
305.49
305.49
305.49
305.487
305.482
305.473
305.463
305.453
305.443
305.432
305.399
305.339
305.41
305.443
305.458
305.465
305.469
305.468
305.465
305.461
305.456
305.451
305.447
305.442
305.437
305.431
305.425
305.416
305.394
305.245
305.801
305.544
305.536
305.543
305.549
305.552
305.552
305.547
305.535
305.516
305.495
305.477
305.464
305.457
305.452
305.46
305.463
305.441
305.482
305.496
305.507
305.515
305.521
305.522
305.522
305.521
305.52
305.518
305.517
305.515
305.511
305.505
305.494
305.475
305.443
305.429
305.932
305.587
305.57
305.584
305.598
305.607
305.611
305.606
305.585
305.551
305.514
305.485
305.468
305.461
305.461
305.464
305.465
305.481
305.496
305.511
305.525
305.537
305.546
305.545
305.545
305.545
305.545
305.545
305.544
305.544
305.542
305.538
305.531
305.513
305.482
305.466
306.063
305.634
305.601
305.62
305.645
305.666
305.68
305.674
305.642
305.588
305.53
305.488
305.465
305.459
305.461
305.466
305.47
305.474
305.488
305.505
305.523
305.542
305.557
305.57
305.583
305.593
305.602
305.61
305.618
305.624
305.629
305.633
305.635
305.607
305.572
305.53
305.501
306.19
305.688
305.63
305.648
305.682
305.718
305.747
305.742
305.693
305.616
305.537
305.484
305.458
305.453
305.459
305.469
305.48
305.493
305.509
305.528
305.548
305.568
305.585
305.601
305.615
305.626
305.636
305.644
305.65
305.655
305.658
305.659
305.657
305.643
305.616
305.577
305.537
305.537
305.539
305.564
306.304
305.756
305.673
305.675
305.708
305.752
305.801
305.786
305.717
305.622
305.533
305.472
305.445
305.444
305.458
305.476
305.495
305.514
305.535
305.557
305.579
305.599
305.617
305.632
305.645
305.655
305.663
305.669
305.673
305.676
305.677
305.676
305.672
305.663
305.644
305.618
305.584
305.569
305.561
305.575
306.407
305.862
305.77
305.751
305.768
305.81
305.841
305.803
305.71
305.597
305.5
305.441
305.423
305.434
305.461
305.491
305.519
305.545
305.57
305.593
305.615
305.633
305.649
305.661
305.671
305.678
305.683
305.686
305.687
305.688
305.687
305.685
305.68
305.673
305.66
305.642
305.615
305.595
305.58
305.585
306.558
306.138
306.028
305.962
305.935
305.941
305.895
305.787
305.645
305.512
305.422
305.386
305.395
305.432
305.477
305.521
305.556
305.585
305.61
305.632
305.65
305.664
305.675
305.683
305.688
305.691
305.693
305.693
305.692
305.691
305.688
305.685
305.681
305.675
305.666
305.653
305.634
305.616
305.604
305.662
306.768
306.571
306.395
306.25
306.142
306.036
305.837
305.617
305.434
305.324
305.292
305.32
305.382
305.454
305.517
305.569
305.603
305.628
305.648
305.663
305.675
305.684
305.69
305.693
305.695
305.695
305.695
305.694
305.692
305.689
305.685
305.682
305.677
305.674
305.671
305.67
305.673
305.682
305.697
305.737
302.3
303.718
304.321
304.449
304.568
304.699
304.847
305.009
305.171
305.313
305.433
305.525
305.581
305.619
305.643
305.66
305.673
305.681
305.688
305.692
305.694
305.695
305.695
305.695
305.694
305.692
305.691
305.688
305.686
305.684
305.682
305.681
305.681
305.683
305.688
305.698
305.714
305.749
302.434
303.473
303.832
304.099
304.376
304.645
304.895
305.12
305.314
305.44
305.529
305.588
305.625
305.649
305.664
305.674
305.681
305.686
305.689
305.691
305.692
305.693
305.693
305.693
305.693
305.692
305.692
305.692
305.691
305.69
305.689
305.689
305.689
305.69
305.693
305.7
305.714
305.736
303.199
303.099
303.096
303.949
304.403
304.701
304.927
305.123
305.284
305.409
305.499
305.559
305.599
305.626
305.643
305.654
305.661
305.666
305.669
305.671
305.672
305.673
305.673
305.674
305.675
305.675
305.676
305.677
305.678
305.68
305.681
305.683
305.685
305.686
305.688
305.69
305.692
305.698
305.701
305.733
)
;

boundaryField
{
    floor
    {
        type            wallHeatTransfer;
        Tinf            uniform 301.25;
        alphaWall       uniform 0.24;
        value           nonuniform List<scalar> 
29
(
304.915
304.673
304.845
304.857
304.852
304.843
304.827
304.798
304.764
304.728
304.693
304.659
304.625
304.593
304.56
304.527
304.491
304.451
304.389
304.341
304.341
304.609
304.688
304.775
304.915
304.673
304.901
304.999
305.081
)
;
    }
    ceiling
    {
        type            wallHeatTransfer;
        Tinf            uniform 301.25;
        alphaWall       uniform 0.24;
        value           nonuniform List<scalar> 
43
(
303.037
302.955
302.962
303.756
304.171
304.449
304.667
304.857
305.012
305.131
305.215
305.266
305.298
305.317
305.329
305.336
305.341
305.345
305.347
305.348
305.349
305.349
305.349
305.349
305.349
305.349
305.347
305.344
305.34
305.333
305.325
305.317
305.308
305.3
305.294
305.29
305.287
305.287
305.3
305.319
306.483
306.335
302.357
)
;
    }
    sWall
    {
        type            wallHeatTransfer;
        Tinf            uniform 314.15;
        alphaWall       uniform 0.36;
        value           uniform 304.511;
    }
    nWall
    {
        type            wallHeatTransfer;
        Tinf            uniform 308.15;
        alphaWall       uniform 0.36;
        value           nonuniform List<scalar> 6(306.157 306.09 306.045 306.055 306.015 306.054);
    }
    sideWalls
    {
        type            empty;
    }
    glass1
    {
        type            wallHeatTransfer;
        Tinf            uniform 314.15;
        alphaWall       uniform 4.3;
        value           nonuniform List<scalar> 9(311.673 311.24 310.96 310.741 310.557 310.388 310.253 310.288 310.433);
    }
    glass2
    {
        type            wallHeatTransfer;
        Tinf            uniform 308.15;
        alphaWall       uniform 4.3;
        value           nonuniform List<scalar> 2(307.367 307.358);
    }
    sun
    {
        type            wallHeatTransfer;
        Tinf            uniform 301.25;
        alphaWall       uniform 0.24;
        value           nonuniform List<scalar> 
14
(
305.15
305.027
305.03
305.048
305.063
305.076
305.087
305.096
305.099
305.094
305.084
305.067
305.043
305.006
)
;
    }
    heatsource1
    {
        type            fixedGradient;
        gradient        uniform 0;
    }
    heatsource2
    {
        type            fixedGradient;
        gradient        uniform 0;
    }
    Table_master
    {
        type            zeroGradient;
    }
    Table_slave
    {
        type            zeroGradient;
    }
    inlet
    {
        type            fixedValue;
        value           uniform 299.15;
    }
    outlet
    {
        type            zeroGradient;
    }
}


// ************************************************************************* //
