/*--------------------------------*- C++ -*----------------------------------*\
  =========                 |
  \\      /  F ield         | OpenFOAM: The Open Source CFD Toolbox
   \\    /   O peration     | Website:  https://openfoam.org
    \\  /    A nd           | Version:  6
     \\/     M anipulation  |
\*---------------------------------------------------------------------------*/
FoamFile
{
    version     2.0;
    format      ascii;
    class       volScalarField;
    location    "200";
    object      alphat;
}
// * * * * * * * * * * * * * * * * * * * * * * * * * * * * * * * * * * * * * //

dimensions      [1 -1 -1 0 0 0 0];

internalField   nonuniform List<scalar> 
459
(
0.001595
0.00241067
0.00230108
0.00219571
0.00210738
0.00203178
0.00196468
0.00190348
0.0018456
0.00178839
0.00172927
0.00166523
0.0015917
0.00149932
0.00138163
0.000458059
0.000363752
0.000207365
0.000211311
0.000237049
0.000259872
0.000281131
0.000302617
0.000325544
0.000351007
0.000380296
0.000415113
0.000457718
0.000511232
0.000577789
0.000651124
0.000698683
0.000731434
0.000656491
0.0027959
0.00321804
0.003288
0.00320526
0.00312681
0.00307994
0.00304922
0.0030071
0.00293707
0.00283987
0.00271775
0.00257055
0.00238793
0.00212489
0.00175981
0.00132388
0.00112674
0.000577621
0.000911504
0.000462038
0.000384712
0.000421013
0.00046889
0.000522635
0.000585049
0.000653791
0.000731324
0.000821585
0.000930931
0.00107099
0.0012654
0.00156798
0.00228981
0.00255767
0.00309504
0.000889704
0.00311791
0.00383224
0.00366912
0.00337154
0.00322965
0.00320615
0.00324142
0.00327445
0.00327144
0.00322509
0.00313232
0.00299073
0.00279296
0.00250837
0.00214213
0.00178314
0.00114288
0.000615181
0.000824569
0.000426221
0.000377718
0.000357924
0.000326366
0.000278596
0.000295063
0.000317851
0.000348066
0.000388861
0.000445342
0.000525421
0.000641687
0.000813836
0.00269743
0.00300682
0.00359514
0.00101303
0.00333853
0.00437936
0.00374364
0.00308875
0.00292197
0.00300187
0.0031672
0.0033002
0.00335456
0.00334216
0.0032761
0.00315825
0.00297982
0.00271177
0.00236185
0.00203939
0.00153886
0.000728328
0.000864032
0.00062009
0.00057824
0.000561997
0.000575018
0.000575739
0.000553667
0.000586109
0.000616209
0.000647457
0.000682088
0.00072015
0.000766336
0.000829001
0.000926535
0.00305583
0.00316185
0.00327282
0.000998734
0.00353627
0.00471657
0.00348225
0.00268842
0.00299944
0.0034815
0.00384148
0.00395693
0.00374394
0.0035232
0.00335701
0.0032094
0.00303105
0.00276878
0.00241875
0.00206949
0.00159207
0.00112297
0.000842565
0.00122089
0.00139272
0.00159222
0.0018523
0.00215739
0.00247237
0.00277464
0.00300912
0.00317138
0.00326852
0.00334344
0.00341417
0.0034997
0.0036207
0.00379129
0.00342197
0.00276199
0.0019938
0.00114086
0.00117989
0.00114051
0.00374365
0.00477748
0.00310494
0.00276098
0.00357123
0.00400398
0.00430018
0.00434365
0.00390546
0.00353954
0.00332146
0.00315634
0.00296663
0.00269684
0.00235943
0.00202612
0.00159514
0.00129922
0.00148857
0.00202953
0.00232608
0.00266072
0.00303525
0.00342301
0.00378735
0.00409453
0.00432661
0.00448324
0.00458102
0.00464641
0.00469273
0.00473036
0.00476519
0.00477503
0.00467421
0.00446396
0.00419249
0.00400975
0.00393697
0.00144261
0.00399241
0.00463355
0.0031282
0.00264373
0.00338445
0.00362415
0.00380377
0.00380382
0.003602
0.00336672
0.00318427
0.00302256
0.00283108
0.00257378
0.00226964
0.00197911
0.00165335
0.00178312
0.00227417
0.00269362
0.0030506
0.00343123
0.00381639
0.00417957
0.00450499
0.00477169
0.00496486
0.00509413
0.00517682
0.00522762
0.00525924
0.00528501
0.00532021
0.00537273
0.00542595
0.00544834
0.0054012
0.00538636
0.00571027
0.00170725
0.00433033
0.00488391
0.00432248
0.00261147
0.00319543
0.00324367
0.00324355
0.00332643
0.00325636
0.00313672
0.00301171
0.00287333
0.00269832
0.00246843
0.00220355
0.00196944
0.00180574
0.0023705
0.00290227
0.00340739
0.00388583
0.00432723
0.004708
0.00501202
0.00525526
0.0054395
0.00556474
0.00564274
0.00568771
0.00570954
0.00571681
0.00571857
0.00572499
0.00574349
0.00577556
0.00582902
0.00591458
0.00602096
0.00658978
0.00198497
0.00485981
0.00576357
0.00814002
0.00434549
0.00366181
0.00364954
0.00332804
0.00321727
0.00318012
0.00305541
0.00294016
0.00281923
0.00266707
0.00246584
0.00222886
0.00204136
0.00206087
0.0028252
0.00362091
0.00447158
0.00518222
0.00571852
0.00605787
0.00625078
0.00635917
0.00641769
0.00644432
0.00645107
0.0064449
0.0064295
0.00640698
0.00637919
0.0063482
0.00631492
0.00627916
0.00624987
0.00626475
0.00637482
0.00663848
0.00199606
0.0123034
0.00668066
0.00490821
0.00490357
0.00458133
0.00430768
0.00411826
0.00378457
0.00349328
0.00327267
0.00307155
0.0028509
0.00261064
0.00248648
0.00286399
0.00368396
0.00486579
0.00607021
0.0069327
0.00746167
0.00772094
0.00780601
0.00780087
0.00775991
0.00771141
0.00766622
0.00762528
0.00758512
0.00754113
0.00748942
0.00742727
0.00735259
0.00726256
0.00715096
0.00700086
0.00674775
0.00589396
0.0017233
0.00458772
0.00492201
0.00593573
0.00612936
0.00612802
0.00575432
0.00518568
0.00452496
0.00397033
0.00358429
0.00330748
0.00308409
0.00288861
0.0028598
0.00352029
0.00458791
0.00594667
0.00728814
0.00831044
0.00883697
0.00898673
0.00894142
0.00883845
0.00875027
0.00870082
0.00868655
0.00869286
0.0087043
0.00870937
0.00870123
0.008676
0.00863018
0.0085583
0.00845057
0.00828308
0.00796923
0.0070532
0.00221341
0.00102969
0.00107265
0.00233584
0.0021252
0.00180384
0.00170317
0.00162793
0.00154963
0.00149046
0.00145947
0.00142877
0.00139937
0.0013759
0.00135658
0.00133636
0.00133955
0.00141412
0.00152433
0.00165595
0.00179356
0.00192267
0.0020296
0.00209486
0.00212238
0.00212505
0.00211561
0.00210321
0.00209293
0.00208657
0.00208384
0.00208353
0.00208437
0.00208533
0.00208563
0.00208443
0.00208065
0.00207309
0.00205776
0.00199756
0.00175165
)
;

boundaryField
{
    floor
    {
        type            compressible::alphatWallFunction;
        Prt             0.85;
        value           nonuniform List<scalar> 
29
(
0.000195385
6.29994e-05
4.81657e-05
2.23453e-05
2.30315e-05
2.74205e-05
3.12575e-05
3.47904e-05
3.83243e-05
4.20582e-05
4.61641e-05
5.08386e-05
5.63344e-05
6.29786e-05
7.12135e-05
8.13049e-05
9.22574e-05
9.9277e-05
0.000104071
9.3039e-05
9.30379e-05
0.00012693
0.000144401
0.000142393
0.000195383
6.29986e-05
8.12459e-05
8.68844e-05
0.000103622
)
;
    }
    ceiling
    {
        type            compressible::alphatWallFunction;
        Prt             0.85;
        value           nonuniform List<scalar> 
43
(
0.000147251
0.000153251
0.000321178
0.000294026
0.000251906
0.000238593
0.00022859
0.000218126
0.000210181
0.000206005
0.000201859
0.000197878
0.000194693
0.000192066
0.000189312
0.000189736
0.000199856
0.000214711
0.000232298
0.000250522
0.000267478
0.000281429
0.000289904
0.000293469
0.000293813
0.00029259
0.000290983
0.000289649
0.000288823
0.000288467
0.000288426
0.000288532
0.000288655
0.000288693
0.000288536
0.000288045
0.000287061
0.000285067
0.000277231
0.000244954
0.000630963
0.000737413
0.000598549
)
;
    }
    sWall
    {
        type            compressible::alphatWallFunction;
        Prt             0.85;
        value           uniform 0.000146556;
    }
    nWall
    {
        type            compressible::alphatWallFunction;
        Prt             0.85;
        value           nonuniform List<scalar> 6(0.000162124 0.000203455 0.000238856 0.000240994 0.000304987 0.000244735);
    }
    sideWalls
    {
        type            empty;
    }
    glass1
    {
        type            compressible::alphatWallFunction;
        Prt             0.85;
        value           nonuniform List<scalar> 9(0.000221642 0.000375861 0.000415909 0.0004431 0.000467317 0.000492567 0.000522674 0.000563293 0.000626356);
    }
    glass2
    {
        type            compressible::alphatWallFunction;
        Prt             0.85;
        value           nonuniform List<scalar> 2(0.00027574 0.000277187);
    }
    sun
    {
        type            compressible::alphatWallFunction;
        Prt             0.85;
        value           nonuniform List<scalar> 
14
(
0.000224152
0.000330488
0.000316455
0.000302897
0.000291477
0.000281661
0.000272916
0.000264912
0.000257316
0.000249783
0.00024197
0.000233473
0.000223673
0.000211288
)
;
    }
    heatsource1
    {
        type            compressible::alphatWallFunction;
        Prt             0.85;
        value           nonuniform List<scalar> 3(0.00016211 0.000167509 0.000162052);
    }
    heatsource2
    {
        type            compressible::alphatWallFunction;
        Prt             0.85;
        value           nonuniform List<scalar> 4(0.000187276 0.000160152 0.000160151 0.000162391);
    }
    Table_master
    {
        type            compressible::alphatWallFunction;
        Prt             0.85;
        value           nonuniform List<scalar> 9(3.42529e-05 3.6965e-05 4.06849e-05 4.5563e-05 5.20623e-05 6.09177e-05 7.32336e-05 9.0708e-05 0.000115893);
    }
    Table_slave
    {
        type            compressible::alphatWallFunction;
        Prt             0.85;
        value           nonuniform List<scalar> 9(7.75123e-05 8.24023e-05 8.69091e-05 9.15591e-05 9.66811e-05 0.000102274 0.000109013 0.000118078 0.000132027);
    }
    inlet
    {
        type            fixedValue;
        value           uniform 1.94e-05;
    }
    outlet
    {
        type            zeroGradient;
    }
}


// ************************************************************************* //
