// -*- C++ -*-
// File generated by PyFoam - sorry for the ugliness

FoamFile
{
 version 2.0;
 format ascii;
 class volScalarField;
 location "200";
 object T;
}

dimensions [ 0 0 0 1 0 0 0 ];

internalField nonuniform List<scalar> 459
(
  302.833
  302.573
  302.563
  302.564
  302.563
  302.563
  302.56
  302.554
  302.549
  302.546
  302.549
  302.561
  302.564
  302.566
  302.574
  302.827
  302.798
  302.785
  302.796
  302.814
  302.829
  302.841
  302.851
  302.862
  302.872
  302.883
  302.893
  302.904
  302.916
  302.928
  302.941
  302.956
  302.976
  303.015
  303.002
  302.608
  302.586
  302.591
  302.595
  302.596
  302.589
  302.573
  302.555
  302.546
  302.549
  302.562
  302.569
  302.57
  302.569
  302.564
  302.554
  302.831
  302.763
  302.757
  302.775
  302.801
  302.824
  302.834
  302.843
  302.85
  302.858
  302.867
  302.875
  302.884
  302.894
  302.905
  302.918
  302.935
  302.959
  303.007
  303.182
  302.656
  302.62
  302.633
  302.647
  302.654
  302.641
  302.604
  302.567
  302.546
  302.551
  302.569
  302.584
  302.588
  302.584
  302.577
  302.566
  302.777
  302.738
  302.743
  302.776
  302.818
  302.853
  302.855
  302.859
  302.863
  302.869
  302.876
  302.884
  302.893
  302.902
  302.912
  302.927
  302.942
  302.963
  303.01
  303.367
  302.718
  302.66
  302.685
  302.718
  302.738
  302.71
  302.641
  302.577
  302.544
  302.55
  302.577
  302.603
  302.616
  302.613
  302.604
  302.59
  302.599
  302.624
  302.672
  302.737
  302.807
  302.873
  302.926
  302.969
  303.004
  303.032
  303.059
  303.083
  303.106
  303.127
  303.146
  303.161
  303.079
  303.019
  302.995
  303.021
  303.55
  302.799
  302.711
  302.741
  302.798
  302.833
  302.778
  302.668
  302.581
  302.54
  302.548
  302.587
  302.63
  302.657
  302.662
  302.657
  302.652
  302.67
  302.709
  302.77
  302.843
  302.92
  302.99
  303.049
  303.102
  303.142
  303.175
  303.202
  303.222
  303.235
  303.242
  303.242
  303.232
  303.173
  303.091
  303.035
  303.036
  303.255
  303.331
  303.32
  303.719
  302.906
  302.793
  302.817
  302.91
  302.909
  302.809
  302.675
  302.57
  302.527
  302.545
  302.605
  302.672
  302.721
  302.743
  302.749
  302.758
  302.791
  302.846
  302.916
  302.994
  303.069
  303.136
  303.191
  303.237
  303.273
  303.301
  303.321
  303.333
  303.338
  303.335
  303.323
  303.299
  303.246
  303.165
  303.092
  303.065
  303.158
  303.204
  303.257
  303.883
  303.078
  302.968
  302.987
  303.04
  302.958
  302.793
  302.627
  302.52
  302.496
  302.545
  302.641
  302.743
  302.82
  302.866
  302.887
  302.911
  302.958
  303.024
  303.095
  303.167
  303.234
  303.29
  303.334
  303.369
  303.395
  303.413
  303.424
  303.428
  303.425
  303.413
  303.394
  303.363
  303.313
  303.244
  303.171
  303.129
  303.153
  303.18
  303.221
  304.112
  303.515
  303.391
  303.355
  303.184
  302.92
  302.659
  302.479
  302.416
  302.458
  302.572
  302.726
  302.871
  302.975
  303.033
  303.06
  303.095
  303.151
  303.219
  303.284
  303.343
  303.393
  303.432
  303.462
  303.483
  303.496
  303.504
  303.505
  303.501
  303.49
  303.473
  303.451
  303.421
  303.376
  303.324
  303.269
  303.24
  303.262
  303.286
  303.399
  304.444
  304.156
  303.926
  303.519
  302.914
  302.445
  302.2
  302.163
  302.284
  302.481
  302.693
  302.923
  303.095
  303.173
  303.213
  303.248
  303.29
  303.344
  303.402
  303.454
  303.497
  303.528
  303.55
  303.564
  303.57
  303.57
  303.564
  303.553
  303.538
  303.521
  303.504
  303.488
  303.475
  303.467
  303.468
  303.483
  303.512
  303.545
  303.565
  303.624
  295.673
  296.67
  298.535
  300.038
  301.112
  301.889
  302.498
  302.898
  303.102
  303.225
  303.304
  303.354
  303.391
  303.429
  303.47
  303.514
  303.556
  303.59
  303.615
  303.63
  303.637
  303.636
  303.631
  303.621
  303.608
  303.593
  303.577
  303.562
  303.548
  303.537
  303.529
  303.526
  303.531
  303.547
  303.574
  303.611
  303.662
  303.737
  296.658
  298.759
  300.751
  301.805
  302.442
  302.848
  303.107
  303.27
  303.372
  303.439
  303.487
  303.524
  303.557
  303.589
  303.621
  303.65
  303.675
  303.692
  303.701
  303.704
  303.7
  303.692
  303.681
  303.667
  303.653
  303.638
  303.623
  303.608
  303.594
  303.582
  303.573
  303.567
  303.568
  303.576
  303.594
  303.629
  303.659
  303.715
  300.242
  300.165
  300.154
  302.083
  302.848
  303.15
  303.314
  303.428
  303.51
  303.569
  303.614
  303.648
  303.675
  303.698
  303.718
  303.735
  303.749
  303.76
  303.767
  303.769
  303.766
  303.761
  303.752
  303.742
  303.73
  303.718
  303.704
  303.69
  303.676
  303.662
  303.647
  303.634
  303.621
  303.611
  303.603
  303.604
  303.614
  303.63
  303.649
  303.711
)
;

boundaryField
{
  floor
  {
    type wallHeatTransfer;
    Tinf uniform 305.2;
    alphaWall uniform 0.24;
    value nonuniform List<scalar> 29
(
  302.88
  303.235
  303.168
  303.118
  303.11
  303.124
  303.143
  303.168
  303.195
  303.221
  303.247
  303.272
  303.296
  303.32
  303.343
  303.366
  303.39
  303.416
  303.447
  303.507
  303.507
  303.454
  303.428
  303.419
  302.88
  303.235
  303.244
  303.113
  302.836
)
;
  }
  ceiling
  {
    type wallHeatTransfer;
    Tinf uniform 303.2;
    alphaWall uniform 0.24;
    value nonuniform List<scalar> 43
(
  300.446
  300.365
  300.348
  302.151
  302.87
  303.154
  303.306
  303.41
  303.484
  303.537
  303.575
  303.604
  303.627
  303.646
  303.663
  303.677
  303.688
  303.695
  303.699
  303.698
  303.694
  303.687
  303.678
  303.668
  303.657
  303.645
  303.634
  303.622
  303.61
  303.599
  303.589
  303.579
  303.57
  303.564
  303.56
  303.563
  303.572
  303.586
  303.6
  303.652
  304.388
  304.118
  297.068
)
;
  }
  sWall
  {
    type wallHeatTransfer;
    Tinf uniform 315.2;
    alphaWall uniform 0.36;
    value uniform 301.744;
  }
  nWall
  {
    type wallHeatTransfer;
    Tinf uniform 307.2;
    alphaWall uniform 0.36;
    value nonuniform List<scalar> 6
(
  304.041
  303.967
  303.863
  304.231
  304.206
  304.279
)
;
  }
  sideWalls
  {
    type empty;
  }
  glass1
  {
    type wallHeatTransfer;
    Tinf uniform 315.2;
    alphaWall uniform 4.3;
    value nonuniform List<scalar> 9
(
  311.01
  310.383
  309.994
  309.701
  309.459
  309.241
  309.095
  309.183
  309.431
)
;
  }
  glass2
  {
    type wallHeatTransfer;
    Tinf uniform 307.2;
    alphaWall uniform 4.3;
    value nonuniform List<scalar> 2
(
  305.746
  305.885
)
;
  }
  sun
  {
    type wallHeatTransfer;
    Tinf uniform 305.2;
    alphaWall uniform 0.24;
    value nonuniform List<scalar> 14
(
  303.061
  302.807
  302.794
  302.785
  302.776
  302.767
  302.758
  302.75
  302.743
  302.744
  302.753
  302.782
  302.806
  302.837
)
;
  }
  heatsource1
  {
    type fixedGradient;
    gradient uniform 0;
  }
  heatsource2
  {
    type fixedGradient;
    gradient uniform 0;
  }
  Table_master
  {
    type zeroGradient;
  }
  Table_slave
  {
    type zeroGradient;
  }
  inlet
  {
    type fixedValue;
    value uniform 293.15;
  }
  outlet
  {
    type zeroGradient;
  }
} 	// ************************************************************************* //

