// -*- C++ -*-
// File generated by PyFoam - sorry for the ugliness

FoamFile
{
 version 2.0;
 format ascii;
 class volVectorField;
 location "400";
 object U;
}

dimensions [ 0 1 -1 0 0 0 0 ];

internalField nonuniform List<vector> 459
(
  (0.349302 -0.145377 0)
  (0.260223 -0.14749 0)
  (0.39392 -0.0991263 0)
  (0.497706 -0.0650677 0)
  (0.545592 -0.0453404 0)
  (0.56347 -0.0322463 0)
  (0.569168 -0.0220736 0)
  (0.565374 -0.0132541 0)
  (0.551587 -0.00501668 0)
  (0.527218 0.00330312 0)
  (0.491438 0.0124582 0)
  (0.442515 0.0236028 0)
  (0.376736 0.0394362 0)
  (0.282225 0.0694266 0)
  (0.208197 0.149181 0)
  (0.0201096 0.0124728 0)
  (-0.0283061 -0.0048955 0)
  (-0.0191345 -0.00614604 0)
  (-0.0178412 -0.00431517 0)
  (-0.0161315 -0.00384542 0)
  (-0.0136262 -0.00545176 0)
  (-0.00745807 -0.00952961 0)
  (0.00239391 -0.0126107 0)
  (0.0102955 -0.00836416 0)
  (0.0166532 -0.00608738 0)
  (0.0204119 -0.00469906 0)
  (0.0230807 -0.00369608 0)
  (0.0254308 -0.00295257 0)
  (0.0275338 -0.00244839 0)
  (0.0294515 -0.00158098 0)
  (0.0295652 -0.000417628 0)
  (0.0284323 -0.000415707 0)
  (0.0308899 0.00108795 0)
  (-0.0127853 0.0125715 0)
  (0.467895 -0.322599 0)
  (0.212044 -0.250992 0)
  (0.327756 -0.138941 0)
  (0.409936 -0.0713861 0)
  (0.441021 -0.036705 0)
  (0.452569 -0.0143389 0)
  (0.458296 0.00421704 0)
  (0.457243 0.0203836 0)
  (0.447346 0.035101 0)
  (0.428044 0.0497357 0)
  (0.398916 0.0655969 0)
  (0.359734 0.0841541 0)
  (0.311805 0.107771 0)
  (0.258473 0.141248 0)
  (0.228461 0.199949 0)
  (0.199846 0.173143 0)
  (0.0943915 0.118505 0)
  (0.0809201 0.00938839 0)
  (0.040217 0.00666273 0)
  (0.0252471 0.00374082 0)
  (0.0174816 0.00281671 0)
  (0.0109231 0.00293303 0)
  (0.00305741 0.00196264 0)
  (-0.000372372 -0.00893811 0)
  (-0.00118855 -0.0151042 0)
  (-0.00124667 -0.00826949 0)
  (0.00334932 -0.00461788 0)
  (0.00428735 -0.00324978 0)
  (0.0040128 -0.00273178 0)
  (0.00307018 -0.00254767 0)
  (0.00173776 -0.00214351 0)
  (-0.000497863 -0.000559208 0)
  (-0.00106817 0.000427431 0)
  (0.00151824 -0.00254638 0)
  (0.0171611 0.00315533 0)
  (-0.0745458 0.0279266 0)
  (0.514353 -0.49863 0)
  (0.0783299 -0.339447 0)
  (0.220781 -0.183116 0)
  (0.283539 -0.103351 0)
  (0.297396 -0.0642555 0)
  (0.304689 -0.0370976 0)
  (0.311631 -0.0132542 0)
  (0.315986 0.0101127 0)
  (0.313528 0.0341027 0)
  (0.30368 0.0594828 0)
  (0.286053 0.0868173 0)
  (0.260723 0.116529 0)
  (0.229179 0.149022 0)
  (0.192467 0.184202 0)
  (0.163681 0.221193 0)
  (0.125465 0.183883 0)
  (0.0657909 0.140065 0)
  (0.0574698 -0.0166695 0)
  (-0.0119388 -0.00325364 0)
  (-0.00422654 0.00345095 0)
  (-0.000739157 0.00444514 0)
  (0.00199988 0.0047542 0)
  (0.00304146 0.00504162 0)
  (0.0118044 -0.00126053 0)
  (-0.00572752 -0.0141032 0)
  (-0.0194747 -0.0103582 0)
  (-0.0245766 -0.00772684 0)
  (-0.0284336 -0.00595911 0)
  (-0.0312505 -0.00441011 0)
  (-0.0333192 -0.00296453 0)
  (-0.0343474 -0.00159603 0)
  (-0.0330436 -0.00023135 0)
  (-0.0293491 0.00254035 0)
  (-0.0285345 0.00548236 0)
  (-0.0409629 0.00991256 0)
  (-0.0986826 0.0152016 0)
  (0.534729 -0.611094 0)
  (-0.0546483 -0.384502 0)
  (0.140796 -0.203773 0)
  (0.173203 -0.117562 0)
  (0.16606 -0.0749663 0)
  (0.170525 -0.0430009 0)
  (0.177873 -0.0148104 0)
  (0.18523 0.0127352 0)
  (0.187581 0.0413935 0)
  (0.184396 0.0723263 0)
  (0.175099 0.105754 0)
  (0.159379 0.141319 0)
  (0.137718 0.178116 0)
  (0.109024 0.214339 0)
  (0.0832055 0.247328 0)
  (0.0508578 0.228565 0)
  (0.0188079 0.1898 0)
  (-0.0571043 0.0412737 0)
  (-0.0367517 -0.000819188 0)
  (-0.0427854 0.00102458 0)
  (-0.0417988 0.00301081 0)
  (-0.0429482 0.00464676 0)
  (-0.0458461 0.00460686 0)
  (-0.0502468 0.00264271 0)
  (-0.0549131 -0.000113573 0)
  (-0.0556262 -0.00206151 0)
  (-0.0549375 -0.00328967 0)
  (-0.0528127 -0.0040944 0)
  (-0.0497279 -0.00464411 0)
  (-0.0459612 -0.00503966 0)
  (-0.0415822 -0.00533808 0)
  (-0.0363228 -0.00545149 0)
  (-0.0292934 -0.00485215 0)
  (-0.0216609 -0.00352001 0)
  (-0.0105139 -0.00250838 0)
  (0.00374828 -0.00247406 0)
  (-0.025595 -0.00197712 0)
  (0.525536 -0.671878 0)
  (-0.147816 -0.412392 0)
  (0.0898849 -0.216969 0)
  (0.0799479 -0.116231 0)
  (0.0507005 -0.0784943 0)
  (0.0594476 -0.0489367 0)
  (0.0677551 -0.0215991 0)
  (0.0760179 0.00770205 0)
  (0.079467 0.0403974 0)
  (0.078868 0.0766207 0)
  (0.0737033 0.115753 0)
  (0.0634396 0.156835 0)
  (0.0481588 0.198596 0)
  (0.0262027 0.239173 0)
  (0.00803309 0.275495 0)
  (-0.0152289 0.263819 0)
  (-0.025442 0.211774 0)
  (-0.0585092 0.0434096 0)
  (-0.0521361 0.00495383 0)
  (-0.0606072 0.00308208 0)
  (-0.0637338 0.00485623 0)
  (-0.0648717 0.00651301 0)
  (-0.0649184 0.00693324 0)
  (-0.0643815 0.00575541 0)
  (-0.0634452 0.00323386 0)
  (-0.062136 0.000249024 0)
  (-0.0605694 -0.0020129 0)
  (-0.0586008 -0.00363404 0)
  (-0.0562505 -0.0048437 0)
  (-0.0535665 -0.00591919 0)
  (-0.0504932 -0.00718028 0)
  (-0.0467209 -0.00895612 0)
  (-0.0415404 -0.0114544 0)
  (-0.0339333 -0.0146139 0)
  (-0.0225452 -0.0183667 0)
  (-0.00472865 -0.0224494 0)
  (0.0207905 -0.0240575 0)
  (0.0525533 -0.0313325 0)
  (0.0879508 -0.0119522 0)
  (-0.0459826 0.0333668 0)
  (0.475453 -0.684676 0)
  (-0.188536 -0.423214 0)
  (0.0357467 -0.208226 0)
  (-0.00507887 -0.0869038 0)
  (-0.044456 -0.0778801 0)
  (-0.0315063 -0.0557877 0)
  (-0.0259029 -0.0299889 0)
  (-0.0196198 0.00142007 0)
  (-0.018035 0.0384556 0)
  (-0.0179523 0.078925 0)
  (-0.0204092 0.122544 0)
  (-0.02607 0.168267 0)
  (-0.035006 0.214602 0)
  (-0.0476975 0.258379 0)
  (-0.0549357 0.290997 0)
  (-0.0631338 0.27714 0)
  (-0.057019 0.209188 0)
  (-0.063587 0.0525877 0)
  (-0.0613846 0.0145544 0)
  (-0.0675464 0.00753533 0)
  (-0.0696645 0.00626096 0)
  (-0.0692926 0.00590873 0)
  (-0.067436 0.00507195 0)
  (-0.0649566 0.00328885 0)
  (-0.0625276 0.000723229 0)
  (-0.0604776 -0.00197059 0)
  (-0.0589478 -0.0041269 0)
  (-0.0577862 -0.0057029 0)
  (-0.0569674 -0.00686129 0)
  (-0.0565491 -0.00789075 0)
  (-0.0565697 -0.00922871 0)
  (-0.0568909 -0.0114611 0)
  (-0.0570318 -0.0152252 0)
  (-0.0560241 -0.0210784 0)
  (-0.0524379 -0.0293062 0)
  (-0.0445201 -0.0402719 0)
  (-0.0316305 -0.0527994 0)
  (-0.0159987 -0.0604483 0)
  (0.0565801 -0.0134069 0)
  (-0.0865524 0.0793562 0)
  (0.367281 -0.629446 0)
  (-0.192197 -0.39016 0)
  (-0.0706264 -0.179508 0)
  (-0.0829115 -0.0565778 0)
  (-0.136535 -0.0745238 0)
  (-0.124824 -0.0594128 0)
  (-0.120293 -0.0333991 0)
  (-0.115518 0.00016543 0)
  (-0.111467 0.038351 0)
  (-0.108974 0.0801192 0)
  (-0.106987 0.125296 0)
  (-0.105812 0.17286 0)
  (-0.105359 0.220779 0)
  (-0.105134 0.264139 0)
  (-0.0993715 0.290851 0)
  (-0.0915209 0.27108 0)
  (-0.0731433 0.191893 0)
  (-0.0649116 0.0560174 0)
  (-0.0634343 0.0194786 0)
  (-0.0653949 0.00947469 0)
  (-0.0646081 0.00572107 0)
  (-0.0619912 0.0036159 0)
  (-0.0584445 0.00187419 0)
  (-0.0546885 2.98318e-05 0)
  (-0.0515583 -0.00194517 0)
  (-0.049439 -0.00378829 0)
  (-0.0482362 -0.00520963 0)
  (-0.0478737 -0.00608865 0)
  (-0.0484125 -0.00645661 0)
  (-0.0501159 -0.00653061 0)
  (-0.0534089 -0.00681575 0)
  (-0.0586688 -0.00814456 0)
  (-0.0659937 -0.011432 0)
  (-0.0749412 -0.0174215 0)
  (-0.0848596 -0.0267598 0)
  (-0.0946561 -0.0398257 0)
  (-0.101074 -0.0542305 0)
  (-0.0989503 -0.0574754 0)
  (-0.0909041 -0.0151584 0)
  (-0.149069 0.139937 0)
  (0.202774 -0.492304 0)
  (-0.298077 -0.307623 0)
  (-0.280786 -0.164674 0)
  (-0.182422 -0.032595 0)
  (-0.248603 -0.0846186 0)
  (-0.220908 -0.0704299 0)
  (-0.210626 -0.0411667 0)
  (-0.203096 -0.00497513 0)
  (-0.195124 0.0347219 0)
  (-0.188502 0.0767666 0)
  (-0.180269 0.121459 0)
  (-0.170027 0.168144 0)
  (-0.157442 0.214515 0)
  (-0.142139 0.254703 0)
  (-0.12192 0.275454 0)
  (-0.0995481 0.250722 0)
  (-0.0723946 0.167651 0)
  (-0.0559065 0.0533426 0)
  (-0.0536151 0.0192974 0)
  (-0.0516526 0.00778279 0)
  (-0.0473066 0.0024272 0)
  (-0.0417597 -0.000574483 0)
  (-0.0366177 -0.00220651 0)
  (-0.0325474 -0.00323475 0)
  (-0.0296269 -0.00410674 0)
  (-0.0278333 -0.00487074 0)
  (-0.0269865 -0.00533909 0)
  (-0.0269226 -0.00528601 0)
  (-0.0276095 -0.00452829 0)
  (-0.0292517 -0.00300074 0)
  (-0.0323372 -0.000868421 0)
  (-0.0375643 0.00131431 0)
  (-0.0469099 0.00218535 0)
  (-0.0623721 -0.000552702 0)
  (-0.0855959 -0.00935577 0)
  (-0.115816 -0.0249391 0)
  (-0.147755 -0.0448375 0)
  (-0.179795 -0.06591 0)
  (-0.227871 -0.0821633 0)
  (-0.429404 -0.0859776 0)
  (-0.0421509 -0.348425 0)
  (-0.617067 -0.299774 0)
  (-0.816948 -0.284068 0)
  (-0.229419 -0.150361 0)
  (-0.341045 -0.124754 0)
  (-0.289709 -0.0890923 0)
  (-0.275938 -0.0519103 0)
  (-0.268691 -0.014671 0)
  (-0.260523 0.0247603 0)
  (-0.249993 0.0659729 0)
  (-0.23488 0.108256 0)
  (-0.214399 0.151456 0)
  (-0.188294 0.193619 0)
  (-0.157066 0.229135 0)
  (-0.121763 0.245476 0)
  (-0.0864233 0.219901 0)
  (-0.0514499 0.141299 0)
  (-0.0278069 0.0469653 0)
  (-0.0251361 0.0166408 0)
  (-0.0208243 0.00512725 0)
  (-0.0131096 -0.000435459 0)
  (-0.00730499 -0.00266016 0)
  (-0.00283802 -0.00310708 0)
  (0.000252049 -0.00299121 0)
  (0.00213029 -0.00289427 0)
  (0.00306409 -0.00288701 0)
  (0.00331271 -0.00279287 0)
  (0.00310819 -0.00234927 0)
  (0.00266117 -0.0012808 0)
  (0.00214254 0.000634951 0)
  (0.00175973 0.00352076 0)
  (0.00152253 0.00730946 0)
  (0.00140754 0.0115302 0)
  (0.00120315 0.0146888 0)
  (0.000654358 0.0149766 0)
  (0.000282929 0.0109866 0)
  (-0.000677483 0.00283828 0)
  (0.00629016 -0.00935306 0)
  (0.0513676 -0.0666232 0)
  (-0.324022 -0.173522 0)
  (-1.80814 -0.300917 0)
  (-0.104257 -0.266097 0)
  (-0.325832 -0.160316 0)
  (-0.309041 -0.0952683 0)
  (-0.309479 -0.0428604 0)
  (-0.308128 0.000373023 0)
  (-0.301444 0.0346106 0)
  (-0.288638 0.0641542 0)
  (-0.267896 0.0951579 0)
  (-0.237926 0.12774 0)
  (-0.198733 0.160385 0)
  (-0.151922 0.188514 0)
  (-0.101222 0.201692 0)
  (-0.0521058 0.180299 0)
  (-0.00373553 0.109987 0)
  (0.0279058 0.0396693 0)
  (0.0316304 0.015093 0)
  (0.0355444 0.0024849 0)
  (0.038189 -0.00401386 0)
  (0.0394896 -0.00561213 0)
  (0.0400304 -0.00505493 0)
  (0.0401547 -0.00396979 0)
  (0.0400237 -0.00302034 0)
  (0.039681 -0.00228819 0)
  (0.0391413 -0.00158538 0)
  (0.0384703 -0.000641297 0)
  (0.037827 0.000812865 0)
  (0.0374845 0.00298371 0)
  (0.0377561 0.00585508 0)
  (0.0390988 0.00871877 0)
  (0.0417956 0.0113047 0)
  (0.0459554 0.0119989 0)
  (0.0511734 0.00873967 0)
  (0.0575601 -0.000796343 0)
  (0.0625231 -0.0147046 0)
  (0.0679801 -0.0320225 0)
  (0.0961387 -0.0654277 0)
  (-0.0598268 -0.123487 0)
  (-0.279639 0.0367882 0)
  (-0.0266055 -0.237863 0)
  (-0.236042 -0.171167 0)
  (-0.286158 -0.143911 0)
  (-0.319238 -0.12262 0)
  (-0.333965 -0.0981164 0)
  (-0.332882 -0.065322 0)
  (-0.318101 -0.02609 0)
  (-0.291205 0.00898284 0)
  (-0.251319 0.042298 0)
  (-0.198773 0.0746021 0)
  (-0.136027 0.103285 0)
  (-0.0683896 0.118947 0)
  (0.00702165 0.0965857 0)
  (0.0690404 0.0281549 0)
  (0.102315 -0.0304626 0)
  (0.109893 -0.0663082 0)
  (0.106607 -0.0841322 0)
  (0.0997124 -0.0878762 0)
  (0.0928521 -0.0855376 0)
  (0.0874588 -0.0814715 0)
  (0.0836438 -0.0776569 0)
  (0.0809802 -0.0747304 0)
  (0.078971 -0.072689 0)
  (0.0772572 -0.0712839 0)
  (0.0756891 -0.0702112 0)
  (0.0743298 -0.0691917 0)
  (0.0734384 -0.0680003 0)
  (0.0734288 -0.0664265 0)
  (0.0743615 -0.0636764 0)
  (0.0764919 -0.0606629 0)
  (0.0797154 -0.0597776 0)
  (0.0835871 -0.0608897 0)
  (0.0860418 -0.0632795 0)
  (0.0852217 -0.0666381 0)
  (0.0792793 -0.0703002 0)
  (0.101211 -0.0787398 0)
  (-0.0899156 -0.100137 0)
  (0.600388 0.216701 0)
  (0.2089 -0.234452 0)
  (-0.202278 0.26221 0)
  (-0.0374296 0.126334 0)
  (-0.194636 0.17481 0)
  (-0.253891 0.201146 0)
  (-0.295208 0.212543 0)
  (-0.318652 0.21448 0)
  (-0.325136 0.208343 0)
  (-0.313871 0.198437 0)
  (-0.284464 0.195709 0)
  (-0.237366 0.198406 0)
  (-0.174219 0.205821 0)
  (-0.099921 0.216927 0)
  (-0.0122235 0.227346 0)
  (0.0795216 0.219968 0)
  (0.137512 0.215364 0)
  (0.168983 0.223141 0)
  (0.178086 0.235367 0)
  (0.175459 0.242185 0)
  (0.169073 0.239461 0)
  (0.162617 0.232455 0)
  (0.156453 0.225039 0)
  (0.150408 0.219112 0)
  (0.144497 0.215222 0)
  (0.138843 0.213194 0)
  (0.133577 0.212531 0)
  (0.128825 0.212647 0)
  (0.124715 0.21299 0)
  (0.121369 0.213113 0)
  (0.118892 0.212636 0)
  (0.117276 0.210394 0)
  (0.116454 0.206645 0)
  (0.115846 0.203496 0)
  (0.113713 0.19941 0)
  (0.108103 0.193716 0)
  (0.0966993 0.186582 0)
  (0.0756159 0.178381 0)
  (0.114863 0.164787 0)
  (-0.280964 0.243603 0)
)
;

boundaryField
{
  floor
  {
    type noSlip;
  }
  ceiling
  {
    type noSlip;
  }
  sWall
  {
    type noSlip;
  }
  nWall
  {
    type noSlip;
  }
  sideWalls
  {
    type empty;
  }
  glass1
  {
    type noSlip;
  }
  glass2
  {
    type noSlip;
  }
  sun
  {
    type noSlip;
  }
  heatsource1
  {
    type noSlip;
  }
  heatsource2
  {
    type noSlip;
  }
  Table_master
  {
    type noSlip;
  }
  Table_slave
  {
    type noSlip;
  }
  inlet
  {
    type fixedValue;
    value uniform (0.1 0 0);
  }
  outlet
  {
    type zeroGradient;
  }
} 	// ************************************************************************* //

