/*--------------------------------*- C++ -*----------------------------------*\
  =========                 |
  \\      /  F ield         | OpenFOAM: The Open Source CFD Toolbox
   \\    /   O peration     | Website:  https://openfoam.org
    \\  /    A nd           | Version:  6
     \\/     M anipulation  |
\*---------------------------------------------------------------------------*/
FoamFile
{
    version     2.0;
    format      ascii;
    class       volScalarField;
    location    "500";
    object      epsilon;
}
// * * * * * * * * * * * * * * * * * * * * * * * * * * * * * * * * * * * * * //

dimensions      [0 2 -3 0 0 0 0];

internalField   nonuniform List<scalar> 
459
(
0.000134874
0.000142444
8.01485e-05
8.28376e-05
9.1806e-05
0.000101934
0.000112939
0.000124977
0.000138609
0.000152369
0.000164896
0.000174912
0.000181134
0.000182341
0.000175057
8.24293e-06
2.19499e-05
7.91101e-06
4.84663e-06
3.79188e-06
3.35536e-06
3.32181e-06
3.61196e-06
4.37004e-06
5.40602e-06
6.63692e-06
8.01996e-06
9.48924e-06
1.11756e-05
1.39624e-05
1.81484e-05
2.17719e-05
2.18395e-05
1.71388e-05
0.000819735
0.00184824
0.000171651
6.60753e-05
6.3751e-05
6.90703e-05
7.57197e-05
8.33813e-05
9.25112e-05
0.000102993
0.000114751
0.000127711
0.00014124
0.000153813
0.00016836
0.000230626
6.63827e-05
2.17063e-05
0.000108637
2.53384e-05
1.43229e-05
1.18688e-05
6.44465e-06
2.88762e-06
3.40173e-06
5.4619e-06
8.52716e-06
1.25087e-05
1.72861e-05
2.30401e-05
2.95285e-05
3.48831e-05
3.62792e-05
3.65308e-05
4.8184e-05
2.64212e-05
0.00222551
0.00633108
0.00059747
0.000104216
7.22518e-05
7.4567e-05
8.1739e-05
9.07086e-05
0.000101262
0.000113466
0.000127145
0.000142263
0.000158454
0.000174881
0.000192513
0.000222103
0.000299935
0.000126625
0.000181923
7.19264e-05
5.88055e-05
5.97078e-05
6.05976e-05
5.73746e-06
5.2281e-06
9.89459e-06
1.59883e-05
2.32745e-05
3.21858e-05
4.38823e-05
6.13036e-05
9.32232e-05
6.94286e-05
6.77017e-05
8.32436e-05
9.15927e-05
0.00443785
0.0135661
0.00164625
0.000212167
9.7646e-05
9.05969e-05
9.73272e-05
0.000107656
0.00011996
0.000133969
0.00014906
0.000165164
0.000182038
0.000199299
0.000218485
0.000248826
0.000318094
0.000474478
0.000220005
0.000113548
9.38885e-05
9.33638e-05
0.000102083
0.00012119
0.000163122
0.000154129
0.000147533
0.000142662
0.000140941
0.000144774
0.000157782
0.000186027
0.000243648
0.00014339
0.000160874
0.000175549
0.000255892
0.00736549
0.022237
0.00366651
0.00053257
0.000176769
0.000131738
0.000130574
0.000139783
0.000153202
0.000168656
0.000184978
0.00020242
0.000220426
0.00023642
0.00024572
0.000243315
0.000227159
0.000195601
0.000144973
0.000117133
0.000107576
0.000106339
0.000108002
0.000110058
0.000110958
0.000108937
0.000107948
0.000109038
0.000113418
0.000122712
0.000138858
0.000163746
0.00019827
0.00023877
0.000301946
0.000382428
0.000471352
0.000677375
0.000440317
0.000283161
0.0109449
0.0291909
0.00707435
0.00159862
0.000538283
0.000293133
0.000233944
0.000221195
0.000225064
0.00023234
0.000242204
0.00025654
0.000275804
0.000297232
0.000314388
0.000318455
0.000301934
0.000265309
0.000221518
0.000187916
0.000168297
0.000159468
0.000155849
0.000153666
0.000150846
0.000147496
0.000145155
0.00014495
0.000148409
0.000157929
0.000176974
0.000209866
0.000261095
0.000334638
0.000433817
0.000552638
0.000659371
0.000686867
0.000429106
0.000334452
0.0146775
0.0313232
0.0126886
0.00505824
0.00228114
0.00109533
0.000673823
0.000501982
0.00042461
0.000375536
0.000345966
0.000334669
0.000340712
0.00036018
0.000384784
0.000402042
0.000399126
0.000372592
0.000332081
0.0002927
0.000263697
0.000245785
0.000235223
0.00022815
0.000221998
0.000216335
0.000211899
0.000209648
0.000211177
0.000219385
0.000239161
0.000277388
0.000340897
0.000434411
0.000558357
0.000701987
0.00082979
0.000885788
0.000813995
0.00034233
0.0147837
0.0333596
0.021321
0.0152275
0.00876529
0.00464286
0.00255508
0.00153583
0.0010009
0.000726049
0.000567383
0.00047692
0.000434465
0.000428047
0.000446264
0.000473978
0.00048973
0.000482662
0.000455996
0.000421432
0.000389871
0.000365846
0.000348745
0.000336122
0.000325714
0.000316732
0.000309451
0.000304625
0.000303816
0.000310232
0.000330125
0.000374435
0.000454275
0.000577731
0.000740622
0.000930493
0.00114921
0.00142104
0.0017455
0.00118136
0.0127471
0.0194515
0.0572633
0.0413095
0.0224081
0.0117165
0.006272
0.00354227
0.00214291
0.00138069
0.000957319
0.000723477
0.000599744
0.000545099
0.000535999
0.00055389
0.000578677
0.000593681
0.000591733
0.000575948
0.000554039
0.000532035
0.000512314
0.000495106
0.000479798
0.00046603
0.000453896
0.000443788
0.000436587
0.000434232
0.000440702
0.000463397
0.000509543
0.000589848
0.000713475
0.000884314
0.00107606
0.00136426
0.00344381
0.00164784
0.173335
0.147647
0.0281749
0.0117238
0.00622664
0.00369193
0.00238202
0.00166033
0.00124465
0.00100153
0.000863106
0.000790454
0.000761588
0.000762714
0.000781894
0.000806651
0.000826108
0.000834554
0.000832008
0.000821281
0.000804705
0.000784958
0.000764061
0.000743281
0.000723406
0.000704895
0.000688051
0.000673271
0.000661152
0.000652828
0.000650926
0.000658664
0.000673673
0.000691993
0.000719032
0.000817134
0.00142253
0.00157488
0.113279
0.0771781
0.0255978
0.011245
0.00611454
0.00385171
0.00271859
0.00211109
0.00178058
0.00160913
0.00153366
0.00151627
0.00153195
0.00156366
0.00159835
0.00162536
0.00163771
0.00163375
0.00161629
0.00158919
0.00155342
0.00151216
0.0014686
0.00142491
0.00138196
0.00133927
0.00129526
0.00124762
0.0011946
0.00112853
0.00105347
0.0009854
0.000935453
0.000905963
0.000900343
0.000940549
0.00192745
0.00131839
0.00157151
0.00471814
0.0401868
0.0300031
0.0171481
0.010042
0.00631085
0.00424915
0.00303748
0.0022891
0.00181201
0.00150524
0.00131101
0.00119352
0.00112912
0.00110107
0.00109674
0.00110567
0.00111884
0.00112914
0.00113216
0.00112725
0.00111722
0.00110133
0.00108041
0.00105603
0.00102986
0.00100332
0.00097735
0.000952347
0.000928215
0.000908133
0.000885385
0.000850974
0.000810377
0.000764055
0.000708487
0.000643188
0.000668091
0.000492779
)
;

boundaryField
{
    floor
    {
        Cmu             0.09;
        kappa           0.41;
        E               9.8;
        type            epsilonWallFunction;
        value           nonuniform List<scalar> 
29
(
0.000175057
8.24293e-06
2.19499e-05
7.91101e-06
4.84663e-06
3.79188e-06
3.35536e-06
3.32181e-06
3.61196e-06
4.37004e-06
5.40602e-06
6.63692e-06
8.01996e-06
9.48924e-06
1.11756e-05
1.39624e-05
1.81484e-05
2.17719e-05
2.18395e-05
1.71388e-05
1.71388e-05
2.64212e-05
9.15927e-05
0.000255892
0.000175057
8.24293e-06
2.17063e-05
0.000126625
0.000474478
)
;
    }
    ceiling
    {
        Cmu             0.09;
        kappa           0.41;
        E               9.8;
        type            epsilonWallFunction;
        value           nonuniform List<scalar> 
43
(
0.00157151
0.00471814
0.0401868
0.0300031
0.0171481
0.010042
0.00631085
0.00424915
0.00303748
0.0022891
0.00181201
0.00150524
0.00131101
0.00119352
0.00112912
0.00110107
0.00109674
0.00110567
0.00111884
0.00112914
0.00113216
0.00112725
0.00111722
0.00110133
0.00108041
0.00105603
0.00102986
0.00100332
0.00097735
0.000952347
0.000928215
0.000908133
0.000885385
0.000850974
0.000810377
0.000764055
0.000708487
0.000643188
0.000668091
0.000492779
0.0127471
0.0194515
0.113279
)
;
    }
    sWall
    {
        Cmu             0.09;
        kappa           0.41;
        E               9.8;
        type            epsilonWallFunction;
        value           uniform 0.00157151;
    }
    nWall
    {
        Cmu             0.09;
        kappa           0.41;
        E               9.8;
        type            epsilonWallFunction;
        value           nonuniform List<scalar> 6(0.000283161 0.000334452 0.00034233 0.00157488 0.00131839 0.000492779);
    }
    sideWalls
    {
        type            empty;
    }
    glass1
    {
        Cmu             0.09;
        kappa           0.41;
        E               9.8;
        type            epsilonWallFunction;
        value           nonuniform List<scalar> 9(0.000134874 0.000819735 0.00222551 0.00443785 0.00736549 0.0109449 0.0146775 0.0147837 0.0127471);
    }
    glass2
    {
        Cmu             0.09;
        kappa           0.41;
        E               9.8;
        type            epsilonWallFunction;
        value           nonuniform List<scalar> 2(0.00118136 0.00164784);
    }
    sun
    {
        Cmu             0.09;
        kappa           0.41;
        E               9.8;
        type            epsilonWallFunction;
        value           nonuniform List<scalar> 
14
(
0.000134874
0.000142444
8.01485e-05
8.28376e-05
9.1806e-05
0.000101934
0.000112939
0.000124977
0.000138609
0.000152369
0.000164896
0.000174912
0.000181134
0.000182341
)
;
    }
    heatsource1
    {
        Cmu             0.09;
        kappa           0.41;
        E               9.8;
        type            epsilonWallFunction;
        value           nonuniform List<scalar> 3(0.000677375 0.000440317 0.000283161);
    }
    heatsource2
    {
        Cmu             0.09;
        kappa           0.41;
        E               9.8;
        type            epsilonWallFunction;
        value           nonuniform List<scalar> 4(0.000230626 6.63827e-05 6.63827e-05 0.000299935);
    }
    Table_master
    {
        Cmu             0.09;
        kappa           0.41;
        E               9.8;
        type            epsilonWallFunction;
        value           nonuniform List<scalar> 9(5.73746e-06 5.2281e-06 9.89459e-06 1.59883e-05 2.32745e-05 3.21858e-05 4.38823e-05 6.13036e-05 9.32232e-05);
    }
    Table_slave
    {
        Cmu             0.09;
        kappa           0.41;
        E               9.8;
        type            epsilonWallFunction;
        value           nonuniform List<scalar> 9(0.000163122 0.000154129 0.000147533 0.000142662 0.000140941 0.000144774 0.000157782 0.000186027 0.000243648);
    }
    inlet
    {
        type            turbulentMixingLengthDissipationRateInlet;
        mixingLength    0.01;
        phi             phi;
        k               k;
        value           uniform 0.173335;
    }
    outlet
    {
        type            zeroGradient;
    }
}


// ************************************************************************* //
