/*--------------------------------*- C++ -*----------------------------------*\
  =========                 |
  \\      /  F ield         | OpenFOAM: The Open Source CFD Toolbox
   \\    /   O peration     | Website:  https://openfoam.org
    \\  /    A nd           | Version:  6
     \\/     M anipulation  |
\*---------------------------------------------------------------------------*/
FoamFile
{
    version     2.0;
    format      ascii;
    class       surfaceScalarField;
    location    "100";
    object      phi;
}
// * * * * * * * * * * * * * * * * * * * * * * * * * * * * * * * * * * * * * //

dimensions      [1 0 -1 0 0 0 0];

internalField   nonuniform List<scalar> 
852
(
-0.000748238
0.000752541
0.000796996
-0.00154528
0.00279882
-0.00200188
0.0042003
-0.00140153
0.00503327
-0.000833022
0.00547472
-0.000441513
0.00565608
-0.000181411
0.00565587
1.48909e-07
0.00551775
0.000138058
0.00526151
0.000256182
0.00488611
0.000375333
0.00436184
0.000524209
0.00360835
0.00075342
0.00239899
0.00120929
0.00239618
-0.00054039
0.000536067
-0.000690656
0.000150041
-0.000160624
-0.00053023
0.000594286
-0.00075511
0.00122948
-0.000635392
0.00168585
-0.000456577
0.00195818
-0.000272539
0.00210361
-0.000145636
0.00219629
-9.28778e-05
0.00226257
-6.64875e-05
0.0023084
-4.6025e-05
0.00233476
-2.65633e-05
0.00233588
-1.30611e-06
0.00229357
4.21184e-05
0.00216508
0.000128303
0.0018761
0.00028881
0.00136884
0.000507086
0.000579021
0.000789642
0.000573333
0.000415351
0.000349917
0.00154022
-0.00267019
0.00284696
-0.00330868
0.00380859
-0.00236321
0.00436951
-0.00139401
0.00463333
-0.000705394
0.00470333
-0.000251486
0.00463928
6.41318e-05
0.00447682
0.000300443
0.00424094
0.000491982
0.00394264
0.000673556
0.00358457
0.000882193
0.00318032
0.00115759
0.00286338
0.00152616
0.00327119
0.00198829
0.00157244
0.00169862
0.0015723
-2.9045e-05
0.000553784
0.000467224
-0.000346404
0.000995191
-0.00105838
0.00143187
-0.00119198
0.0017892
-0.000992909
0.0020307
-0.000698277
0.00208739
-0.000329435
0.00210596
-0.00016442
0.00212418
-0.000111307
0.00213973
-8.22449e-05
0.00215163
-5.81333e-05
0.00216035
-3.5483e-05
0.00216329
-4.44516e-06
0.00215211
5.31161e-05
0.00208095
0.00019928
0.00179262
0.000576964
0.00132723
0.000972307
0.000713018
0.00140368
0.00127046
0.00142723
-0.0010559
0.00176611
-0.00300911
0.00254626
-0.00408889
0.00307258
-0.0028896
0.00331793
-0.00163943
0.00337482
-0.000762372
0.00332071
-0.000197466
0.00320893
0.000175816
0.00307771
0.000431565
0.00294138
0.000628218
0.00280299
0.000811837
0.0026678
0.00101728
0.00255475
0.00127055
0.00249205
0.00158876
0.00244823
0.00203201
0.00179724
0.00234953
0.00336945
0.000603791
-6.74676e-05
0.00155884
-0.00130162
0.00203354
-0.00153324
0.00226238
-0.001421
0.00240348
-0.0011342
0.00250394
-0.000798943
0.00217444
0.00200995
0.00189858
0.00181627
0.00175807
0.00172253
0.00171803
0.00177111
0.00197036
0.00159437
0.000952777
0.00124635
0.00132015
0.000802003
0.00184785
0.00204684
0.000654412
-0.00167982
0.000903085
-0.00325783
0.0016446
-0.00483047
0.0019031
-0.00314818
0.00189752
-0.00163394
0.00180388
-0.000668836
0.00170659
-0.000100288
0.00164958
0.00023271
0.00163882
0.000442205
0.00165735
0.000609564
0.00169473
0.000774337
0.00175295
0.000958946
0.001843
0.00118038
0.00198001
0.00145163
0.00222062
0.0017913
0.00260228
0.00196777
0.00397881
0.00199282
0.00333511
0.000626279
0.00367699
-0.000409453
0.00336945
-0.000994205
0.00311933
-0.00128328
0.00293473
-0.00123657
0.00280362
-0.0010033
0.00267167
-0.000667213
0.00290267
-0.0002314
0.0029371
-3.4836e-05
0.00286724
6.94535e-05
0.00272313
0.00014369
0.00251624
0.000206468
0.0022504
0.000265414
0.00192104
0.000328946
0.00151027
0.000410365
0.00096599
0.000543901
0.000997198
0.000921343
0.000971455
0.00134568
0.000940988
0.00187812
0.00295339
-0.000333705
-0.00130671
-0.00014772
-0.00344386
0.00046402
-0.00544229
0.000586354
-0.0032706
0.000477064
-0.00152474
0.000379861
-0.000571742
0.000364957
-8.55041e-05
0.000425052
0.000172485
0.000527349
0.000339773
0.000656012
0.000480765
0.000807511
0.000622703
0.000989057
0.000777266
0.00121743
0.000951876
0.00152627
0.00114267
0.00198708
0.00133037
0.00258012
0.00137461
0.00333282
0.00124001
0.00356147
0.000397508
0.00352391
-0.00037202
0.00332845
-0.000798891
0.00302696
-0.000981969
0.00272946
-0.000939273
0.00247059
-0.000744663
0.0022657
-0.000462587
0.00217975
-0.000145727
0.0020553
8.93291e-05
0.00188827
0.000236192
0.00169797
0.000333681
0.00149166
0.000412477
0.00126962
0.00048715
0.00103132
0.000566961
0.000781988
0.000659421
0.00056789
0.000757748
0.000557769
0.000931209
0.000797899
0.00110532
0.00146949
0.00120632
0.00263774
0.00178494
0.00143004
0.00120728
0.000408344
0.00102115
0.00038741
-0.00096772
-0.000290111
-0.00105986
-0.00335177
-0.000666892
-0.00583534
-0.000496933
-0.00344065
-0.000505581
-0.00151619
-0.000498753
-0.000578681
-0.000438227
-0.000146155
-0.00033374
6.78663e-05
-0.000197037
0.000202935
-3.03026e-05
0.000313894
0.000167409
0.000424857
0.00040156
0.00054298
0.000686643
0.00066666
0.00104533
0.000783854
0.00150402
0.000871547
0.00202664
0.000851867
0.00259892
0.000667602
0.0028361
0.000160195
0.00276707
-0.000303145
0.00255215
-0.000584146
0.00225153
-0.000681562
0.00193315
-0.000621134
0.0016379
-0.000449686
0.00138829
-0.000213279
0.00119474
4.75072e-05
0.00102903
0.000254708
0.000874087
0.000390797
0.00072168
0.000485745
0.000570098
0.000563718
0.000420693
0.000636222
0.000279759
0.000707576
0.000163891
0.000774988
0.000103063
0.000818296
0.000188653
0.000845336
0.0004453
0.000848407
0.000801957
0.000849444
0.00113319
0.00145349
0.000867788
0.00147244
0.00024345
0.00164512
0.000606698
-0.00140438
0.00117475
-0.00177554
-0.00298064
-0.00134754
-0.00626345
-0.00106921
-0.00371908
-0.000997294
-0.00158821
-0.000951351
-0.000624732
-0.000885452
-0.000212174
-0.000789239
-2.84775e-05
-0.000663443
7.70107e-05
-0.000509301
0.000159624
-0.000322507
0.000237934
-9.51668e-05
0.00031551
0.000180062
0.000391302
0.000506768
0.000457017
0.000885305
0.000492877
0.00128294
0.000454099
0.00163986
0.000310528
0.00175972
4.01766e-05
0.00166622
-0.000209835
0.00144437
-0.000362508
0.00115536
-0.000392807
0.000847818
-0.000313889
0.000557741
-0.000159933
0.000308584
3.5534e-05
0.000127307
0.000228415
4.62603e-06
0.000377008
-9.21253e-05
0.000487164
-0.000177455
0.000570691
-0.000253841
0.000639727
-0.000317192
0.000699206
-0.000358238
0.000748271
-0.000362231
0.000778647
-0.000313893
0.00076964
-0.000183769
0.000714907
7.401e-06
0.000656983
0.000195294
0.00066132
0.000428251
0.00122031
0.000382531
0.00151791
-6.08315e-05
0.00208809
0.000518818
-0.000200773
0.00144603
-0.001672
-0.00150943
-0.00135084
-0.00658471
-0.00108427
-0.00398576
-0.00114624
-0.00152633
-0.00120674
-0.000564336
-0.00120813
-0.000210892
-0.00115896
-7.77584e-05
-0.00107176
-1.03223e-05
-0.000954918
4.26612e-05
-0.000809927
9.28194e-05
-0.000635763
0.00014122
-0.000429991
0.0001854
-0.000193222
0.000220111
6.44874e-05
0.000235022
0.000305993
0.000212434
0.000475909
0.000140434
0.000497066
1.88156e-05
0.000380617
-9.36193e-05
0.000167109
-0.00014927
-9.60105e-05
-0.000129996
-0.000364434
-4.58132e-05
-0.000599
7.42597e-05
-0.000767427
0.000203557
-0.000863525
0.000324095
-0.000915053
0.000428113
-0.000941376
0.000513066
-0.000951828
0.000580726
-0.000946351
0.000633843
-0.000919867
0.000672328
-0.000864341
0.000692368
-0.000771311
0.000685261
-0.000640189
0.000638186
-0.000481728
0.000556143
-0.000314524
0.000489521
-0.000150972
0.000497538
0.000171162
0.000897948
0.000330332
0.00135846
0.000703864
0.00171417
0.00112797
0.00149743
-4.04723e-05
-0.000507439
-0.00611782
-0.000670756
-0.00382256
-0.00119509
-0.0010021
-0.00148441
-0.000275105
-0.00159851
-9.68848e-05
-0.00162233
-5.40506e-05
-0.00159346
-3.93055e-05
-0.00153154
-1.9387e-05
-0.00144761
8.76846e-06
-0.00134637
3.98418e-05
-0.00122992
6.88052e-05
-0.0011042
9.4235e-05
-0.000980854
0.000111498
-0.000882067
0.00011345
-0.000836039
9.41843e-05
-0.000872006
5.45303e-05
-0.000988867
2.29647e-05
-0.00116312
2.46648e-05
-0.00135516
6.16959e-05
-0.00152349
0.000122121
-0.00164247
0.00019282
-0.00170719
0.000267839
-0.0017257
0.00034215
-0.00170901
0.000410971
-0.00166656
0.000470168
-0.00160311
0.000516838
-0.0015185
0.000548815
-0.00140976
0.000563184
-0.00127338
0.000555602
-0.00110907
0.000520604
-0.000926849
0.000455654
-0.000745857
0.000374878
-0.000573934
0.000317367
-0.000407551
0.000330949
-7.11947e-05
0.000561386
0.000203158
0.00108381
0.000669927
0.00124699
0.0016996
0.00215464
-0.00192285
-0.000660829
-0.00100721
-0.00166611
3.09708e-06
-0.00203111
8.98214e-05
-0.00217851
5.0435e-05
-0.00223817
5.51763e-06
-0.00225845
-1.91265e-05
-0.00225593
-2.20183e-05
-0.0022375
-9.79893e-06
-0.00220825
1.04353e-05
-0.0021741
3.44929e-05
-0.00214034
6.02916e-05
-0.00211404
8.49781e-05
-0.00210515
0.000104327
-0.00212489
0.000113654
-0.00218302
0.000112357
-0.00227143
0.000111041
-0.00236766
0.00012053
-0.00244897
0.00014262
-0.00250084
0.000173567
-0.00251805
0.000209594
-0.00249993
0.000249265
-0.00244894
0.000290715
-0.00236897
0.000330545
-0.00226402
0.000364772
-0.00213741
0.000389792
-0.00199165
0.000402636
-0.00182935
0.000400497
-0.00165466
0.000380539
-0.00147524
0.000340852
-0.00130366
0.000283767
-0.00115077
0.000221715
-0.00101653
0.000182882
-0.000911985
0.000226169
-0.000820191
0.000469324
-0.000635453
0.000898711
-0.000163589
0.000774682
0.00151425
-0.00198346
2.08084e-05
-0.00284995
-0.000140783
-0.00287764
3.07194e-05
-0.00288219
9.4297e-05
-0.00290378
7.19549e-05
-0.00293812
3.97658e-05
-0.00297968
2.23435e-05
-0.003018
1.61837e-05
-0.00304618
1.82462e-05
-0.00306281
2.69043e-05
-0.00307009
4.15935e-05
-0.00306985
5.98475e-05
-0.0030652
8.00952e-05
-0.00306085
9.9712e-05
-0.00306268
0.000115194
-0.00307517
0.000124535
-0.00309493
0.000130454
-0.00311176
0.000136994
-0.00311529
0.000145756
-0.00309876
0.000156632
-0.003059
0.000169412
-0.00299435
0.000184179
-0.00290424
0.000200174
-0.00278966
0.000215532
-0.00265328
0.000227963
-0.0024994
0.00023549
-0.00233391
0.000236744
-0.00216472
0.000230914
-0.00200235
0.000217802
-0.00186009
0.00019823
-0.00175133
0.000174667
-0.00168162
0.000151678
-0.00163728
0.000138208
-0.00157301
0.000161553
-0.00138437
0.000280307
-0.000963096
0.000477006
-0.000675153
0.000486245
0.000811418
-0.00427657
-0.00353667
-0.00358059
-0.00378295
-0.00381423
-0.00378246
-0.00377359
-0.00379735
-0.00383885
-0.00388674
-0.00393271
-0.00397011
-0.00399284
-0.00399735
-0.00398167
-0.00394652
-0.00389617
-0.00383691
-0.00377225
-0.0037016
-0.00362272
-0.0035334
-0.00343164
-0.00331536
-0.00318322
-0.00303576
-0.0028758
-0.00270816
-0.00253902
-0.00237542
-0.00222463
-0.00209322
-0.0019854
-0.00190094
-0.00183062
-0.00173747
-0.00152532
-0.00111571
-0.000698187
)
;

boundaryField
{
    floor
    {
        type            calculated;
        value           nonuniform List<scalar> 
29
(
0
0
0
0
0
0
0
0
0
0
0
0
0
0
0
0
0
0
0
0
5.50468e-06
1.57059e-05
2.5439e-05
3.42398e-05
2.73841e-06
4.06538e-06
1.10554e-05
1.73045e-05
1.7313e-05
)
;
    }
    ceiling
    {
        type            calculated;
        value           nonuniform List<scalar> 
43
(
7.48994e-05
7.1085e-05
6.46713e-05
6.15331e-05
6.19323e-05
6.24576e-05
6.30084e-05
6.34359e-05
6.37364e-05
6.39445e-05
6.40725e-05
6.41309e-05
6.41384e-05
6.41375e-05
6.41749e-05
6.43018e-05
6.4561e-05
6.49622e-05
6.54648e-05
6.59999e-05
6.65032e-05
6.69326e-05
6.72668e-05
6.74988e-05
6.76301e-05
6.76641e-05
6.76023e-05
6.74469e-05
6.7208e-05
6.69135e-05
6.662e-05
6.64218e-05
6.64465e-05
6.68083e-05
6.74583e-05
6.79586e-05
6.76893e-05
6.68931e-05
6.81878e-05
7.75394e-05
2.83425e-05
2.85657e-05
3.97543e-05
)
;
    }
    sWall
    {
        type            calculated;
        value           uniform 3.26715e-05;
    }
    nWall
    {
        type            calculated;
        value           nonuniform List<scalar> 6(1.98753e-05 2.34317e-05 2.64152e-05 2.12645e-05 2.71473e-05 3.51288e-05);
    }
    sideWalls
    {
        type            empty;
        value           nonuniform 0();
    }
    glass1
    {
        type            calculated;
        value           nonuniform List<scalar> 9(-4.36361e-06 -1.27906e-05 -2.14451e-05 -3.05136e-05 -3.94437e-05 -4.89048e-05 -6.05182e-05 -7.05126e-05 -7.97461e-05);
    }
    glass2
    {
        type            calculated;
        value           nonuniform List<scalar> 2(9.42447e-05 9.78292e-05);
    }
    sun
    {
        type            calculated;
        value           uniform 0;
    }
    heatsource1
    {
        type            calculated;
        value           nonuniform List<scalar> 3(2.02878e-07 2.03277e-07 2.03027e-07);
    }
    heatsource2
    {
        type            calculated;
        value           nonuniform List<scalar> 4(5.10458e-08 5.1241e-08 0 0);
    }
    Table_master
    {
        type            calculated;
        value           nonuniform List<scalar> 9(-1.52467e-07 -1.52635e-07 -1.52675e-07 -1.52692e-07 -1.52696e-07 -1.5269e-07 -1.52675e-07 -1.52635e-07 -1.52549e-07);
    }
    Table_slave
    {
        type            calculated;
        value           nonuniform List<scalar> 9(1.52045e-07 1.52074e-07 1.52034e-07 1.52018e-07 1.52028e-07 1.5206e-07 1.52112e-07 1.52185e-07 1.52294e-07);
    }
    inlet
    {
        type            calculated;
        value           uniform -0.00634966;
    }
    outlet
    {
        type            calculated;
        value           nonuniform List<scalar> 2(0.00416896 -0.000811021);
    }
}


// ************************************************************************* //
