/*--------------------------------*- C++ -*----------------------------------*\
  =========                 |
  \\      /  F ield         | OpenFOAM: The Open Source CFD Toolbox
   \\    /   O peration     | Website:  https://openfoam.org
    \\  /    A nd           | Version:  6
     \\/     M anipulation  |
\*---------------------------------------------------------------------------*/
FoamFile
{
    version     2.0;
    format      ascii;
    class       surfaceScalarField;
    location    "1500";
    object      phi;
}
// * * * * * * * * * * * * * * * * * * * * * * * * * * * * * * * * * * * * * //

dimensions      [1 0 -1 0 0 0 0];

internalField   nonuniform List<scalar> 
852
(
-0.00326206
0.0033188
-0.0045978
0.00133573
-0.0053081
0.000710293
-0.00547484
0.00016673
-0.00502186
-0.000452985
-0.00390394
-0.00111793
-0.00223627
-0.00166767
-0.000299103
-0.00193718
0.00132314
-0.0016223
0.00247641
-0.00115333
0.00316343
-0.000687077
0.00339181
-0.000228431
0.00313306
0.000258691
0.0022236
0.000909408
0.00222549
-0.0010583
0.00106009
-0.00122646
0.00016793
-0.000557043
-0.000669633
0.000376091
-0.000933335
0.00121508
-0.000839191
0.00185132
-0.000636438
0.0022192
-0.000368085
0.00239271
-0.000173718
0.00249335
-0.00010086
0.00256483
-7.17007e-05
0.00261762
-5.30176e-05
0.00265701
-3.96155e-05
0.00268092
-2.41626e-05
0.00267135
9.31215e-06
0.0025855
8.55851e-05
0.0023511
0.000234107
0.00190838
0.000442407
0.00119399
0.000714052
0.00119553
-0.00233165
0.00580473
-0.00353204
0.00253611
-0.00425836
0.00143662
-0.0044585
0.000366864
-0.00405497
-0.00085652
-0.003055
-0.0021179
-0.0016763
-0.00304638
-0.000238667
-0.00337482
0.00104548
-0.00290651
0.00201841
-0.00212632
0.00264444
-0.00131318
0.00294411
-0.000528178
0.00296316
0.000239569
0.00285642
0.00101607
0.00332285
0.00175899
0.00164309
0.00167963
0.00164296
-0.000242284
0.00130828
0.000227567
-0.00030219
0.000887473
-0.00132974
0.00141575
-0.0014618
0.00187696
-0.00130058
0.00223009
-0.000989757
0.00231478
-0.00045296
0.00233144
-0.00019058
0.00234928
-0.000118901
0.00236463
-8.72667e-05
0.00237564
-6.42455e-05
0.00238423
-4.84312e-05
0.00239045
-3.06257e-05
0.00238509
1.4414e-05
0.00232167
0.000148721
0.00205854
0.000496938
0.00159199
0.000908625
0.000934569
0.00137111
0.0021352
-0.00163686
0.00767917
-0.00263206
0.0035313
-0.00328475
0.0020893
-0.00346495
0.000547062
-0.00305673
-0.00126474
-0.0021139
-0.00306071
-0.000949487
-0.00421078
0.00014654
-0.00447088
0.00110985
-0.00386988
0.00186458
-0.00288112
0.00236691
-0.00181561
0.00264286
-0.000804217
0.002758
0.000124343
0.0027933
0.000980685
0.00276358
0.00178863
0.00205381
0.00238933
0.00369668
0.00121563
0.000102587
0.00196343
-0.0010502
0.00217339
-0.00153988
0.00233498
-0.00162356
0.00249648
-0.00146225
0.00276964
-0.0012631
0.00231665
0.00212603
0.00200709
0.00191977
0.00185546
0.00180695
0.00177623
0.00179051
0.00193906
0.00161633
0.000819323
0.00123394
0.00129065
0.000713173
0.00189148
0.00285685
-0.00113861
0.00912717
-0.00189908
0.00429176
-0.00234347
0.00253368
-0.00237867
0.000582258
-0.00184977
-0.00179363
-0.000947676
-0.00396277
-2.81246e-05
-0.0051303
0.000739017
-0.00523804
0.001385
-0.00451594
0.00187871
-0.00337494
0.00219417
-0.00213119
0.00236593
-0.00097609
0.00246068
2.94804e-05
0.00254747
0.000893795
0.00270941
0.0016266
0.00301822
0.00208043
0.00446539
0.00224942
0.00356035
0.000915192
0.00370573
-4.29209e-05
0.00347156
-0.000816148
0.00318751
-0.00125596
0.00292728
-0.00136347
0.00269849
-0.00123363
0.00235701
-0.000921795
0.00269877
-0.00034211
0.00278315
-8.4742e-05
0.00276371
1.90816e-05
0.0026797
8.36525e-05
0.00254165
0.000137684
0.00235111
0.000190176
0.00209777
0.000252967
0.00175186
0.000345531
0.00124118
0.00051029
0.00111692
0.000943283
0.000886071
0.00152114
0.00057804
0.00219911
0.00344651
-0.000784656
0.010283
-0.00133878
0.00484588
-0.00143886
0.00263374
-0.00107891
0.000222292
-0.000292893
-0.00257962
0.000477979
-0.00473359
0.00106234
-0.00571464
0.00146755
-0.00564327
0.00175758
-0.00480606
0.00192517
-0.00354267
0.00198204
-0.0021882
0.00198311
-0.0009773
0.00199989
1.25681e-05
0.00211064
0.000782927
0.00239641
0.00134073
0.00285659
0.00162015
0.00350406
0.00160185
0.00359049
0.00082867
0.00358183
-3.43579e-05
0.0033699
-0.000604327
0.0030302
-0.000916393
0.00266107
-0.000994487
0.00231271
-0.000885461
0.00202225
-0.00063153
0.00194959
-0.000269667
0.00186859
-3.96542e-06
0.00174902
0.000138427
0.00161916
0.000213283
0.00148694
0.000269667
0.00134736
0.000329511
0.00119143
0.000408648
0.00101064
0.000526062
0.000820077
0.000700581
0.000731682
0.00103137
0.000725817
0.00152664
0.000729631
0.0021949
0.00116321
0.0030125
-0.000731471
0.00189406
-0.00121997
0.000487945
-0.00118292
-0.000609859
0.0113174
-0.000877049
0.00511305
-0.000266809
0.00202348
0.000698613
-0.000743157
0.00157455
-0.00345553
0.00207911
-0.00523808
0.00228562
-0.00592111
0.00226643
-0.00562411
0.00210801
-0.00464775
0.00186447
-0.00329929
0.00158999
-0.00191391
0.00136302
-0.000750502
0.00126269
0.000112746
0.00134598
0.000699512
0.00161567
0.00107092
0.0020142
0.00122152
0.00250453
0.00111142
0.00275289
0.000580206
0.00270146
1.6957e-05
0.00247664
-0.000379645
0.00215007
-0.000589982
0.00178642
-0.000631021
0.0014353
-0.000534551
0.00113981
-0.00033626
0.000942404
-7.25031e-05
0.000806828
0.000131365
0.000703337
0.000241666
0.000615486
0.000300877
0.00053946
0.000345431
0.000473841
0.000394861
0.000419696
0.000462515
0.000384072
0.000561398
0.000381628
0.000702724
0.000478495
0.000934184
0.000718454
0.00128633
0.00108591
0.00182704
0.00167876
0.00241922
0.00195314
0.00161926
0.00156942
0.000871251
0.00043277
-0.000388944
0.0121829
3.21257e-05
0.00469196
0.00170155
0.000354029
0.00302192
-0.00206352
0.00371507
-0.00414863
0.00385968
-0.00538261
0.00355556
-0.00561695
0.00295915
-0.00502775
0.00224012
-0.00392887
0.00150823
-0.00256761
0.000871931
-0.00127784
0.00043601
-0.000314779
0.000275194
0.000273399
0.000363289
0.000611279
0.000624813
0.000809272
0.000979961
0.00086625
0.00134638
0.000744888
0.0015147
0.000411746
0.00145956
7.195e-05
0.00125653
-0.000176796
0.00096447
-0.000298124
0.000635064
-0.000301839
0.000313377
-0.000213106
3.73502e-05
-6.04898e-05
-0.000147204
0.000111785
-0.000245361
0.00022925
-0.000297482
0.000293512
-0.000325894
0.000329008
-0.000334318
0.000353567
-0.00031846
0.00037871
-0.000269769
0.000413521
-0.000175732
0.000467049
-2.11017e-05
0.000547776
0.000227063
0.000685679
0.000596851
0.000916199
0.00110748
0.00131603
0.00187457
0.00165171
0.0024617
0.00103169
0.00257939
0.000753131
0.00306662
0.00329357
0.00942579
0.00446233
0.00352319
0.00539464
-0.000578312
0.00624042
-0.00290927
0.00634712
-0.00425523
0.00571478
-0.00475017
0.00457466
-0.00447682
0.00318542
-0.00363861
0.00181681
-0.00256047
0.000587683
-0.00133875
-0.000278457
-0.000411962
-0.000707604
0.000114157
-0.000795441
0.000361061
-0.000685268
0.000500946
-0.000458955
0.000582805
-0.000184196
0.000591337
5.57226e-05
0.000504806
0.000144432
0.000322854
7.87201e-05
0.000137456
-0.000103577
5.27665e-06
-0.000354349
-4.75994e-05
-0.000626142
-3.03091e-05
-0.000876993
3.74692e-05
-0.00106536
0.000127596
-0.00116617
0.000212307
-0.00120602
0.000268797
-0.00121026
0.000297455
-0.00118782
0.000306265
-0.00113693
0.000302371
-0.00105074
0.000292199
-0.000921002
0.00028346
-0.000741029
0.000286748
-0.000510956
0.000317372
-0.000224593
0.000398979
0.000144795
0.00054646
0.000674909
0.000785552
0.0013943
0.00093193
0.00171184
0.000713729
0.00081557
0.00164898
0.00408571
0.0100225
0.0135422
0.0121065
0.00085738
0.0106357
-0.00143838
0.00878937
-0.00240871
0.00664375
-0.00260448
0.00437032
-0.00220347
0.00214014
-0.00140863
0.000240946
-0.000661558
-0.00106651
-3.16223e-05
-0.00169397
0.000215239
-0.00188662
0.000306583
-0.00187646
0.000350693
-0.0017636
0.000387894
-0.00159681
0.000415816
-0.00142268
0.000417
-0.00129463
0.000376535
-0.00126674
0.000294731
-0.0013372
0.000207656
-0.00147674
0.000144543
-0.00164588
0.000121262
-0.00181054
0.000134059
-0.00194156
0.000168182
-0.00202459
0.000210325
-0.00206148
0.000248885
-0.00206776
0.000274764
-0.00205767
0.00028705
-0.00204034
0.000288612
-0.00202283
0.000284524
-0.0020142
0.000283234
-0.00202881
0.00029773
-0.00208839
0.000345985
-0.00222308
0.000451722
-0.0024714
0.000646952
-0.00289949
0.000974215
-0.00358191
0.00146762
-0.00466585
0.00201552
-0.00625944
0.00230694
-0.00635612
0.00174528
-0.00206375
0.00552787
0.00173578
0.00408023
9.35637e-06
0.00290488
-0.00123343
0.00138079
-0.00108059
-0.000304629
-0.000518407
-0.00173136
1.77869e-05
-0.00261589
0.000222665
-0.00296382
0.000316023
-0.00305461
0.000305766
-0.00303263
0.000284355
-0.00295687
0.000274688
-0.00285171
0.000282488
-0.00273544
0.000299292
-0.00263001
0.000311314
-0.00256041
0.000306663
-0.00254755
0.000281592
-0.00258733
0.000247144
-0.00265982
0.000216728
-0.00273846
0.000199591
-0.00280159
0.000196875
-0.00283806
0.000204341
-0.00284504
0.000216978
-0.00282616
0.000229689
-0.00278989
0.000238159
-0.00274437
0.000241203
-0.0026966
0.000240501
-0.00265322
0.000240802
-0.00262069
0.000250359
-0.00260423
0.000280928
-0.00260635
0.000347755
-0.0026259
0.000470924
-0.00265671
0.000677418
-0.00267753
0.000994694
-0.00263029
0.00142003
-0.00248394
0.00186882
-0.00202989
0.00185254
-0.000688251
0.000403302
-0.00270611
-0.000418791
0.00220897
-0.00100407
0.000594287
-0.00227089
3.30942e-05
-0.00337578
2.39744e-05
-0.00406012
0.000165604
-0.00430614
0.000263497
-0.00435556
0.000271784
-0.00428954
0.000249713
-0.00419288
0.000208826
-0.00408703
0.000178215
-0.00397785
0.000165227
-0.0038646
0.000168946
-0.00374869
0.000183097
-0.00363712
0.000199446
-0.00354106
0.000210298
-0.00347095
0.000211168
-0.00342767
0.000203551
-0.00340311
0.000191844
-0.00338451
0.000180668
-0.00336058
0.000172617
-0.00332496
0.000168392
-0.00327593
0.00016761
-0.00321537
0.0001688
-0.00314766
0.000170108
-0.00307751
0.000170716
-0.00300859
0.000171241
-0.00294204
0.000173906
-0.00287464
0.000182605
-0.00279685
0.000202797
-0.00269101
0.00024156
-0.00252982
0.000309387
-0.002277
0.000424252
-0.00188722
0.000604569
-0.00126887
0.000801343
-0.00024523
0.000844837
0.00110473
0.000502237
0.00189682
-0.000389119
-0.000760226
0.00284899
-0.00927331
-0.00705171
-0.00646067
-0.00643815
-0.00642849
-0.00627983
-0.00603552
-0.0057847
-0.00555727
-0.00537169
-0.00521744
-0.00507675
-0.00493289
-0.00477546
-0.00460238
-0.00441927
-0.00423622
-0.00406177
-0.00389998
-0.00375021
-0.00360916
-0.00347285
-0.00333771
-0.00320165
-0.00306451
-0.00292696
-0.00278907
-0.00264872
-0.00249986
-0.00233096
-0.00212336
-0.00184784
-0.00145716
-0.000885688
-0.000116904
0.000695526
0.00116416
0.0007394
)
;

boundaryField
{
    floor
    {
        type            calculated;
        value           nonuniform List<scalar> 
29
(
0
0
0
0
0
0
0
0
0
0
0
0
0
0
0
0
0
0
0
0
-1.93672e-06
-5.51439e-06
-8.90246e-06
-1.20618e-05
-1.95499e-06
-2.04581e-06
-6.18409e-06
-1.02128e-05
-1.02348e-05
)
;
    }
    ceiling
    {
        type            calculated;
        value           nonuniform List<scalar> 
43
(
3.23349e-05
-3.1617e-06
-1.31465e-05
2.90516e-06
1.0254e-05
1.39957e-05
1.66226e-05
1.88668e-05
2.0652e-05
2.19703e-05
2.29308e-05
2.36431e-05
2.4221e-05
2.47635e-05
2.53509e-05
2.60401e-05
2.68575e-05
2.77885e-05
2.8772e-05
2.97215e-05
3.05572e-05
3.12335e-05
3.17466e-05
3.21228e-05
3.24021e-05
3.2624e-05
3.282e-05
3.30115e-05
3.3207e-05
3.33966e-05
3.35483e-05
3.36104e-05
3.35217e-05
3.32317e-05
3.27462e-05
3.22125e-05
3.20637e-05
3.32551e-05
3.52887e-05
3.77844e-05
5.5933e-06
3.51094e-06
-5.45568e-05
)
;
    }
    sWall
    {
        type            calculated;
        value           uniform -0.000162971;
    }
    nWall
    {
        type            calculated;
        value           nonuniform List<scalar> 6(-3.76133e-05 -4.66667e-05 -5.48669e-05 -4.62176e-05 -4.93964e-05 -5.89667e-05);
    }
    sideWalls
    {
        type            empty;
        value           nonuniform 0();
    }
    glass1
    {
        type            calculated;
        value           nonuniform List<scalar> 9(-5.6755e-05 -0.000154284 -0.000237589 -0.000309398 -0.000371198 -0.000424533 -0.000476506 -0.000536488 -0.00060234);
    }
    glass2
    {
        type            calculated;
        value           nonuniform List<scalar> 2(-0.000203918 -0.000207027);
    }
    sun
    {
        type            calculated;
        value           uniform 0;
    }
    heatsource1
    {
        type            calculated;
        value           nonuniform List<scalar> 3(2.02712e-07 2.02563e-07 2.02648e-07);
    }
    heatsource2
    {
        type            calculated;
        value           nonuniform List<scalar> 4(5.1024e-08 5.12374e-08 0 0);
    }
    Table_master
    {
        type            calculated;
        value           nonuniform List<scalar> 9(-1.52488e-07 -1.52701e-07 -1.52755e-07 -1.52778e-07 -1.52785e-07 -1.52779e-07 -1.52762e-07 -1.52727e-07 -1.52633e-07);
    }
    Table_slave
    {
        type            calculated;
        value           nonuniform List<scalar> 9(1.52221e-07 1.52242e-07 1.52209e-07 1.52183e-07 1.52179e-07 1.52195e-07 1.52229e-07 1.52285e-07 1.52371e-07);
    }
    inlet
    {
        type            calculated;
        value           uniform -0.00640604;
    }
    outlet
    {
        type            calculated;
        value           nonuniform List<scalar> 2(-0.00271979 0.0121245);
    }
}


// ************************************************************************* //
