/*--------------------------------*- C++ -*----------------------------------*\
  =========                 |
  \\      /  F ield         | OpenFOAM: The Open Source CFD Toolbox
   \\    /   O peration     | Website:  https://openfoam.org
    \\  /    A nd           | Version:  6
     \\/     M anipulation  |
\*---------------------------------------------------------------------------*/
FoamFile
{
    version     2.0;
    format      ascii;
    class       volScalarField;
    location    "1700";
    object      nut;
}
// * * * * * * * * * * * * * * * * * * * * * * * * * * * * * * * * * * * * * //

dimensions      [0 2 -1 0 0 0 0];

internalField   nonuniform List<scalar> 
459
(
0.00108022
0.00118008
0.00120192
0.00125965
0.0013131
0.00136311
0.00141211
0.00146008
0.00149397
0.00150831
0.00149801
0.00145994
0.00139391
0.00130549
0.00120854
0.000473964
0.000579814
0.000651905
0.000647394
0.000624885
0.000595473
0.00055879
0.000522487
0.000489514
0.000460216
0.000434244
0.00041114
0.000390581
0.000372112
0.000355076
0.000338624
0.000321498
0.000309255
0.000281694
0.00147204
0.00359552
0.00344019
0.00400364
0.00455745
0.00511145
0.00560095
0.00596921
0.00630264
0.00657418
0.00674583
0.00677425
0.00659344
0.00603824
0.00451288
0.00123185
0.000726088
0.000512998
0.00107582
0.00148388
0.00177432
0.00192659
0.00191779
0.00154393
0.00133253
0.001181
0.00106445
0.000971611
0.000895923
0.00083045
0.000769396
0.000710326
0.000657932
0.00061248
0.000717619
0.000367942
0.00179821
0.00491337
0.00427052
0.00535523
0.00589699
0.00629946
0.00661251
0.00686208
0.0071329
0.00741538
0.00767628
0.00786817
0.00793841
0.0078097
0.00727733
0.00561245
0.00122397
0.00102441
0.00146972
0.0018794
0.00224163
0.00248403
0.00241127
0.000799909
0.000706469
0.000631433
0.000570888
0.000521551
0.000480912
0.000447176
0.000419193
0.00039648
0.00042697
0.000493073
0.000806684
0.000425485
0.00211125
0.00628157
0.00428586
0.00567031
0.00614698
0.00631003
0.00641652
0.00654587
0.00676209
0.00705081
0.00737822
0.00768511
0.00791743
0.0080143
0.00790213
0.00733057
0.00537724
0.00146574
0.0018182
0.00234502
0.0028479
0.00323974
0.00347278
0.00324498
0.000902644
0.000821854
0.00076396
0.000719823
0.000682347
0.000648019
0.000615088
0.000580584
0.000540617
0.000506703
0.000517355
0.000920816
0.00047006
0.0024304
0.00803692
0.00471524
0.00546209
0.00609276
0.00613626
0.00608661
0.00615742
0.0063488
0.00664127
0.00700756
0.00736639
0.0076429
0.00777566
0.00774256
0.00750094
0.00688295
0.0056896
0.00527896
0.00513913
0.0050851
0.00504654
0.0049825
0.00478255
0.00403586
0.00367718
0.00346865
0.00330796
0.00313893
0.00289579
0.00256753
0.00216863
0.00172524
0.0012779
0.000942122
0.000945112
0.000629923
0.000579526
0.000701714
0.000787604
0.00276861
0.00994759
0.00649124
0.00544323
0.00591681
0.00612975
0.00599866
0.00605752
0.0062012
0.00646218
0.00682973
0.00722152
0.00752508
0.00765258
0.00758302
0.00736241
0.00706654
0.00675649
0.00657823
0.00644211
0.00628769
0.00611358
0.0059222
0.00568889
0.00535154
0.00505143
0.00478572
0.00453098
0.00427119
0.00398847
0.0036321
0.00318889
0.00265914
0.00207304
0.0015547
0.00116339
0.000878233
0.000747285
0.00106624
0.000821808
0.00307618
0.0112852
0.00909374
0.00702022
0.00663792
0.00655689
0.00633859
0.00619902
0.00624239
0.00649453
0.00690042
0.00733639
0.00765584
0.0077552
0.00762308
0.00735561
0.00712241
0.0070373
0.00703623
0.00695903
0.00676323
0.00648641
0.00616255
0.00580882
0.00543943
0.00509693
0.00478234
0.00448829
0.00421536
0.00397046
0.00375359
0.0034575
0.00304329
0.00253815
0.00205263
0.00161837
0.00130081
0.00120394
0.00122949
0.000936585
0.00313565
0.010043
0.0089234
0.00824014
0.00763714
0.00693879
0.00638985
0.00616909
0.00629859
0.00670403
0.00724519
0.00774304
0.00802934
0.00802232
0.00776075
0.00741103
0.00719625
0.00718537
0.00717633
0.00694482
0.00655484
0.00608241
0.00558782
0.00512013
0.00471068
0.00436556
0.00407211
0.00382372
0.00362393
0.00348101
0.00340206
0.00336179
0.00315429
0.00282983
0.00254443
0.00239881
0.00249234
0.00287444
0.00353182
0.00146172
0.00305221
0.00361887
0.00401738
0.00411723
0.00420001
0.00442926
0.00489398
0.00560366
0.00647599
0.00735969
0.00809166
0.00851876
0.00853867
0.00819605
0.00767713
0.00731688
0.0071065
0.00691768
0.00660894
0.00613002
0.00555069
0.00495841
0.00442431
0.00398311
0.00363344
0.00335453
0.00312563
0.00293419
0.00277211
0.00263102
0.00250184
0.00238308
0.00228914
0.00221986
0.00219364
0.0022033
0.00219099
0.00210359
0.00196641
0.00137466
0.00148521
0.00306095
0.00496937
0.00656529
0.00781649
0.00877582
0.00938548
0.00963146
0.00954869
0.009132
0.00847152
0.00763549
0.00691886
0.00646863
0.00610118
0.00565538
0.00511637
0.00454494
0.00400513
0.0035401
0.00317251
0.00288922
0.00266889
0.00249495
0.00235762
0.00225181
0.00217478
0.00212513
0.00210435
0.0021103
0.00212924
0.00215737
0.00218708
0.00219447
0.00214095
0.00201419
0.00182331
0.00114273
0.00198705
0.00512643
0.00766734
0.0086394
0.00913504
0.0092978
0.00909973
0.00860037
0.00790336
0.00711129
0.0063602
0.00568668
0.00514064
0.0046754
0.0042083
0.00375107
0.00334755
0.00302007
0.00276657
0.00257204
0.00241397
0.00228107
0.00216861
0.0020805
0.00201779
0.0019793
0.00196317
0.00196694
0.00199603
0.00204754
0.00211797
0.00220003
0.00227758
0.00233113
0.0023134
0.0023391
0.00237155
0.00116503
0.0017779
0.00188394
0.00195908
0.00211003
0.0020411
0.00195699
0.00190237
0.00182544
0.00171501
0.00157761
0.00142278
0.00126157
0.00110485
0.000969937
0.000867782
0.000795206
0.000743875
0.00070699
0.000680346
0.000661506
0.000648954
0.000641769
0.000639391
0.000642036
0.000650151
0.000663212
0.000681154
0.000704309
0.000733236
0.000768798
0.000810012
0.000856947
0.000910105
0.000969939
0.00103597
0.00111447
0.00113978
0.00111051
0.00104325
0.000971846
)
;

boundaryField
{
    floor
    {
        type            nutkWallFunction;
        Cmu             0.09;
        kappa           0.41;
        E               9.8;
        value           nonuniform List<scalar> 
29
(
0.000144992
5.63693e-05
6.98157e-05
7.87989e-05
7.82405e-05
7.54468e-05
7.1778e-05
6.71709e-05
6.25749e-05
5.83663e-05
5.4597e-05
5.12305e-05
4.82143e-05
4.55122e-05
4.30693e-05
4.08022e-05
3.85993e-05
3.62914e-05
3.46317e-05
3.08629e-05
3.08628e-05
4.25151e-05
5.00889e-05
5.5866e-05
0.000144993
5.63692e-05
6.13669e-05
0.000123593
0.000174286
)
;
    }
    ceiling
    {
        type            nutkWallFunction;
        Cmu             0.09;
        kappa           0.41;
        E               9.8;
        value           nonuniform List<scalar> 
43
(
0.000208948
0.000220597
0.00022881
0.000245307
0.000237869
0.000228723
0.00022276
0.00021432
0.000202132
0.000186844
0.000169437
0.000151087
0.000132993
0.000117182
0.000105042
9.63161e-05
9.00884e-05
8.5582e-05
8.23094e-05
7.99861e-05
7.84337e-05
7.75436e-05
7.72486e-05
7.75767e-05
7.85819e-05
8.01967e-05
8.24088e-05
8.52533e-05
8.87914e-05
9.31182e-05
9.81036e-05
0.000103745
0.000110091
0.000117183
0.000124951
0.000134113
0.000137051
0.000133652
0.000125804
0.000117408
0.000345581
0.000404148
0.000231731
)
;
    }
    sWall
    {
        type            nutkWallFunction;
        Cmu             0.09;
        kappa           0.41;
        E               9.8;
        value           uniform 0.000209006;
    }
    nWall
    {
        type            nutkWallFunction;
        Cmu             0.09;
        kappa           0.41;
        E               9.8;
        value           nonuniform List<scalar> 6(9.53971e-05 9.9526e-05 0.000113239 0.000137403 0.000139986 0.000117414);
    }
    sideWalls
    {
        type            empty;
    }
    glass1
    {
        type            nutkWallFunction;
        Cmu             0.09;
        kappa           0.41;
        E               9.8;
        value           nonuniform List<scalar> 9(0.000130227 0.000175217 0.000211634 0.000245906 0.000280291 0.000316211 0.000348481 0.000354691 0.000346005);
    }
    glass2
    {
        type            nutkWallFunction;
        Cmu             0.09;
        kappa           0.41;
        E               9.8;
        value           nonuniform List<scalar> 2(0.000173906 0.000164051);
    }
    sun
    {
        type            nutkWallFunction;
        Cmu             0.09;
        kappa           0.41;
        E               9.8;
        value           nonuniform List<scalar> 
14
(
0.000130126
0.000141712
0.000144231
0.000150866
0.000156979
0.000162673
0.00016823
0.000173649
0.000177465
0.000179077
0.00017792
0.000173632
0.000166167
0.000156109
)
;
    }
    heatsource1
    {
        type            nutkWallFunction;
        Cmu             0.09;
        kappa           0.41;
        E               9.8;
        value           nonuniform List<scalar> 3(6.97813e-05 8.49354e-05 9.53969e-05);
    }
    heatsource2
    {
        type            nutkWallFunction;
        Cmu             0.09;
        kappa           0.41;
        E               9.8;
        value           nonuniform List<scalar> 4(0.00014767 8.79196e-05 8.79196e-05 0.000146765);
    }
    Table_master
    {
        type            nutkWallFunction;
        Cmu             0.09;
        kappa           0.41;
        E               9.8;
        value           nonuniform List<scalar> 9(9.6884e-05 8.5519e-05 7.62627e-05 6.86974e-05 6.24601e-05 5.72678e-05 5.2916e-05 4.92751e-05 4.62974e-05);
    }
    Table_slave
    {
        type            nutkWallFunction;
        Cmu             0.09;
        kappa           0.41;
        E               9.8;
        value           nonuniform List<scalar> 9(0.000109201 9.953e-05 9.25312e-05 8.71535e-05 8.25566e-05 7.83192e-05 7.42288e-05 6.99145e-05 6.48779e-05);
    }
    inlet
    {
        type            calculated;
        value           uniform 0.000100623;
    }
    outlet
    {
        type            calculated;
        value           nonuniform List<scalar> 2(0.0017779 0.00188394);
    }
}


// ************************************************************************* //
