/*--------------------------------*- C++ -*----------------------------------*\
  =========                 |
  \\      /  F ield         | OpenFOAM: The Open Source CFD Toolbox
   \\    /   O peration     | Website:  https://openfoam.org
    \\  /    A nd           | Version:  6
     \\/     M anipulation  |
\*---------------------------------------------------------------------------*/
FoamFile
{
    version     2.0;
    format      ascii;
    class       volScalarField;
    location    "30";
    object      nut;
}
// * * * * * * * * * * * * * * * * * * * * * * * * * * * * * * * * * * * * * //

dimensions      [0 2 -1 0 0 0 0];

internalField   nonuniform List<scalar> 
459
(
0.00115377
0.00130087
0.00136158
0.0014457
0.00154186
0.0016337
0.00171306
0.00177245
0.00174915
0.00167113
0.00156592
0.00143693
0.00130953
0.00117539
0.00102394
0.000703321
0.000797504
0.000807774
0.000814165
0.000798697
0.000731818
0.000602103
0.000506865
0.00045564
0.000434418
0.000427505
0.000426324
0.000429088
0.000440332
0.000476262
0.000561679
0.000636598
0.000703208
0.000686211
0.00145424
0.0045675
0.00499241
0.00569145
0.00618448
0.00661934
0.00711576
0.00776192
0.00850116
0.00858077
0.00822076
0.00749251
0.00612353
0.00449666
0.00283409
0.00114289
0.000922093
0.000974635
0.00391791
0.00453827
0.00496205
0.00473864
0.00381808
0.00216635
0.00156478
0.00127127
0.00114357
0.00109588
0.00108533
0.00109887
0.00115405
0.00134729
0.00208128
0.00263728
0.00300093
0.000903798
0.00168261
0.00642056
0.00665432
0.00707893
0.00702763
0.00698042
0.00725947
0.00815313
0.00962048
0.0105761
0.0109287
0.0106649
0.00959296
0.00782343
0.00566108
0.0031887
0.00105667
0.00116201
0.00519859
0.00673857
0.00746013
0.00699922
0.00506457
0.000867842
0.000581746
0.000473062
0.000438678
0.000429588
0.000428777
0.000434986
0.00046634
0.000617599
0.00270681
0.00374607
0.00394203
0.00107532
0.00187874
0.00757039
0.0071509
0.00718265
0.00652148
0.00602179
0.00610599
0.00712432
0.00890258
0.010497
0.0115764
0.0119803
0.011537
0.0101974
0.0081353
0.00545133
0.00264181
0.00119415
0.00320231
0.00578028
0.00814155
0.00917112
0.00870003
0.0062342
0.0011207
0.000985843
0.000950519
0.00093732
0.000933397
0.000936185
0.00094541
0.000963477
0.00101774
0.00356491
0.00500837
0.00477052
0.00121014
0.00205891
0.00860355
0.00760686
0.0072787
0.00615882
0.00536917
0.00535157
0.00636593
0.00810639
0.00999456
0.0115646
0.0125221
0.0126535
0.0118332
0.0101623
0.00782579
0.00538665
0.00461361
0.0060769
0.0082756
0.0100487
0.0108453
0.0105914
0.00926983
0.00702134
0.00653092
0.00632963
0.00622243
0.00616345
0.00613583
0.00613199
0.00615477
0.006261
0.00706897
0.00720873
0.00616303
0.00304995
0.00114131
0.000935937
0.000740064
0.00223079
0.0095879
0.00859133
0.00774616
0.00612963
0.0051646
0.00511784
0.00605255
0.0077177
0.00965939
0.0114706
0.0128144
0.013413
0.0130634
0.0118616
0.0101114
0.00844017
0.00809426
0.00913707
0.0105706
0.0116491
0.0121078
0.0119495
0.0112742
0.0103361
0.00981862
0.00952426
0.00934392
0.00922601
0.00914469
0.00908497
0.00903849
0.00900714
0.00900707
0.0086179
0.00747798
0.00532126
0.00317638
0.00230745
0.000790118
0.00233442
0.00994482
0.00949756
0.00774992
0.00596745
0.00498511
0.00506218
0.00609208
0.00776281
0.00967254
0.0115524
0.0131438
0.0140538
0.0140127
0.0132066
0.0120182
0.0110044
0.0108184
0.0113487
0.0120171
0.0124517
0.0125568
0.0123658
0.0119581
0.0114649
0.011077
0.0107992
0.0105982
0.0104433
0.0103136
0.0101941
0.0100706
0.00991499
0.00964525
0.0090394
0.00786616
0.00617001
0.00437173
0.00291688
0.000804845
0.00234113
0.00777152
0.00738662
0.00593116
0.00475478
0.00443261
0.00506614
0.0064422
0.00822476
0.0100786
0.0119305
0.0136412
0.0143929
0.014386
0.0138537
0.013101
0.0124501
0.0121676
0.0121673
0.0121896
0.0121169
0.011941
0.0116856
0.0113802
0.0110658
0.010791
0.010568
0.0103893
0.0102353
0.0100915
0.00994918
0.00980069
0.00961957
0.00931005
0.00865789
0.00732213
0.00514042
0.00282507
0.0015919
0.000973009
0.00226875
0.00259147
0.00270714
0.00263487
0.00290175
0.00391015
0.00552136
0.00735672
0.00917843
0.0108304
0.0125285
0.0134958
0.0138524
0.0137341
0.0133323
0.0128052
0.0122721
0.0118002
0.0113863
0.0110053
0.0106711
0.0103858
0.0101396
0.00991918
0.00972006
0.00954486
0.00939423
0.00926509
0.00915234
0.00903938
0.00892028
0.00879416
0.00864571
0.00839469
0.00793834
0.00706321
0.00548556
0.00339745
0.00192143
0.00134899
0.000495452
0.00138903
0.00364816
0.00604573
0.00796766
0.00929836
0.010603
0.0112711
0.0117656
0.0120227
0.0120417
0.0118826
0.0115902
0.0111941
0.0107223
0.0102153
0.00974721
0.0093742
0.00911005
0.00893467
0.00881343
0.0087177
0.00863459
0.00855991
0.00849264
0.00843164
0.00837412
0.00831485
0.00824578
0.0081556
0.0080306
0.00785491
0.00760157
0.00720457
0.00651252
0.00536076
0.00412963
0.0016313
0.00157394
0.00685981
0.00900826
0.00985083
0.010119
0.00998448
0.00972285
0.00948592
0.00929405
0.00914116
0.00901215
0.00889261
0.00877342
0.00865627
0.00855656
0.00849729
0.00849398
0.0085391
0.0086075
0.00867194
0.00871639
0.00873921
0.00874686
0.0087458
0.0087413
0.00873578
0.00872858
0.00871573
0.00868966
0.00863685
0.00853705
0.00836555
0.00809968
0.00772641
0.00725081
0.00669227
0.0060212
0.00206529
0.00161066
0.00175665
0.00191604
0.00217638
0.00218142
0.00214539
0.00207727
0.00200114
0.00192389
0.00186643
0.00183234
0.00181544
0.00181015
0.00181274
0.00182088
0.0018331
0.00184836
0.00186553
0.00188326
0.00189964
0.0019126
0.00192114
0.00192653
0.00192993
0.00193187
0.00193304
0.00193384
0.00193455
0.00193494
0.00193444
0.00193256
0.00192838
0.00192043
0.00190609
0.00188171
0.00184352
0.00179031
0.00173107
0.00168787
0.00151552
)
;

boundaryField
{
    floor
    {
        type            nutkWallFunction;
        Cmu             0.09;
        kappa           0.41;
        E               9.8;
        value           nonuniform List<scalar> 
29
(
0.000123497
8.51544e-05
9.66376e-05
9.79014e-05
9.86799e-05
9.68094e-05
8.8679e-05
7.26489e-05
6.06176e-05
5.40369e-05
5.12857e-05
5.03865e-05
5.02332e-05
5.05941e-05
5.20584e-05
5.67051e-05
6.75792e-05
7.69375e-05
8.51379e-05
8.30428e-05
8.30428e-05
0.000109368
0.000129603
0.000145253
0.000123497
8.51543e-05
0.000117786
0.00013971
0.000143488
)
;
    }
    ceiling
    {
        type            nutkWallFunction;
        Cmu             0.09;
        kappa           0.41;
        E               9.8;
        value           nonuniform List<scalar> 
43
(
0.000190546
0.000206757
0.00022429
0.000252628
0.000253184
0.000249299
0.000241932
0.000233666
0.000225245
0.000218958
0.00021522
0.000213365
0.000212784
0.000213071
0.000213966
0.00021531
0.000216985
0.000218868
0.000220809
0.000222601
0.000224015
0.000224946
0.000225534
0.000225903
0.000226115
0.000226242
0.000226328
0.000226406
0.000226448
0.000226393
0.000226187
0.000225731
0.000224861
0.000223292
0.00022062
0.000216427
0.000210567
0.000204016
0.000199218
0.000179954
0.000262707
0.000297166
0.000186377
)
;
    }
    sWall
    {
        type            nutkWallFunction;
        Cmu             0.09;
        kappa           0.41;
        E               9.8;
        value           uniform 0.00019058;
    }
    nWall
    {
        type            nutkWallFunction;
        Cmu             0.09;
        kappa           0.41;
        E               9.8;
        value           nonuniform List<scalar> 6(8.96409e-05 9.57509e-05 9.7545e-05 0.000192926 0.000240684 0.000179969);
    }
    sideWalls
    {
        type            empty;
    }
    glass1
    {
        type            nutkWallFunction;
        Cmu             0.09;
        kappa           0.41;
        E               9.8;
        value           nonuniform List<scalar> 9(0.000138788 0.000173204 0.000198817 0.000220501 0.000240196 0.000258802 0.000269939 0.000270651 0.000262864);
    }
    glass2
    {
        type            nutkWallFunction;
        Cmu             0.09;
        kappa           0.41;
        E               9.8;
        value           nonuniform List<scalar> 2(0.000117578 0.000161128);
    }
    sun
    {
        type            nutkWallFunction;
        Cmu             0.09;
        kappa           0.41;
        E               9.8;
        value           nonuniform List<scalar> 
14
(
0.000138727
0.000155657
0.000162571
0.000172104
0.000182932
0.000193198
0.000202013
0.000208569
0.000205958
0.00019729
0.000185538
0.000171013
0.000156541
0.000141131
)
;
    }
    heatsource1
    {
        type            nutkWallFunction;
        Cmu             0.09;
        kappa           0.41;
        E               9.8;
        value           nonuniform List<scalar> 3(0.000137311 0.000113207 8.96411e-05);
    }
    heatsource2
    {
        type            nutkWallFunction;
        Cmu             0.09;
        kappa           0.41;
        E               9.8;
        value           nonuniform List<scalar> 4(0.000137436 0.000111504 0.000111504 0.000127432);
    }
    Table_master
    {
        type            nutkWallFunction;
        Cmu             0.09;
        kappa           0.41;
        E               9.8;
        value           nonuniform List<scalar> 9(0.000105128 7.00848e-05 5.6267e-05 5.18198e-05 5.06378e-05 5.05325e-05 5.13422e-05 5.54093e-05 7.45937e-05);
    }
    Table_slave
    {
        type            nutkWallFunction;
        Cmu             0.09;
        kappa           0.41;
        E               9.8;
        value           nonuniform List<scalar> 9(0.000134965 0.000119166 0.000114988 0.000113422 0.000112955 0.000113284 0.000114376 0.000116514 0.000122916);
    }
    inlet
    {
        type            calculated;
        value           uniform 0.000100623;
    }
    outlet
    {
        type            calculated;
        value           nonuniform List<scalar> 2(0.00161066 0.00175665);
    }
}


// ************************************************************************* //
