/*--------------------------------*- C++ -*----------------------------------*\
  =========                 |
  \\      /  F ield         | OpenFOAM: The Open Source CFD Toolbox
   \\    /   O peration     | Website:  https://openfoam.org
    \\  /    A nd           | Version:  6
     \\/     M anipulation  |
\*---------------------------------------------------------------------------*/
FoamFile
{
    version     2.0;
    format      ascii;
    class       volScalarField;
    location    "380";
    object      alphat;
}
// * * * * * * * * * * * * * * * * * * * * * * * * * * * * * * * * * * * * * //

dimensions      [1 -1 -1 0 0 0 0];

internalField   nonuniform List<scalar> 
459
(
0.00108305
0.0013368
0.00137756
0.00133629
0.00128143
0.00122849
0.00117955
0.00113448
0.00109317
0.00105354
0.00101379
0.000971932
0.000925202
0.00086829
0.000802229
0.000621474
0.000817366
0.000854148
0.000848962
0.000817704
0.000779181
0.000731333
0.000684643
0.000642934
0.000606346
0.000574233
0.00054585
0.000520404
0.000497487
0.000475896
0.000454177
0.000431165
0.000396322
0.000386251
0.00130105
0.00401003
0.00345393
0.00328915
0.00313488
0.00300326
0.00290715
0.00281925
0.00270216
0.00255536
0.00237197
0.00214237
0.0018596
0.0015187
0.00115217
0.000787939
0.000703394
0.000958664
0.00294626
0.00247105
0.0025431
0.00266924
0.0026125
0.00201491
0.0017088
0.00149979
0.0013449
0.00122556
0.00113168
0.00105757
0.000979594
0.000891864
0.000808881
0.000793796
0.000731621
0.000486294
0.00138074
0.00444047
0.00326825
0.00330642
0.00328554
0.00327838
0.0033356
0.00341127
0.00343128
0.00335872
0.00317842
0.00289163
0.00251351
0.00206937
0.00160557
0.00117696
0.000716669
0.000931655
0.00272782
0.00256256
0.00289538
0.0032447
0.00313939
0.000961664
0.000850855
0.00075932
0.000684187
0.000622321
0.000571086
0.000528569
0.000494887
0.000470653
0.00052935
0.000700844
0.000898291
0.000558632
0.00142063
0.00408167
0.00277304
0.00326222
0.00341807
0.00351248
0.0037171
0.00390414
0.00396532
0.00388662
0.00367861
0.00336019
0.00295619
0.00249584
0.00201239
0.00154405
0.00104202
0.000737865
0.00143922
0.00202709
0.00288685
0.00369647
0.00422163
0.00400462
0.00105009
0.000964423
0.000896589
0.000837448
0.000781797
0.000726541
0.000669525
0.00060871
0.000539224
0.000515456
0.000659508
0.00107768
0.000649837
0.00146124
0.00346759
0.00242857
0.00337654
0.00379543
0.00399242
0.00432383
0.00443183
0.00439755
0.00426552
0.00404122
0.00373277
0.00336162
0.00295486
0.00254132
0.00216416
0.0018646
0.00200717
0.0027683
0.0037808
0.00469084
0.00534147
0.00569427
0.00567667
0.00486258
0.00437591
0.00388888
0.00341441
0.00294287
0.00247065
0.00199539
0.00151812
0.00104031
0.000721053
0.000713744
0.00107737
0.000923095
0.000718549
0.000777619
0.00112419
0.00149131
0.00307331
0.00224409
0.00347708
0.00424961
0.00449354
0.00484421
0.00487733
0.00479868
0.0046733
0.00449663
0.00425864
0.00398938
0.00371938
0.00349271
0.00339387
0.00352744
0.00425022
0.00518106
0.00596649
0.0065172
0.00681512
0.00689035
0.00676445
0.00638933
0.00585959
0.00522484
0.00454282
0.00384414
0.00314574
0.00245767
0.00178862
0.00126301
0.00098835
0.000957587
0.00109735
0.00107591
0.0011466
0.0016899
0.00149685
0.00151845
0.00290003
0.00195136
0.00358938
0.00474311
0.00483204
0.00508763
0.00513866
0.00510159
0.00504978
0.00498071
0.00489503
0.00481295
0.00476315
0.00481763
0.00506058
0.00557024
0.00637598
0.00703817
0.00745006
0.00762379
0.00758597
0.00739235
0.0070686
0.00659283
0.00600886
0.0053483
0.00464278
0.0039265
0.00323564
0.00261113
0.00210133
0.00177022
0.00162846
0.00157803
0.00150587
0.00129669
0.00162101
0.00306973
0.00203895
0.00152503
0.00267907
0.00149313
0.00356868
0.00537297
0.00532133
0.00527689
0.00519309
0.00517819
0.00520797
0.0052562
0.00532297
0.00542587
0.00559516
0.00587396
0.00631559
0.00688716
0.00746334
0.00780211
0.00787188
0.00771406
0.00736153
0.0068748
0.00634884
0.00581757
0.00528168
0.0047326
0.00418311
0.00366743
0.00322983
0.00291186
0.00273749
0.00269547
0.00271014
0.00264922
0.00244332
0.00195286
0.00225012
0.00555713
0.00281572
0.00159011
0.00145499
0.00108505
0.00325537
0.00591986
0.00596531
0.00576334
0.00566882
0.00570323
0.00578317
0.00587941
0.0059946
0.0061429
0.00634199
0.00660672
0.00693569
0.00726968
0.00749316
0.00749501
0.00726308
0.00684807
0.00634739
0.0058464
0.0053908
0.00499761
0.00466344
0.00438173
0.00416028
0.00401752
0.00397107
0.00402668
0.00416821
0.00434657
0.00447085
0.00443042
0.00416506
0.00356794
0.00363749
0.00744939
0.00317218
0.000852975
0.00296514
0.00620322
0.00658614
0.00667376
0.00682311
0.00698264
0.0071128
0.00721229
0.0072922
0.00736404
0.0074357
0.00750819
0.00757001
0.00759066
0.00753016
0.00737002
0.00713148
0.00685438
0.00657622
0.00632131
0.00610227
0.00592453
0.00579225
0.00571173
0.00569259
0.00574469
0.00587309
0.00607176
0.0063158
0.00655298
0.0067002
0.00665056
0.00637612
0.00582389
0.00567081
0.00780188
0.00269396
0.00247108
0.00707952
0.00743145
0.00747148
0.00768341
0.00794313
0.00815212
0.00829106
0.00837254
0.00841318
0.00842579
0.00841907
0.00839887
0.00836821
0.00832574
0.00826522
0.00817903
0.00806752
0.00794056
0.00781026
0.00768511
0.00757144
0.00747618
0.00740822
0.00737766
0.00739499
0.00746946
0.00760652
0.00780387
0.00804445
0.00828533
0.00844375
0.00839007
0.00806005
0.0074508
0.0068512
0.00617278
0.00225879
0.00152147
0.0016137
0.00183358
0.00196756
0.00200192
0.00200995
0.00201733
0.00202384
0.00202798
0.00203
0.00203073
0.00203095
0.00203131
0.00203223
0.00203379
0.00203543
0.00203589
0.00203377
0.00202855
0.0020209
0.00201202
0.00200307
0.00199495
0.00198841
0.00198411
0.00198266
0.00198468
0.00199067
0.00200089
0.00201507
0.00203198
0.00204882
0.00206043
0.00205954
0.0020448
0.0020243
0.00203386
0.00209222
0.00212813
0.00189968
)
;

boundaryField
{
    floor
    {
        type            compressible::alphatWallFunction;
        Prt             0.85;
        value           nonuniform List<scalar> 
29
(
0.000114406
8.79001e-05
0.000116614
0.000121906
0.000121163
0.000116664
0.000111091
0.000104122
9.7268e-05
9.1097e-05
8.5643e-05
8.08227e-05
7.65344e-05
7.26658e-05
6.91615e-05
6.58413e-05
6.24819e-05
5.89001e-05
5.34287e-05
5.18372e-05
5.18365e-05
6.74472e-05
7.84759e-05
9.21311e-05
0.000114404
8.7899e-05
0.000136802
0.000132967
0.000105058
)
;
    }
    ceiling
    {
        type            compressible::alphatWallFunction;
        Prt             0.85;
        value           nonuniform List<scalar> 
43
(
0.000214279
0.000226622
0.000255747
0.000273304
0.000277787
0.000278836
0.000279797
0.000280645
0.000281184
0.000281448
0.000281543
0.000281572
0.000281619
0.000281739
0.000281943
0.000282157
0.000282217
0.000281941
0.000281262
0.000280266
0.000279111
0.000277944
0.000276886
0.000276033
0.000275471
0.000275282
0.000275545
0.000276325
0.000277656
0.000279502
0.000281702
0.000283891
0.000285397
0.000285281
0.000283364
0.000280697
0.00028194
0.000289518
0.000294172
0.000264425
0.000223389
0.000205235
0.000338184
)
;
    }
    sWall
    {
        type            compressible::alphatWallFunction;
        Prt             0.85;
        value           uniform 0.000214206;
    }
    nWall
    {
        type            compressible::alphatWallFunction;
        Prt             0.85;
        value           nonuniform List<scalar> 6(0.000160064 0.000210979 0.000282616 0.000366475 0.000311048 0.000264442);
    }
    sideWalls
    {
        type            empty;
    }
    glass1
    {
        type            compressible::alphatWallFunction;
        Prt             0.85;
        value           nonuniform List<scalar> 9(0.000154384 0.000184517 0.000195378 0.000200783 0.000206269 0.000210315 0.00021395 0.000214814 0.000223526);
    }
    glass2
    {
        type            compressible::alphatWallFunction;
        Prt             0.85;
        value           nonuniform List<scalar> 2(0.000383416 0.000428031);
    }
    sun
    {
        type            compressible::alphatWallFunction;
        Prt             0.85;
        value           nonuniform List<scalar> 
14
(
0.000154257
0.000189238
0.000194783
0.00018917
0.000181678
0.000174413
0.000167665
0.000161422
0.000155675
0.000150138
0.00014456
0.000138658
0.000132034
0.000123913
)
;
    }
    heatsource1
    {
        type            compressible::alphatWallFunction;
        Prt             0.85;
        value           nonuniform List<scalar> 3(0.00010204 0.000110652 0.000159795);
    }
    heatsource2
    {
        type            compressible::alphatWallFunction;
        Prt             0.85;
        value           nonuniform List<scalar> 4(0.000112151 9.98198e-05 9.98186e-05 0.000101766);
    }
    Table_master
    {
        type            compressible::alphatWallFunction;
        Prt             0.85;
        value           nonuniform List<scalar> 9(0.000137009 0.000121219 0.000107992 9.69912e-05 8.78227e-05 8.01449e-05 7.37085e-05 6.85637e-05 6.48349e-05);
    }
    Table_slave
    {
        type            compressible::alphatWallFunction;
        Prt             0.85;
        value           nonuniform List<scalar> 9(0.000149459 0.000137403 0.000127767 0.000119296 0.000111259 0.000103212 9.48301e-05 8.5793e-05 7.53294e-05);
    }
    inlet
    {
        type            fixedValue;
        value           uniform 1.94e-05;
    }
    outlet
    {
        type            zeroGradient;
    }
}


// ************************************************************************* //
