/*--------------------------------*- C++ -*----------------------------------*\
  =========                 |
  \\      /  F ield         | OpenFOAM: The Open Source CFD Toolbox
   \\    /   O peration     | Website:  https://openfoam.org
    \\  /    A nd           | Version:  6
     \\/     M anipulation  |
\*---------------------------------------------------------------------------*/
FoamFile
{
    version     2.0;
    format      ascii;
    class       surfaceScalarField;
    location    "380";
    object      phi;
}
// * * * * * * * * * * * * * * * * * * * * * * * * * * * * * * * * * * * * * //

dimensions      [1 0 -1 0 0 0 0];

internalField   nonuniform List<scalar> 
852
(
0.00106958
-0.0010744
0.00160541
-0.000535902
0.00272584
-0.00112051
0.00362213
-0.000896371
0.00415834
-0.000536292
0.00442833
-0.00027006
0.00451839
-9.01413e-05
0.00448016
3.81519e-05
0.00434212
0.000137968
0.00411827
0.000223767
0.00380742
0.000310774
0.00338673
0.000420607
0.00279435
0.000592306
0.00185179
0.000942474
0.00184804
-3.79694e-05
3.28494e-05
-0.000214409
0.000176339
0.000147955
-0.000362464
0.000678112
-0.000530256
0.00109988
-0.000421872
0.00138372
-0.000283938
0.00154625
-0.000162631
0.00163341
-8.72561e-05
0.00168972
-5.64166e-05
0.00173066
-4.10405e-05
0.0017597
-2.91411e-05
0.00177644
-1.68443e-05
0.00177472
1.6196e-06
0.00173853
3.60812e-05
0.00163294
0.00010549
0.00139824
0.000234595
0.000980506
0.000417626
0.000227858
0.000752542
0.000220614
0.000502086
-0.00159018
0.0012924
-0.00132629
0.0022754
-0.00210359
0.00299273
-0.00161378
0.00341599
-0.000959635
0.00361391
-0.00046806
0.003659
-0.000135315
0.00359808
9.89868e-05
0.00346179
0.000274184
0.00326976
0.000415709
0.00303071
0.00054975
0.00274731
0.000703917
0.00243233
0.000907214
0.00219728
0.00117743
0.00251468
0.00153055
0.0012069
0.00130765
0.00120676
-6.48284e-05
8.65655e-05
0.000431186
-0.000319776
0.000857653
-0.000789028
0.00117458
-0.000847276
0.00142275
-0.000670146
0.00157979
-0.000441072
0.00161343
-0.000196373
0.00162479
-9.87221e-05
0.00163559
-6.73126e-05
0.00164477
-5.03211e-05
0.0016519
-3.63739e-05
0.00165718
-2.22318e-05
0.00165815
5.4299e-07
0.00164784
4.62868e-05
0.00159104
0.000162194
0.00136646
0.00045907
0.00100941
0.000774565
0.000608896
0.00115295
0.000810754
0.00017957
-0.0017919
0.000817922
-0.00196473
0.00162469
-0.00291045
0.00218844
-0.00217763
0.00246028
-0.00123157
0.00254643
-0.000554296
0.00252459
-0.000113567
0.00244528
0.000178208
0.00234286
0.000376522
0.00223197
0.000526513
0.0021172
0.000664433
0.00200402
0.000817018
0.00190782
0.00100333
0.00184953
0.00123563
0.00180672
0.00157328
0.00130704
0.00180726
0.00251372
0.000220104
-0.00015181
0.00109744
-0.0011972
0.00148886
-0.00118054
0.00165501
-0.00101352
0.00175375
-0.000768981
0.00181563
-0.000503054
0.00161931
0.00152065
0.00145339
0.00140312
0.0013668
0.00134461
0.00134521
0.00139154
0.00155379
0.00127444
0.000738313
0.0010271
0.0010218
0.000769735
0.00141021
0.00155192
-8.37084e-05
-0.00173846
0.000225611
-0.00227413
0.000822249
-0.00350718
0.00127087
-0.00262636
0.00137838
-0.00133918
0.00134377
-0.000519785
0.00127407
-4.39655e-05
0.00122377
0.000228423
0.00120615
0.000394048
0.00121067
0.000521903
0.00122953
0.000645482
0.00126366
0.000782806
0.00132066
0.000946248
0.00140979
0.00114641
0.00157334
0.00140965
0.00182993
0.00155059
0.00275839
0.00158517
0.00225328
0.000480587
0.00259904
-0.000497654
0.0022736
-0.000871855
0.00210606
-0.00101308
0.00199303
-0.000900593
0.00190971
-0.00068576
0.00183061
-0.000424047
0.00195635
-0.000126003
0.00195785
-1.75568e-06
0.00189662
6.09728e-05
0.00179478
0.000101584
0.0016599
0.000134611
0.00149336
0.000166279
0.00129024
0.000202854
0.00103561
0.000254373
0.000687686
0.000347656
0.000785031
0.000640859
0.000831759
0.000974965
0.000927336
0.00131452
0.00244305
-0.000395853
-0.00138049
-0.000405986
-0.00226407
1.58828e-05
-0.00392915
0.000359074
-0.00296967
0.000338437
-0.00131866
0.000247785
-0.000429237
0.000207899
-4.17887e-06
0.000233468
0.000202759
0.000299601
0.000327821
0.00039001
0.000431402
0.000500046
0.000535354
0.000633159
0.000649604
0.00080097
0.000778348
0.00102712
0.000920175
0.00136734
0.00106934
0.0018072
0.00111064
0.00237394
0.00101835
0.00258951
0.000264929
0.00245861
-0.000366849
0.00225328
-0.000666614
0.00200091
-0.000760805
0.00177773
-0.000677508
0.00159117
-0.000499301
0.00144627
-0.000279256
0.00137389
-5.37289e-05
0.00127509
9.69334e-05
0.00115735
0.000178611
0.00103048
0.000228341
0.000896725
0.000268255
0.000754901
0.00030799
0.000604043
0.000353601
0.000447635
0.000410668
0.000333011
0.000462168
0.000408772
0.000564986
0.000689665
0.000693962
0.00137986
0.00062422
0.00244932
0.00137348
0.00111396
0.00133505
-9.45464e-05
0.00120819
-0.000130482
-0.000659206
-0.000765983
-0.000928041
-0.00199532
-0.000681635
-0.00417565
-0.000427665
-0.00322377
-0.000419377
-0.00132706
-0.000445759
-0.000402962
-0.000435792
-1.42473e-05
-0.000384242
0.000151111
-0.000299097
0.000242579
-0.000184032
0.000316241
-3.81481e-05
0.000389375
0.000142019
0.000469342
0.000362677
0.000557597
0.000638939
0.000643821
0.000995312
0.000712878
0.0014059
0.000699966
0.0018687
0.000555458
0.00202057
0.000112972
0.00191199
-0.000258363
0.00170545
-0.000460169
0.00144559
-0.000501048
0.00118929
-0.00042131
0.00096306
-0.000273183
0.000775697
-9.2003e-05
0.000634456
8.74016e-05
0.000522017
0.00020926
0.000419152
0.000281363
0.000316765
0.000330614
0.000212401
0.000372504
0.000107581
0.000412697
1.03435e-05
0.000450723
-5.75016e-05
0.000478398
-6.26323e-05
0.000467184
7.38681e-05
0.000428373
0.000337241
0.000430477
0.000579666
0.000381684
0.000785779
0.00116726
0.000378795
0.00174192
-0.000301197
0.00188806
-0.000466717
-0.000643516
-0.000172525
-0.00139277
-0.00124614
-0.00115479
-0.00441372
-0.000841654
-0.00353703
-0.000768694
-0.00140015
-0.000763314
-0.000408453
-0.000760579
-1.70894e-05
-0.000726545
0.000116973
-0.00065683
0.000172762
-0.000553243
0.000212552
-0.00041665
0.00025268
-0.000243601
0.000296193
-2.64756e-05
0.000340373
0.00023591
0.000381338
0.000540688
0.000408004
0.000860914
0.000379644
0.00114915
0.000267124
0.00121743
4.45924e-05
0.0011085
-0.000149532
0.000901522
-0.000253299
0.000651708
-0.000251343
0.000402264
-0.000171977
0.000177969
-4.90015e-05
2.54778e-07
8.55969e-05
-0.000116255
0.000203796
-0.000193283
0.000286172
-0.000258731
0.000346695
-0.000322317
0.000394084
-0.000382651
0.000432722
-0.000431843
0.000461772
-0.000456527
0.00047529
-0.000439583
0.000461339
-0.000375445
0.000402929
-0.000266491
0.000319304
-0.000124996
0.000288868
-3.85137e-05
0.000295089
0.000136975
0.000991658
1.57907e-06
0.00187721
-0.000172392
0.00206192
-0.00067173
-0.000364614
0.000138015
-0.00174769
0.000136874
-0.00103893
-0.00512254
-0.000663983
-0.0039121
-0.000754191
-0.00131008
-0.000879329
-0.000283435
-0.000949764
5.32312e-05
-0.000958887
0.000125985
-0.000920759
0.000134523
-0.00084565
0.000137334
-0.000739087
0.000146009
-0.000603229
0.000160227
-0.000439692
0.000176729
-0.000250548
0.000192089
-4.21797e-05
0.00019953
0.000153248
0.000184111
0.00028608
0.000134186
0.000286151
4.44126e-05
0.000170234
-3.37266e-05
-2.12444e-05
-6.19334e-05
-0.00023941
-3.32925e-05
-0.000442922
3.14186e-05
-0.00060216
0.000110119
-0.0007045
0.000187818
-0.000761171
0.000260348
-0.000795797
0.00032068
-0.000819422
0.0003702
-0.000834543
0.000409086
-0.000837037
0.000435097
-0.000818802
0.000443419
-0.000770557
0.000426925
-0.000686833
0.000377497
-0.00057664
0.000292617
-0.000453999
0.000196546
-0.000307967
0.000142719
-0.000192399
0.000179406
0.000152592
0.000646555
0.000495855
0.00153383
0.00124713
0.00131053
0.000389899
4.51001e-05
0.000145258
0.000317606
-0.00529493
4.0429e-05
-0.00363503
-0.000636112
-0.000633691
-0.00102266
0.000102982
-0.00118364
0.000214089
-0.00123396
0.000176192
-0.001228
0.000128444
-0.00118857
9.7789e-05
-0.0011262
8.35171e-05
-0.0010467
8.06118e-05
-0.000954998
8.49147e-05
-0.000856684
9.36603e-05
-0.000760979
0.000103711
-0.000686247
0.000109264
-0.000655869
0.000103693
-0.000694479
8.29055e-05
-0.000793958
6.56337e-05
-0.000925628
6.96172e-05
-0.00105427
9.52296e-05
-0.0011552
0.00013223
-0.00122008
0.000174876
-0.00125246
0.000220074
-0.00125774
0.000265504
-0.00124453
0.000307348
-0.00121725
0.0003428
-0.00117649
0.000368204
-0.00112043
0.000378915
-0.00104643
0.0003693
-0.000952905
0.000333279
-0.000841966
0.000266437
-0.000721265
0.000171796
-0.000592649
6.781e-05
-0.000431988
-1.80622e-05
-0.000246796
-5.90448e-06
0.000141058
0.000258585
0.000761992
0.000912783
0.00136989
0.000702519
0.00155968
0.00294092
-0.00180188
0.000118047
-0.00081225
-0.00106215
0.000546345
-0.00145426
0.000494967
-0.00156653
0.000326226
-0.00159523
0.000204767
-0.001595
0.000128092
-0.00158172
8.4387e-05
-0.00156075
6.24283e-05
-0.00153488
5.46196e-05
-0.00150672
5.66318e-05
-0.00147924
6.6061e-05
-0.00145633
8.06743e-05
-0.00144384
9.66499e-05
-0.00144874
0.000108472
-0.00147811
0.000112156
-0.00152572
0.000113122
-0.00157525
0.00011902
-0.00161186
0.000131717
-0.00162894
0.000149182
-0.00162467
0.000170486
-0.00159982
0.000195099
-0.00155602
0.000221586
-0.00149598
0.000247185
-0.00142196
0.00026865
-0.00133602
0.000282139
-0.00124061
0.000283382
-0.0011393
0.000267868
-0.00103763
0.000231492
-0.000943638
0.000172317
-0.00086583
9.38647e-05
-0.000806957
8.81423e-06
-0.000751506
-7.3634e-05
-0.000682182
-7.53497e-05
-0.000575126
0.00015141
-0.000296343
0.000633882
-0.000104207
0.000510264
0.00141704
-0.00186739
2.43264e-05
-0.00260579
-7.39826e-05
-0.00230966
0.000250086
-0.00211719
0.00030236
-0.00201877
0.000227683
-0.00196899
0.000154857
-0.00194718
0.000106157
-0.00194041
7.74877e-05
-0.00194061
6.25035e-05
-0.00194292
5.6805e-05
-0.00194423
5.78173e-05
-0.00194236
6.40652e-05
-0.0019361
7.42846e-05
-0.00192605
8.64813e-05
-0.0019153
9.75977e-05
-0.00190826
0.000104981
-0.00190488
0.000109621
-0.0019002
0.000114212
-0.00188861
0.000120007
-0.00186662
0.000127065
-0.00183187
0.000135608
-0.00178253
0.000145625
-0.00171743
0.000156368
-0.00163665
0.000166274
-0.00154148
0.000173358
-0.00143481
0.000175342
-0.00132141
0.000169859
-0.00120845
0.000154784
-0.00110605
0.000128969
-0.00102747
9.36042e-05
-0.000987148
5.34222e-05
-0.000993173
1.47161e-05
-0.00106203
-4.90389e-06
-0.00114377
6.26955e-06
-0.00108763
9.51554e-05
-0.000752387
0.000298515
-0.0006723
0.000430055
0.000695627
-0.00381391
-0.0029098
-0.00294846
-0.00308208
-0.00289112
-0.00264807
-0.00247976
-0.00238428
-0.00233752
-0.00231949
-0.00231652
-0.00231934
-0.00232123
-0.00231697
-0.00230254
-0.00227596
-0.00223833
-0.00219342
-0.00214401
-0.00209018
-0.00203073
-0.00196438
-0.00188962
-0.00180493
-0.00170951
-0.00160412
-0.00149149
-0.00137661
-0.00126682
-0.00117159
-0.00110157
-0.00106629
-0.00107065
-0.00111347
-0.00117598
-0.00122756
-0.00118987
-0.00094743
-0.000572762
)
;

boundaryField
{
    floor
    {
        type            calculated;
        value           nonuniform List<scalar> 
29
(
0
0
0
0
0
0
0
0
0
0
0
0
0
0
0
0
0
0
0
0
7.13696e-06
1.86481e-05
2.84642e-05
3.6092e-05
3.67745e-06
5.01438e-06
1.10065e-05
1.81683e-05
2.4437e-05
)
;
    }
    ceiling
    {
        type            calculated;
        value           nonuniform List<scalar> 
43
(
7.32734e-05
6.98441e-05
6.28509e-05
5.95131e-05
5.89979e-05
5.9175e-05
5.92457e-05
5.92494e-05
5.92692e-05
5.93232e-05
5.94034e-05
5.94963e-05
5.95882e-05
5.96672e-05
5.97281e-05
5.97783e-05
5.984e-05
5.99385e-05
6.00808e-05
6.02523e-05
6.04296e-05
6.05915e-05
6.07208e-05
6.08025e-05
6.08214e-05
6.07609e-05
6.06035e-05
6.03331e-05
5.99399e-05
5.94274e-05
5.88235e-05
5.8195e-05
5.76657e-05
5.74104e-05
5.74811e-05
5.77249e-05
5.73361e-05
5.59545e-05
5.5263e-05
6.07732e-05
3.48454e-05
3.66635e-05
4.1058e-05
)
;
    }
    sWall
    {
        type            calculated;
        value           uniform 5.16067e-05;
    }
    nWall
    {
        type            calculated;
        value           nonuniform List<scalar> 6(3.56055e-05 3.49158e-05 3.24987e-05 3.83166e-05 4.89855e-05 6.19669e-05);
    }
    sideWalls
    {
        type            empty;
        value           nonuniform 0();
    }
    glass1
    {
        type            calculated;
        value           nonuniform List<scalar> 9(4.7484e-06 1.36206e-05 2.20701e-05 3.02018e-05 3.78107e-05 4.46235e-05 4.99898e-05 5.40129e-05 5.80121e-05);
    }
    glass2
    {
        type            calculated;
        value           nonuniform List<scalar> 2(0.000185375 0.000199981);
    }
    sun
    {
        type            calculated;
        value           uniform 0;
    }
    heatsource1
    {
        type            calculated;
        value           nonuniform List<scalar> 3(2.05418e-07 2.05839e-07 2.05965e-07);
    }
    heatsource2
    {
        type            calculated;
        value           nonuniform List<scalar> 4(5.15919e-08 5.17412e-08 0 0);
    }
    Table_master
    {
        type            calculated;
        value           nonuniform List<scalar> 9(-1.54482e-07 -1.54577e-07 -1.54601e-07 -1.54612e-07 -1.54614e-07 -1.54611e-07 -1.546e-07 -1.54568e-07 -1.545e-07);
    }
    Table_slave
    {
        type            calculated;
        value           nonuniform List<scalar> 9(1.54269e-07 1.54295e-07 1.54276e-07 1.54277e-07 1.54292e-07 1.54317e-07 1.54353e-07 1.544e-07 1.54465e-07);
    }
    inlet
    {
        type            calculated;
        value           uniform -0.006434;
    }
    outlet
    {
        type            calculated;
        value           nonuniform List<scalar> 2(0.0036889 -0.000974089);
    }
}


// ************************************************************************* //
