// -*- C++ -*-
// File generated by PyFoam - sorry for the ugliness

FoamFile
{
 version 2.0;
 format ascii;
 class volScalarField;
 location "380";
 object T;
}

dimensions [ 0 0 0 1 0 0 0 ];

internalField nonuniform List<scalar> 459
(
  301.05
  301.073
  301.107
  301.144
  301.171
  301.189
  301.201
  301.21
  301.218
  301.226
  301.234
  301.241
  301.248
  301.255
  301.255
  301.722
  301.695
  301.671
  301.679
  301.696
  301.712
  301.726
  301.738
  301.751
  301.763
  301.774
  301.786
  301.798
  301.81
  301.822
  301.834
  301.848
  301.868
  301.91
  301.054
  301.088
  301.138
  301.226
  301.289
  301.327
  301.346
  301.358
  301.364
  301.366
  301.365
  301.358
  301.347
  301.329
  301.303
  301.313
  301.332
  301.696
  301.646
  301.637
  301.658
  301.689
  301.718
  301.738
  301.757
  301.776
  301.794
  301.812
  301.83
  301.847
  301.864
  301.878
  301.888
  301.896
  301.902
  301.939
  301.045
  301.08
  301.151
  301.329
  301.444
  301.501
  301.523
  301.528
  301.521
  301.507
  301.487
  301.464
  301.436
  301.403
  301.366
  301.352
  301.351
  301.583
  301.554
  301.59
  301.642
  301.695
  301.737
  301.752
  301.77
  301.789
  301.809
  301.831
  301.852
  301.874
  301.894
  301.911
  301.923
  301.929
  301.93
  301.956
  301.032
  301.062
  301.151
  301.453
  301.631
  301.7
  301.712
  301.694
  301.662
  301.625
  301.588
  301.55
  301.51
  301.469
  301.425
  301.395
  301.377
  301.39
  301.436
  301.5
  301.586
  301.673
  301.748
  301.804
  301.848
  301.883
  301.915
  301.947
  301.978
  302.009
  302.04
  302.073
  302.105
  302.033
  301.991
  301.968
  301.975
  301.016
  301.04
  301.131
  301.55
  301.801
  301.869
  301.856
  301.809
  301.758
  301.711
  301.665
  301.621
  301.576
  301.531
  301.486
  301.452
  301.432
  301.45
  301.509
  301.598
  301.698
  301.792
  301.87
  301.93
  301.979
  302.019
  302.051
  302.078
  302.102
  302.124
  302.145
  302.163
  302.173
  302.115
  302.052
  302.014
  301.998
  302.014
  302.09
  302.367
  300.992
  301.004
  301.098
  301.559
  301.905
  301.971
  301.942
  301.892
  301.84
  301.792
  301.746
  301.699
  301.654
  301.61
  301.57
  301.544
  301.54
  301.587
  301.674
  301.775
  301.874
  301.96
  302.027
  302.076
  302.115
  302.144
  302.165
  302.184
  302.201
  302.216
  302.228
  302.236
  302.23
  302.179
  302.117
  302.085
  302.043
  302.046
  302.145
  302.329
  300.952
  300.938
  300.992
  301.505
  301.952
  302.046
  302.026
  301.982
  301.937
  301.894
  301.854
  301.814
  301.775
  301.738
  301.712
  301.707
  301.734
  301.808
  301.9
  301.992
  302.074
  302.139
  302.186
  302.22
  302.242
  302.255
  302.266
  302.276
  302.286
  302.294
  302.298
  302.296
  302.281
  302.245
  302.201
  302.162
  302.083
  302.08
  302.18
  302.317
  300.902
  300.849
  300.821
  301.381
  301.978
  302.122
  302.129
  302.101
  302.068
  302.037
  302.008
  301.98
  301.955
  301.936
  301.929
  301.946
  301.992
  302.066
  302.139
  302.206
  302.263
  302.303
  302.329
  302.341
  302.346
  302.35
  302.354
  302.359
  302.363
  302.365
  302.363
  302.356
  302.341
  302.316
  302.281
  302.231
  302.145
  302.122
  302.196
  302.321
  300.872
  300.818
  300.671
  301.237
  302.006
  302.205
  302.245
  302.238
  302.224
  302.21
  302.196
  302.184
  302.176
  302.174
  302.184
  302.208
  302.25
  302.302
  302.35
  302.388
  302.415
  302.431
  302.437
  302.438
  302.437
  302.436
  302.435
  302.434
  302.433
  302.429
  302.424
  302.414
  302.399
  302.377
  302.347
  302.302
  302.231
  302.187
  302.233
  302.336
  300.633
  301.202
  302.093
  302.306
  302.354
  302.364
  302.365
  302.365
  302.364
  302.365
  302.368
  302.376
  302.39
  302.411
  302.437
  302.465
  302.488
  302.504
  302.513
  302.516
  302.515
  302.511
  302.507
  302.502
  302.497
  302.491
  302.485
  302.477
  302.467
  302.453
  302.436
  302.413
  302.385
  302.35
  302.305
  302.27
  302.291
  302.338
  302.143
  302.211
  302.323
  302.406
  302.441
  302.455
  302.463
  302.468
  302.474
  302.48
  302.488
  302.498
  302.51
  302.524
  302.539
  302.551
  302.561
  302.566
  302.567
  302.564
  302.56
  302.554
  302.548
  302.541
  302.533
  302.525
  302.515
  302.503
  302.49
  302.473
  302.453
  302.43
  302.405
  302.378
  302.353
  302.334
  302.343
  302.357
  302.46
  302.445
  302.43
  302.443
  302.468
  302.495
  302.512
  302.523
  302.531
  302.539
  302.546
  302.554
  302.562
  302.57
  302.577
  302.584
  302.59
  302.593
  302.594
  302.593
  302.589
  302.584
  302.578
  302.571
  302.563
  302.555
  302.545
  302.535
  302.522
  302.508
  302.491
  302.472
  302.451
  302.429
  302.408
  302.391
  302.378
  302.371
  302.374
  302.382
)
;

boundaryField
{
  floor
  {
    type wallHeatTransfer;
    Tinf uniform 297.948;
    alphaWall uniform 0.24;
    value nonuniform List<scalar> 29
(
  300.772
  301.064
  301.155
  301.15
  301.155
  301.156
  301.15
  301.137
  301.12
  301.103
  301.086
  301.071
  301.057
  301.043
  301.03
  301.017
  301.003
  300.987
  300.956
  300.974
  300.974
  301.121
  301.206
  301.294
  300.772
  301.064
  301.214
  301.105
  300.856
)
;
  }
  ceiling
  {
    type wallHeatTransfer;
    Tinf uniform 297.948;
    alphaWall uniform 0.24;
    value nonuniform List<scalar> 43
(
  302.05
  302.055
  302.078
  302.109
  302.137
  302.163
  302.179
  302.19
  302.199
  302.206
  302.213
  302.22
  302.228
  302.235
  302.243
  302.249
  302.254
  302.257
  302.257
  302.255
  302.25
  302.244
  302.238
  302.23
  302.223
  302.215
  302.206
  302.197
  302.187
  302.176
  302.162
  302.146
  302.128
  302.108
  302.087
  302.068
  302.057
  302.058
  302.065
  302.043
  300.615
  300.548
  301.884
)
;
  }
  sWall
  {
    type wallHeatTransfer;
    Tinf uniform 300.167;
    alphaWall uniform 0.36;
    value uniform 302.161;
  }
  nWall
  {
    type wallHeatTransfer;
    Tinf uniform 299.15;
    alphaWall uniform 0.36;
    value nonuniform List<scalar> 6
(
  301.845
  301.91
  301.986
  302.07
  302.047
  302.025
)
;
  }
  sideWalls
  {
    type empty;
  }
  glass1
  {
    type wallHeatTransfer;
    Tinf uniform 300.167;
    alphaWall uniform 4.3;
    value nonuniform List<scalar> 9
(
  300.428
  300.458
  300.465
  300.466
  300.465
  300.459
  300.448
  300.431
  300.426
)
;
  }
  glass2
  {
    type wallHeatTransfer;
    Tinf uniform 299.15;
    alphaWall uniform 4.3;
    value nonuniform List<scalar> 2
(
  300.696
  300.786
)
;
  }
  sun
  {
    type wallHeatTransfer;
    Tinf uniform 297.948;
    alphaWall uniform 0.24;
    value nonuniform List<scalar> 14
(
  300.685
  300.759
  300.797
  300.823
  300.837
  300.842
  300.842
  300.839
  300.836
  300.833
  300.828
  300.822
  300.813
  300.798
)
;
  }
  heatsource1
  {
    type fixedGradient;
    gradient uniform 0;
  }
  heatsource2
  {
    type fixedGradient;
    gradient uniform 0;
  }
  Table_master
  {
    type zeroGradient;
  }
  Table_slave
  {
    type zeroGradient;
  }
  inlet
  {
    type fixedValue;
    value uniform 300.15;
  }
  outlet
  {
    type zeroGradient;
  }
} 	// ************************************************************************* //

