/*--------------------------------*- C++ -*----------------------------------*\
  =========                 |
  \\      /  F ield         | OpenFOAM: The Open Source CFD Toolbox
   \\    /   O peration     | Website:  https://openfoam.org
    \\  /    A nd           | Version:  6
     \\/     M anipulation  |
\*---------------------------------------------------------------------------*/
FoamFile
{
    version     2.0;
    format      ascii;
    class       volScalarField;
    location    "20";
    object      nut;
}
// * * * * * * * * * * * * * * * * * * * * * * * * * * * * * * * * * * * * * //

dimensions      [0 2 -1 0 0 0 0];

internalField   nonuniform List<scalar> 
459
(
0.00141689
0.00189926
0.00218126
0.0021389
0.0020678
0.00198704
0.00190095
0.00180863
0.0017203
0.0016339
0.00154445
0.00144949
0.00134879
0.00124093
0.00112939
0.000852687
0.0010094
0.00107814
0.00110364
0.00108193
0.00098956
0.000813879
0.000696437
0.000642662
0.000623916
0.000618763
0.000618517
0.000622439
0.000636941
0.000680603
0.000778213
0.000835702
0.000858227
0.000815834
0.00165788
0.00663536
0.00738833
0.00814045
0.00841678
0.00838249
0.00818751
0.00788135
0.00732703
0.00660356
0.00585233
0.00514444
0.00449791
0.00383679
0.00298789
0.00133719
0.00106044
0.00118802
0.00507047
0.00624865
0.00677493
0.00643171
0.0051591
0.00291069
0.00212506
0.00177236
0.00163585
0.00159379
0.00159104
0.00161922
0.00171137
0.00199473
0.00301154
0.00358097
0.00367877
0.00106127
0.00174712
0.00724653
0.00728543
0.00896344
0.0102271
0.0110044
0.0114228
0.0115423
0.0112133
0.010501
0.00958647
0.00864981
0.00780298
0.00702124
0.0060499
0.00402542
0.00132064
0.00145849
0.00714051
0.00958583
0.0103655
0.00958846
0.0068786
0.00116349
0.000782033
0.000658792
0.000626918
0.000619752
0.000619537
0.000626771
0.000667947
0.000877632
0.00399793
0.00527994
0.00508104
0.00126998
0.00179217
0.00700424
0.00640661
0.00922814
0.011444
0.0129582
0.0138943
0.0143215
0.0141514
0.0135318
0.0126763
0.0117999
0.0110296
0.0103154
0.00931082
0.0072806
0.00421621
0.00160742
0.00523442
0.00934175
0.0121171
0.0129913
0.0120346
0.00849893
0.00152392
0.00134311
0.00129265
0.00127078
0.00125944
0.0012544
0.00125498
0.00126616
0.00133988
0.00528954
0.00705777
0.00626911
0.00143689
0.0018169
0.00651839
0.00560961
0.00986494
0.0129641
0.0150721
0.0163246
0.0168181
0.0166571
0.0161198
0.0154253
0.0147476
0.0141582
0.0135601
0.0126465
0.0110213
0.00889308
0.0078342
0.010167
0.0129571
0.0148029
0.0154123
0.0147802
0.0128062
0.00963228
0.00894837
0.00866137
0.00849662
0.0083906
0.00832021
0.00827584
0.00826568
0.0083873
0.00964229
0.00981985
0.00822619
0.00413979
0.00120729
0.00108926
0.00116973
0.00176587
0.00585123
0.00490884
0.0105209
0.0143773
0.0169675
0.0184314
0.0189273
0.0188
0.0184102
0.0179373
0.0174831
0.0170605
0.0165644
0.0158039
0.0146637
0.0134718
0.0131862
0.0144381
0.0159342
0.0169402
0.0172489
0.0168476
0.0158114
0.0144451
0.0137053
0.0132841
0.0130201
0.0128417
0.0127134
0.0126156
0.012542
0.0125125
0.0125829
0.0120496
0.0103509
0.00716113
0.00432283
0.00371619
0.00151436
0.00171906
0.00497589
0.00427151
0.0106258
0.0150173
0.0179191
0.019638
0.0203161
0.0203917
0.0202334
0.0199897
0.0197126
0.0193891
0.0189501
0.0183151
0.0174914
0.016764
0.0165838
0.0170412
0.0176265
0.0180026
0.0180463
0.0177412
0.0171455
0.0164276
0.0158686
0.0154709
0.0151885
0.0149818
0.0148215
0.0146842
0.0145484
0.0143838
0.0141065
0.0134206
0.0120054
0.00968253
0.00715175
0.00626078
0.00189242
0.00166201
0.0041799
0.00343318
0.010054
0.0148701
0.0179196
0.019833
0.0207213
0.021048
0.0211325
0.0210806
0.020915
0.0206231
0.020178
0.0195714
0.0188593
0.0182058
0.0178136
0.0176961
0.0176768
0.0176207
0.0174607
0.0171749
0.0167822
0.0163452
0.0159525
0.0156332
0.0153832
0.0151863
0.0150235
0.0148734
0.0147124
0.0145055
0.0141795
0.0135932
0.0125509
0.0108124
0.00855783
0.00819009
0.00237364
0.00147366
0.00152517
0.00245792
0.00875094
0.0138819
0.0167627
0.0186652
0.0196598
0.0201945
0.0204734
0.0205503
0.020433
0.0201202
0.0196191
0.0189594
0.0182036
0.0174491
0.0167953
0.0163047
0.0159442
0.0156558
0.0153941
0.015129
0.0148505
0.0145696
0.0143092
0.014083
0.0138934
0.0137346
0.0135962
0.0134648
0.0133227
0.0131447
0.0128943
0.0125122
0.0119023
0.0108958
0.00942281
0.00902121
0.00251445
0.00142557
0.00699895
0.0119975
0.0142072
0.0157629
0.0167036
0.0173321
0.0177051
0.0178368
0.0177314
0.0174022
0.0168791
0.0162106
0.0154607
0.0147046
0.0140226
0.0134847
0.0131055
0.0128317
0.0126218
0.0124446
0.012282
0.0121283
0.0119859
0.0118587
0.0117487
0.0116543
0.0115709
0.0114913
0.011407
0.0113067
0.0111752
0.0109917
0.0107161
0.0102693
0.00961717
0.00864458
0.00206902
0.00246165
0.00859699
0.0105034
0.0112466
0.0116122
0.0118301
0.0120228
0.0121659
0.0122261
0.0121873
0.0120547
0.0118519
0.0116141
0.0113807
0.0111864
0.0110504
0.010965
0.0109194
0.0108933
0.0108716
0.0108447
0.0108092
0.0107669
0.0107227
0.0106815
0.010647
0.0106204
0.0106004
0.0105827
0.0105609
0.0105289
0.0104799
0.0104027
0.0102776
0.0100611
0.00968485
0.00793586
0.00191643
0.00146119
0.00159013
0.00182619
0.00199895
0.00203439
0.00203244
0.00204513
0.00207004
0.0020904
0.0021059
0.00211649
0.00212286
0.00212638
0.00212878
0.00213154
0.00213551
0.00214045
0.00214431
0.0021474
0.00215047
0.0021523
0.00215335
0.00215376
0.00215364
0.00215314
0.00215246
0.0021518
0.00215131
0.00215102
0.0021508
0.00215045
0.00214953
0.0021476
0.00214468
0.00214123
0.00213944
0.00214821
0.00214773
0.00204613
0.00166016
)
;

boundaryField
{
    floor
    {
        type            nutkWallFunction;
        Cmu             0.09;
        kappa           0.41;
        E               9.8;
        value           nonuniform List<scalar> 
29
(
0.000135932
0.000103306
0.00012196
0.000130048
0.00013303
0.000130493
0.000119643
9.86774e-05
8.4376e-05
7.77388e-05
7.54115e-05
7.47707e-05
7.47405e-05
7.52296e-05
7.70348e-05
8.24404e-05
9.43761e-05
0.000101306
0.000103977
9.88591e-05
9.88592e-05
0.000127999
0.000152179
0.000171206
0.000135932
0.000103306
0.000142768
0.000173691
0.000190521
)
;
    }
    ceiling
    {
        type            nutkWallFunction;
        Cmu             0.09;
        kappa           0.41;
        E               9.8;
        value           nonuniform List<scalar> 
43
(
0.000173871
0.000188361
0.000214561
0.000233511
0.000237396
0.000237208
0.000238618
0.000241338
0.000243554
0.000245236
0.000246381
0.000247064
0.000247439
0.000247692
0.000247985
0.000248408
0.000248936
0.000249345
0.000249672
0.00025
0.000250194
0.000250305
0.000250347
0.000250333
0.000250277
0.000250203
0.00025013
0.000250076
0.000250043
0.000250019
0.00024998
0.00024988
0.00024967
0.000249354
0.00024898
0.000248784
0.000249734
0.00024968
0.00023865
0.000196173
0.000175145
0.00018097
0.00028334
)
;
    }
    sWall
    {
        type            nutkWallFunction;
        Cmu             0.09;
        kappa           0.41;
        E               9.8;
        value           uniform 0.000173884;
    }
    nWall
    {
        type            nutkWallFunction;
        Cmu             0.09;
        kappa           0.41;
        E               9.8;
        value           nonuniform List<scalar> 6(0.000140608 0.000179907 0.000221894 0.000241162 0.0002245 0.000196184);
    }
    sideWalls
    {
        type            empty;
    }
    glass1
    {
        type            nutkWallFunction;
        Cmu             0.09;
        kappa           0.41;
        E               9.8;
        value           nonuniform List<scalar> 9(0.000168607 0.000195735 0.000205648 0.00021064 0.000213404 0.000207836 0.000202656 0.000196287 0.000175177);
    }
    glass2
    {
        type            nutkWallFunction;
        Cmu             0.09;
        kappa           0.41;
        E               9.8;
        value           nonuniform List<scalar> 2(0.000274006 0.000289036);
    }
    sun
    {
        type            nutkWallFunction;
        Cmu             0.09;
        kappa           0.41;
        E               9.8;
        value           nonuniform List<scalar> 
14
(
0.000168592
0.000222411
0.000253126
0.000248567
0.000240858
0.000232053
0.000222612
0.000212435
0.000202663
0.000193051
0.000183048
0.000172377
0.000161002
0.000148737
)
;
    }
    heatsource1
    {
        type            nutkWallFunction;
        Cmu             0.09;
        kappa           0.41;
        E               9.8;
        value           nonuniform List<scalar> 3(0.000145006 0.000131287 0.000140613);
    }
    heatsource2
    {
        type            nutkWallFunction;
        Cmu             0.09;
        kappa           0.41;
        E               9.8;
        value           nonuniform List<scalar> 4(0.000159992 0.000127902 0.000127902 0.000158118);
    }
    Table_master
    {
        type            nutkWallFunction;
        Cmu             0.09;
        kappa           0.41;
        E               9.8;
        value           nonuniform List<scalar> 9(0.000139991 9.48223e-05 7.97286e-05 7.57756e-05 7.48843e-05 7.48579e-05 7.57597e-05 8.08706e-05 0.00010637);
    }
    Table_slave
    {
        type            nutkWallFunction;
        Cmu             0.09;
        kappa           0.41;
        E               9.8;
        value           nonuniform List<scalar> 9(0.000181125 0.000160645 0.000154878 0.000152371 0.000151069 0.000150489 0.000150555 0.000151838 0.000160279);
    }
    inlet
    {
        type            calculated;
        value           uniform 0.000100623;
    }
    outlet
    {
        type            calculated;
        value           nonuniform List<scalar> 2(0.00146119 0.00159013);
    }
}


// ************************************************************************* //
