// -*- C++ -*-
// File generated by PyFoam - sorry for the ugliness

FoamFile
{
 version 2.0;
 format ascii;
 class volScalarField;
 location "20";
 object T;
}

dimensions [ 0 0 0 1 0 0 0 ];

internalField nonuniform List<scalar> 459
(
  306.079
  305.399
  304.709
  304.799
  304.939
  305.1
  305.277
  305.473
  305.682
  305.905
  306.138
  306.373
  306.595
  306.779
  306.89
  306.913
  306.96
  306.983
  306.993
  306.995
  306.991
  306.981
  306.974
  306.971
  306.97
  306.97
  306.97
  306.97
  306.97
  306.972
  306.974
  306.966
  306.948
  306.925
  305.921
  304.883
  304.371
  304.516
  304.718
  304.921
  305.128
  305.351
  305.602
  305.872
  306.148
  306.411
  306.637
  306.808
  306.909
  306.972
  307.026
  306.992
  307.015
  307.024
  307.03
  307.032
  307.033
  307.032
  307.032
  307.033
  307.034
  307.034
  307.034
  307.034
  307.032
  307.027
  307.023
  307.017
  307.01
  306.993
  305.745
  304.534
  304.105
  304.449
  304.76
  305.008
  305.231
  305.461
  305.716
  305.986
  306.254
  306.499
  306.7
  306.844
  306.932
  306.985
  307.024
  307.021
  307.035
  307.04
  307.042
  307.044
  307.046
  307.047
  307.05
  307.051
  307.052
  307.052
  307.052
  307.052
  307.051
  307.046
  307.042
  307.038
  307.032
  307.018
  305.524
  304.322
  303.912
  304.555
  304.987
  305.266
  305.483
  305.698
  305.928
  306.167
  306.399
  306.605
  306.769
  306.883
  306.953
  306.996
  307.023
  307.031
  307.039
  307.044
  307.047
  307.049
  307.05
  307.052
  307.056
  307.058
  307.059
  307.059
  307.059
  307.059
  307.059
  307.059
  307.056
  307.052
  307.048
  307.044
  307.032
  305.291
  304.22
  303.761
  304.774
  305.306
  305.593
  305.79
  305.973
  306.162
  306.357
  306.544
  306.706
  306.831
  306.918
  306.972
  307.005
  307.026
  307.037
  307.044
  307.048
  307.05
  307.052
  307.053
  307.055
  307.056
  307.058
  307.058
  307.058
  307.059
  307.058
  307.058
  307.058
  307.056
  307.054
  307.052
  307.049
  307.044
  307.047
  307.047
  307.047
  305.133
  304.198
  303.611
  305.011
  305.617
  305.9
  306.074
  306.223
  306.372
  306.523
  306.666
  306.787
  306.88
  306.945
  306.987
  307.013
  307.03
  307.04
  307.046
  307.05
  307.052
  307.053
  307.054
  307.055
  307.056
  307.057
  307.058
  307.058
  307.058
  307.058
  307.058
  307.057
  307.056
  307.055
  307.054
  307.052
  307.049
  307.05
  307.051
  307.054
  305.023
  304.275
  303.423
  305.167
  305.852
  306.138
  306.298
  306.422
  306.538
  306.653
  306.759
  306.848
  306.917
  306.966
  306.999
  307.02
  307.034
  307.042
  307.047
  307.05
  307.052
  307.054
  307.055
  307.055
  307.056
  307.056
  307.057
  307.057
  307.057
  307.057
  307.057
  307.056
  307.056
  307.055
  307.054
  307.053
  307.052
  307.052
  307.054
  307.061
  304.98
  304.395
  303.083
  305.229
  306.027
  306.322
  306.47
  306.574
  306.665
  306.751
  306.829
  306.895
  306.946
  306.983
  307.008
  307.025
  307.036
  307.044
  307.048
  307.051
  307.052
  307.053
  307.054
  307.055
  307.055
  307.055
  307.056
  307.056
  307.056
  307.056
  307.056
  307.055
  307.055
  307.054
  307.054
  307.053
  307.053
  307.053
  307.056
  307.072
  305.062
  304.617
  302.561
  305.197
  306.172
  306.472
  306.606
  306.692
  306.762
  306.827
  306.884
  306.931
  306.969
  306.997
  307.016
  307.03
  307.039
  307.045
  307.048
  307.05
  307.052
  307.053
  307.053
  307.054
  307.054
  307.054
  307.054
  307.054
  307.054
  307.054
  307.054
  307.054
  307.053
  307.053
  307.053
  307.052
  307.052
  307.053
  307.056
  307.072
  301.874
  305.047
  306.329
  306.61
  306.72
  306.785
  306.838
  306.885
  306.926
  306.961
  306.988
  307.008
  307.023
  307.034
  307.04
  307.045
  307.048
  307.049
  307.05
  307.051
  307.051
  307.051
  307.051
  307.052
  307.052
  307.052
  307.052
  307.052
  307.051
  307.051
  307.051
  307.051
  307.05
  307.05
  307.05
  307.05
  307.052
  307.057
  306.004
  306.347
  306.623
  306.749
  306.816
  306.861
  306.898
  306.932
  306.961
  306.985
  307.004
  307.018
  307.029
  307.036
  307.041
  307.044
  307.045
  307.046
  307.047
  307.047
  307.047
  307.047
  307.047
  307.047
  307.047
  307.047
  307.047
  307.047
  307.047
  307.047
  307.047
  307.046
  307.046
  307.045
  307.045
  307.045
  307.047
  307.049
  306.578
  306.606
  306.642
  306.725
  306.812
  306.865
  306.899
  306.926
  306.949
  306.97
  306.987
  307.002
  307.013
  307.022
  307.027
  307.031
  307.033
  307.034
  307.034
  307.034
  307.034
  307.034
  307.034
  307.034
  307.034
  307.034
  307.034
  307.034
  307.033
  307.033
  307.033
  307.033
  307.032
  307.032
  307.031
  307.03
  307.029
  307.028
  307.029
  307.031
)
;

boundaryField
{
  floor
  {
    type wallHeatTransfer;
    Tinf uniform 300.34999999999997;
    alphaWall uniform 0.24;
    value nonuniform List<scalar> 29
(
  306.219
  306.082
  306.221
  306.278
  306.299
  306.29
  306.238
  306.113
  306.005
  305.946
  305.924
  305.918
  305.918
  305.922
  305.939
  305.987
  306.079
  306.117
  306.116
  306.065
  306.065
  306.278
  306.392
  306.462
  306.219
  306.082
  306.335
  306.459
  306.509
)
;
  }
  ceiling
  {
    type wallHeatTransfer;
    Tinf uniform 300.34999999999997;
    alphaWall uniform 0.24;
    value nonuniform List<scalar> 43
(
  306.053
  306.113
  306.198
  306.306
  306.393
  306.443
  306.477
  306.506
  306.531
  306.553
  306.571
  306.586
  306.597
  306.605
  306.611
  306.615
  306.618
  306.619
  306.62
  306.62
  306.621
  306.621
  306.62
  306.62
  306.62
  306.62
  306.62
  306.62
  306.62
  306.619
  306.619
  306.619
  306.618
  306.617
  306.616
  306.615
  306.615
  306.614
  306.598
  306.521
  304.669
  304.27
  305.691
)
;
  }
  sWall
  {
    type wallHeatTransfer;
    Tinf uniform 306.15831790123457;
    alphaWall uniform 0.36;
    value uniform 306.526;
  }
  nWall
  {
    type wallHeatTransfer;
    Tinf uniform 305.15;
    alphaWall uniform 0.36;
    value nonuniform List<scalar> 6
(
  306.775
  306.829
  306.871
  306.88
  306.862
  306.823
)
;
  }
  sideWalls
  {
    type empty;
  }
  glass1
  {
    type wallHeatTransfer;
    Tinf uniform 306.15831790123457;
    alphaWall uniform 4.3;
    value nonuniform List<scalar> 9
(
  306.127
  306.061
  305.985
  305.89
  305.789
  305.728
  305.689
  305.68
  305.74
)
;
  }
  glass2
  {
    type wallHeatTransfer;
    Tinf uniform 305.15;
    alphaWall uniform 4.3;
    value nonuniform List<scalar> 2
(
  306.072
  306.096
)
;
  }
  sun
  {
    type wallHeatTransfer;
    Tinf uniform 300.34999999999997;
    alphaWall uniform 0.24;
    value nonuniform List<scalar> 14
(
  305.588
  305.057
  304.445
  304.526
  304.65
  304.79
  304.944
  305.112
  305.291
  305.48
  305.675
  305.866
  306.037
  306.165
)
;
  }
  heatsource1
  {
    type fixedGradient;
    gradient uniform 0;
  }
  heatsource2
  {
    type fixedGradient;
    gradient uniform 0;
  }
  Table_master
  {
    type zeroGradient;
  }
  Table_slave
  {
    type zeroGradient;
  }
  inlet
  {
    type fixedValue;
    value uniform 300.15;
  }
  outlet
  {
    type zeroGradient;
  }
} 	// ************************************************************************* //

