/*--------------------------------*- C++ -*----------------------------------*\
  =========                 |
  \\      /  F ield         | OpenFOAM: The Open Source CFD Toolbox
   \\    /   O peration     | Website:  https://openfoam.org
    \\  /    A nd           | Version:  6
     \\/     M anipulation  |
\*---------------------------------------------------------------------------*/
FoamFile
{
    version     2.0;
    format      ascii;
    class       volScalarField;
    location    "700";
    object      nut;
}
// * * * * * * * * * * * * * * * * * * * * * * * * * * * * * * * * * * * * * //

dimensions      [0 2 -1 0 0 0 0];

internalField   nonuniform List<scalar> 
459
(
0.0010751
0.00117413
0.00119534
0.00125257
0.00130548
0.00135489
0.00140316
0.00145099
0.00148515
0.00150028
0.00149126
0.00145485
0.00139093
0.00130535
0.00121214
0.000471574
0.000577889
0.00064835
0.000642104
0.000618818
0.000589063
0.000552651
0.000516828
0.000484348
0.000455497
0.000429931
0.000407197
0.000386979
0.000368799
0.000352015
0.000335781
0.000318849
0.000306885
0.000279699
0.00146726
0.00357879
0.00342274
0.00398423
0.00453406
0.00508482
0.00557396
0.00593784
0.00626747
0.00653627
0.00670589
0.00673138
0.00654483
0.00597838
0.00444053
0.00123259
0.000738621
0.000512627
0.00106653
0.00146539
0.00174743
0.00189367
0.0018848
0.00152505
0.00131901
0.00117048
0.00105581
0.000964243
0.000889533
0.000824723
0.000764411
0.00070617
0.000654644
0.000609472
0.000712965
0.000366718
0.00179376
0.00488939
0.00424623
0.00534322
0.00588833
0.00629098
0.00660171
0.00684335
0.00710512
0.00737924
0.0076337
0.00781988
0.00788473
0.007755
0.00723498
0.00559562
0.00121597
0.00102843
0.00146462
0.00186218
0.00221112
0.00244315
0.00237122
0.00079124
0.000699295
0.000625466
0.000565888
0.000517336
0.000477344
0.000444141
0.00041659
0.000394204
0.000424508
0.000489703
0.00079873
0.000424405
0.00210728
0.00625587
0.00425552
0.00566448
0.00615613
0.00632139
0.00642023
0.00653494
0.00673705
0.00701352
0.00733314
0.00763402
0.00786149
0.00795985
0.00785207
0.00729948
0.00543446
0.00146288
0.0018144
0.00233369
0.00282296
0.00320026
0.00342296
0.00319844
0.000891994
0.00081265
0.000755907
0.00071272
0.000676064
0.000642379
0.000610106
0.000576302
0.000537114
0.000503655
0.000513377
0.000910158
0.000468933
0.00242696
0.00801055
0.00467949
0.0054454
0.00610538
0.00615522
0.00609384
0.00614104
0.00631864
0.00659754
0.00695716
0.0073118
0.00758735
0.00772083
0.00768849
0.00744894
0.00684166
0.00564309
0.00522726
0.00508042
0.00501953
0.00497616
0.00491044
0.00471438
0.00398274
0.00363196
0.00342764
0.00326937
0.0031026
0.00286365
0.00254013
0.00214708
0.00171013
0.00126819
0.000934477
0.000933135
0.000625659
0.000579661
0.000701596
0.000786844
0.00276568
0.00991986
0.00644867
0.00539923
0.00589286
0.0061173
0.00598016
0.00602768
0.00616352
0.00641451
0.00677307
0.00716059
0.00746519
0.00759637
0.00752819
0.00730255
0.00699591
0.00667217
0.00648461
0.00634518
0.00619164
0.00602018
0.0058311
0.0055995
0.00526571
0.0049688
0.00470599
0.00445467
0.00419983
0.00392485
0.00357794
0.00314516
0.00262628
0.00204996
0.00153753
0.00114631
0.000866638
0.000739293
0.00105606
0.00082017
0.00307429
0.0112593
0.00905014
0.00695738
0.00656785
0.00651055
0.00630752
0.00616804
0.00620165
0.00644018
0.00683457
0.00726597
0.00758847
0.00769416
0.00756423
0.00728718
0.00703143
0.00692286
0.00691399
0.00684174
0.00665299
0.0063788
0.00605166
0.005693
0.00532325
0.00498545
0.00467852
0.00439381
0.0041312
0.00389689
0.00369046
0.00340359
0.00299806
0.00250184
0.00202301
0.00159106
0.00127595
0.0011777
0.00120361
0.00092985
0.00313426
0.010035
0.00890673
0.00821334
0.0076326
0.00694829
0.00638904
0.00614658
0.00625146
0.00663568
0.00716345
0.00765917
0.00795326
0.00795548
0.00769452
0.00732661
0.00707957
0.00704893
0.00704989
0.00682903
0.00643906
0.00595933
0.00545782
0.00499051
0.00458982
0.00425795
0.00397874
0.00374407
0.00355667
0.00342415
0.00335373
0.00332001
0.00311239
0.00279048
0.0025041
0.00235334
0.00243795
0.0028149
0.00348172
0.00145667
0.00305107
0.00361888
0.00402096
0.00412953
0.0042057
0.00441581
0.00485334
0.00553394
0.00638298
0.00725366
0.0079842
0.00842341
0.00846333
0.00813173
0.00760188
0.00719323
0.00697464
0.00679709
0.00650114
0.0060229
0.00543459
0.0048357
0.00430449
0.00387491
0.00354065
0.00327681
0.00306086
0.00287986
0.00272569
0.00259032
0.00246519
0.00234895
0.00225642
0.00218784
0.00216232
0.00217361
0.00216487
0.0020828
0.00195018
0.00137092
0.00149884
0.00307552
0.00490462
0.00645029
0.00767606
0.00863181
0.00925391
0.00951913
0.00945567
0.00906271
0.00839765
0.00756602
0.00683182
0.0063678
0.00601408
0.00558458
0.00504859
0.00446914
0.00392146
0.00345817
0.0030977
0.0028231
0.00261111
0.00244448
0.00231307
0.00221181
0.00213818
0.00209093
0.00207165
0.00207869
0.0020982
0.00212672
0.00215713
0.00216623
0.00211603
0.00199372
0.00180808
0.00114039
0.00199343
0.00509694
0.00762153
0.0085647
0.0090568
0.0092316
0.00905166
0.00856678
0.00787447
0.00707707
0.00630746
0.00563134
0.00509083
0.00463989
0.00418497
0.00372951
0.0033226
0.00299214
0.00273752
0.00254076
0.00238015
0.00224462
0.00213092
0.00204406
0.00198281
0.00194588
0.00193141
0.001936
0.00196588
0.00201795
0.00208868
0.00217088
0.00224877
0.00230321
0.00228808
0.00231784
0.00235084
0.00116219
0.00178027
0.00188644
0.00196185
0.00211132
0.00204065
0.00195225
0.0018956
0.00181875
0.00170941
0.00157307
0.00141876
0.00125737
0.00110008
0.0009633
0.000858897
0.000784752
0.000732651
0.000695586
0.000669216
0.000651032
0.000639452
0.000633432
0.000632439
0.000636618
0.00064614
0.000660155
0.000678845
0.000702525
0.00073174
0.000767497
0.000808742
0.000855535
0.000908421
0.000967897
0.00103359
0.00111178
0.00113747
0.00110882
0.00104185
0.000971006
)
;

boundaryField
{
    floor
    {
        type            nutkWallFunction;
        Cmu             0.09;
        kappa           0.41;
        E               9.8;
        value           nonuniform List<scalar> 
29
(
0.000145407
5.60616e-05
6.9574e-05
7.83589e-05
7.7585e-05
7.46918e-05
7.09755e-05
6.63963e-05
6.18551e-05
5.77037e-05
5.39871e-05
5.06691e-05
4.76974e-05
4.5037e-05
4.26296e-05
4.03933e-05
3.82173e-05
3.59331e-05
3.43094e-05
3.05883e-05
3.05882e-05
4.23525e-05
4.9948e-05
5.57209e-05
0.000145407
5.60615e-05
6.13196e-05
0.000124065
0.000173963
)
;
    }
    ceiling
    {
        type            nutkWallFunction;
        Cmu             0.09;
        kappa           0.41;
        E               9.8;
        value           nonuniform List<scalar> 
43
(
0.000209209
0.000220871
0.000229112
0.000245446
0.000237819
0.000228205
0.000222017
0.000213584
0.000201511
0.000186335
0.000168982
0.000150605
0.000132437
0.000116398
0.000103978
9.50518e-05
8.87199e-05
8.41831e-05
8.09378e-05
7.8691e-05
7.72563e-05
7.65092e-05
7.63858e-05
7.69047e-05
7.80853e-05
7.98191e-05
8.21245e-05
8.50346e-05
8.86087e-05
9.29604e-05
9.79505e-05
0.000103576
0.00010989
0.000116941
0.000124671
0.0001338
0.000136783
0.000133456
0.00012564
0.000117309
0.000345462
0.000404149
0.000232427
)
;
    }
    sWall
    {
        type            nutkWallFunction;
        Cmu             0.09;
        kappa           0.41;
        E               9.8;
        value           uniform 0.000209267;
    }
    nWall
    {
        type            nutkWallFunction;
        Cmu             0.09;
        kappa           0.41;
        E               9.8;
        value           nonuniform List<scalar> 6(9.53051e-05 9.93287e-05 0.00011244 0.000137132 0.000139656 0.000117315);
    }
    sideWalls
    {
        type            empty;
    }
    glass1
    {
        type            nutkWallFunction;
        Cmu             0.09;
        kappa           0.41;
        E               9.8;
        value           nonuniform List<scalar> 9(0.000129628 0.000174677 0.000211142 0.000245475 0.000279923 0.000315902 0.000348284 0.000354546 0.000345885);
    }
    glass2
    {
        type            nutkWallFunction;
        Cmu             0.09;
        kappa           0.41;
        E               9.8;
        value           nonuniform List<scalar> 2(0.000173336 0.000163625);
    }
    sun
    {
        type            nutkWallFunction;
        Cmu             0.09;
        kappa           0.41;
        E               9.8;
        value           nonuniform List<scalar> 
14
(
0.000129529
0.000141024
0.000143473
0.000150054
0.00015611
0.000161739
0.000167217
0.000172624
0.000176474
0.000178175
0.000177161
0.000173058
0.000165829
0.000156093
)
;
    }
    heatsource1
    {
        type            nutkWallFunction;
        Cmu             0.09;
        kappa           0.41;
        E               9.8;
        value           nonuniform List<scalar> 3(6.97984e-05 8.4921e-05 9.53049e-05);
    }
    heatsource2
    {
        type            nutkWallFunction;
        Cmu             0.09;
        kappa           0.41;
        E               9.8;
        value           nonuniform List<scalar> 4(0.000147756 8.94488e-05 8.94488e-05 0.000145844);
    }
    Table_master
    {
        type            nutkWallFunction;
        Cmu             0.09;
        kappa           0.41;
        E               9.8;
        value           nonuniform List<scalar> 9(9.58365e-05 8.46394e-05 7.55212e-05 6.80684e-05 6.1924e-05 5.68094e-05 5.25226e-05 4.89349e-05 4.59978e-05);
    }
    Table_slave
    {
        type            nutkWallFunction;
        Cmu             0.09;
        kappa           0.41;
        E               9.8;
        value           nonuniform List<scalar> 9(0.000107932 9.84213e-05 9.15528e-05 8.62845e-05 8.1783e-05 7.76205e-05 7.36078e-05 6.93771e-05 6.44343e-05);
    }
    inlet
    {
        type            calculated;
        value           uniform 0.000100623;
    }
    outlet
    {
        type            calculated;
        value           nonuniform List<scalar> 2(0.00178027 0.00188644);
    }
}


// ************************************************************************* //
