// -*- C++ -*-
// File generated by PyFoam - sorry for the ugliness

FoamFile
{
 version 2.0;
 format ascii;
 class volScalarField;
 location "700";
 object T;
}

dimensions [ 0 0 0 1 0 0 0 ];

internalField nonuniform List<scalar> 459
(
  303.566
  303.307
  303.294
  303.29
  303.287
  303.283
  303.278
  303.273
  303.264
  303.254
  303.241
  303.23
  303.221
  303.216
  303.217
  303.303
  303.282
  303.275
  303.277
  303.28
  303.283
  303.287
  303.291
  303.294
  303.298
  303.301
  303.304
  303.308
  303.311
  303.314
  303.318
  303.322
  303.327
  303.345
  303.74
  303.35
  303.327
  303.329
  303.332
  303.333
  303.331
  303.325
  303.311
  303.289
  303.263
  303.239
  303.219
  303.207
  303.201
  303.198
  303.195
  303.303
  303.267
  303.262
  303.264
  303.268
  303.271
  303.273
  303.274
  303.276
  303.277
  303.278
  303.279
  303.28
  303.281
  303.283
  303.287
  303.292
  303.301
  303.329
  303.923
  303.401
  303.362
  303.372
  303.386
  303.397
  303.402
  303.398
  303.377
  303.34
  303.295
  303.254
  303.222
  303.204
  303.197
  303.196
  303.197
  303.247
  303.247
  303.253
  303.262
  303.271
  303.278
  303.278
  303.278
  303.277
  303.277
  303.277
  303.278
  303.278
  303.278
  303.278
  303.281
  303.284
  303.292
  303.322
  304.107
  303.463
  303.398
  303.414
  303.441
  303.468
  303.487
  303.487
  303.456
  303.396
  303.327
  303.266
  303.223
  303.199
  303.192
  303.195
  303.2
  303.211
  303.223
  303.241
  303.259
  303.276
  303.291
  303.301
  303.311
  303.319
  303.326
  303.332
  303.338
  303.342
  303.345
  303.348
  303.348
  303.326
  303.307
  303.298
  303.321
  304.285
  303.542
  303.439
  303.45
  303.488
  303.532
  303.572
  303.574
  303.526
  303.44
  303.345
  303.268
  303.216
  303.191
  303.185
  303.193
  303.206
  303.223
  303.242
  303.265
  303.288
  303.308
  303.325
  303.339
  303.351
  303.361
  303.37
  303.377
  303.381
  303.382
  303.382
  303.378
  303.371
  303.354
  303.33
  303.31
  303.319
  303.389
  303.434
  303.44
  304.446
  303.644
  303.512
  303.5
  303.535
  303.59
  303.644
  303.63
  303.557
  303.451
  303.341
  303.253
  303.197
  303.174
  303.176
  303.193
  303.218
  303.245
  303.273
  303.302
  303.328
  303.35
  303.367
  303.381
  303.392
  303.402
  303.409
  303.414
  303.416
  303.415
  303.41
  303.403
  303.392
  303.375
  303.35
  303.327
  303.322
  303.351
  303.368
  303.402
  304.594
  303.807
  303.675
  303.644
  303.659
  303.704
  303.715
  303.655
  303.541
  303.408
  303.287
  303.2
  303.155
  303.147
  303.167
  303.203
  303.243
  303.283
  303.319
  303.35
  303.376
  303.396
  303.411
  303.423
  303.432
  303.439
  303.443
  303.446
  303.446
  303.442
  303.434
  303.423
  303.41
  303.393
  303.371
  303.348
  303.336
  303.343
  303.353
  303.382
  304.808
  304.22
  304.074
  303.985
  303.94
  303.89
  303.774
  303.608
  303.426
  303.268
  303.156
  303.099
  303.093
  303.122
  303.174
  303.235
  303.292
  303.339
  303.378
  303.405
  303.425
  303.44
  303.451
  303.46
  303.465
  303.469
  303.471
  303.471
  303.469
  303.464
  303.457
  303.445
  303.432
  303.416
  303.4
  303.383
  303.376
  303.388
  303.406
  303.529
  305.115
  304.838
  304.581
  304.346
  304.124
  303.849
  303.529
  303.246
  303.049
  302.948
  302.928
  302.968
  303.047
  303.136
  303.224
  303.309
  303.368
  303.406
  303.433
  303.453
  303.467
  303.477
  303.484
  303.489
  303.492
  303.493
  303.493
  303.492
  303.489
  303.487
  303.485
  303.485
  303.487
  303.493
  303.506
  303.529
  303.56
  303.591
  303.613
  303.665
  296.393
  298.332
  299.549
  300.33
  301.004
  301.585
  302.066
  302.444
  302.733
  302.961
  303.153
  303.272
  303.35
  303.404
  303.439
  303.463
  303.479
  303.491
  303.499
  303.505
  303.509
  303.512
  303.513
  303.514
  303.515
  303.516
  303.516
  303.517
  303.519
  303.521
  303.525
  303.533
  303.546
  303.564
  303.587
  303.61
  303.628
  303.648
  297.052
  298.907
  300.322
  301.256
  301.849
  302.291
  302.634
  302.892
  303.082
  303.218
  303.32
  303.389
  303.435
  303.465
  303.486
  303.5
  303.51
  303.516
  303.521
  303.524
  303.527
  303.529
  303.531
  303.532
  303.533
  303.534
  303.535
  303.537
  303.538
  303.54
  303.544
  303.55
  303.558
  303.571
  303.586
  303.604
  303.602
  303.631
  299.712
  299.634
  299.629
  301.448
  302.256
  302.647
  302.877
  303.046
  303.176
  303.275
  303.349
  303.403
  303.443
  303.47
  303.488
  303.499
  303.507
  303.512
  303.516
  303.519
  303.521
  303.524
  303.526
  303.528
  303.53
  303.533
  303.535
  303.537
  303.539
  303.541
  303.543
  303.546
  303.548
  303.552
  303.557
  303.567
  303.576
  303.581
  303.583
  303.622
)
;

boundaryField
{
  floor
  {
    type wallHeatTransfer;
    Tinf uniform 305.2;
    alphaWall uniform 0.24;
    value nonuniform List<scalar> 29
(
  303.409
  303.664
  303.6
  303.569
  303.573
  303.584
  303.597
  303.614
  303.632
  303.65
  303.668
  303.685
  303.701
  303.716
  303.731
  303.746
  303.761
  303.778
  303.793
  303.832
  303.832
  303.747
  303.704
  303.68
  303.409
  303.664
  303.644
  303.461
  303.377
)
;
  }
  ceiling
  {
    type wallHeatTransfer;
    Tinf uniform 303.2;
    alphaWall uniform 0.24;
    value nonuniform List<scalar> 43
(
  299.959
  299.875
  299.863
  301.557
  302.317
  302.683
  302.899
  303.057
  303.178
  303.269
  303.336
  303.384
  303.418
  303.439
  303.452
  303.459
  303.464
  303.467
  303.469
  303.47
  303.472
  303.473
  303.475
  303.477
  303.48
  303.482
  303.485
  303.488
  303.491
  303.495
  303.498
  303.502
  303.507
  303.512
  303.518
  303.529
  303.538
  303.542
  303.542
  303.574
  305.026
  304.772
  297.447
)
;
  }
  sWall
  {
    type wallHeatTransfer;
    Tinf uniform 315.2;
    alphaWall uniform 0.36;
    value uniform 301.308;
  }
  nWall
  {
    type wallHeatTransfer;
    Tinf uniform 307.2;
    alphaWall uniform 0.36;
    value nonuniform List<scalar> 6
(
  304.147
  304.096
  304.021
  304.163
  304.141
  304.204
)
;
  }
  sideWalls
  {
    type empty;
  }
  glass1
  {
    type wallHeatTransfer;
    Tinf uniform 315.2;
    alphaWall uniform 4.3;
    value nonuniform List<scalar> 9
(
  311.53
  310.897
  310.498
  310.194
  309.941
  309.711
  309.541
  309.612
  309.838
)
;
  }
  glass2
  {
    type wallHeatTransfer;
    Tinf uniform 307.2;
    alphaWall uniform 4.3;
    value nonuniform List<scalar> 2
(
  305.815
  305.909
)
;
  }
  sun
  {
    type wallHeatTransfer;
    Tinf uniform 305.2;
    alphaWall uniform 0.24;
    value nonuniform List<scalar> 14
(
  303.739
  303.495
  303.48
  303.47
  303.461
  303.453
  303.444
  303.435
  303.424
  303.413
  303.403
  303.395
  303.393
  303.397
)
;
  }
  heatsource1
  {
    type fixedGradient;
    gradient uniform 0;
  }
  heatsource2
  {
    type fixedGradient;
    gradient uniform 0;
  }
  Table_master
  {
    type zeroGradient;
  }
  Table_slave
  {
    type zeroGradient;
  }
  inlet
  {
    type fixedValue;
    value uniform 293.15;
  }
  outlet
  {
    type zeroGradient;
  }
} 	// ************************************************************************* //

