/*--------------------------------*- C++ -*----------------------------------*\
  =========                 |
  \\      /  F ield         | OpenFOAM: The Open Source CFD Toolbox
   \\    /   O peration     | Website:  https://openfoam.org
    \\  /    A nd           | Version:  6
     \\/     M anipulation  |
\*---------------------------------------------------------------------------*/
FoamFile
{
    version     2.0;
    format      ascii;
    class       volScalarField;
    location    "410";
    object      alphat;
}
// * * * * * * * * * * * * * * * * * * * * * * * * * * * * * * * * * * * * * //

dimensions      [1 -1 -1 0 0 0 0];

internalField   nonuniform List<scalar> 
459
(
0.0010016
0.00122892
0.00129094
0.00126218
0.00121508
0.00116733
0.00112242
0.00108031
0.00104191
0.00100509
0.000968077
0.000928923
0.000884975
0.000831124
0.000768746
0.000609081
0.000803158
0.000830132
0.000821199
0.0007908
0.000753427
0.000707322
0.000662412
0.000622276
0.000587051
0.000556128
0.000528796
0.000504284
0.000482206
0.000461398
0.000440443
0.000418308
0.00038488
0.000378246
0.00122468
0.00384807
0.00331747
0.00319748
0.00306878
0.00294103
0.00284187
0.00275875
0.00264197
0.00249447
0.00231138
0.00208411
0.00180603
0.00147164
0.00111266
0.000756967
0.000676322
0.000945692
0.00291937
0.00242854
0.00249175
0.00260681
0.00254515
0.0019642
0.0016652
0.00146098
0.00130954
0.00119272
0.00110075
0.00102833
0.000952305
0.000866839
0.000785997
0.000773711
0.000718966
0.000478803
0.00131419
0.00430839
0.00312428
0.00318944
0.00320972
0.00319822
0.00323851
0.00330758
0.0033298
0.00326488
0.00309449
0.00281816
0.00245039
0.00201603
0.00156092
0.00113955
0.000689794
0.000898437
0.002637
0.00252525
0.00286274
0.0031939
0.00307044
0.000930843
0.000823516
0.000735117
0.000662663
0.000603033
0.000553635
0.000512602
0.000480065
0.000456653
0.000514037
0.000684225
0.000885894
0.000551335
0.00136591
0.00399413
0.00261084
0.00309041
0.00333041
0.0034
0.00356119
0.00374486
0.0038228
0.0037657
0.00357799
0.00327686
0.00288719
0.00243849
0.00196441
0.00150318
0.00101096
0.000713123
0.00141209
0.00200332
0.00284961
0.00363108
0.0041281
0.00389817
0.0010175
0.000934299
0.000868507
0.000811129
0.000757152
0.000703574
0.000648285
0.000589282
0.000521805
0.000500433
0.000644216
0.00106261
0.00064211
0.0014038
0.00342226
0.00225627
0.00314546
0.00369636
0.00382278
0.00409836
0.00425448
0.00425047
0.00414194
0.00393787
0.00364623
0.00328928
0.0028938
0.0024893
0.00211869
0.00182527
0.00197762
0.00273241
0.00371693
0.00458882
0.00520575
0.00553667
0.00551158
0.00471436
0.00424086
0.00376583
0.00330528
0.00284864
0.00239144
0.00193084
0.00146763
0.00100493
0.000699969
0.000697506
0.00105816
0.000911047
0.000708164
0.000762837
0.00109593
0.0014311
0.003059
0.0020465
0.00320452
0.00412763
0.00430194
0.00462987
0.00471302
0.00465443
0.00454458
0.00438253
0.0041568
0.00390044
0.00364013
0.00342109
0.00332615
0.00346036
0.00417138
0.00506623
0.00581341
0.00633325
0.00661168
0.00667943
0.00655622
0.00619171
0.0056757
0.00505939
0.00439831
0.00372155
0.00304499
0.00237804
0.00172821
0.00123094
0.000976352
0.000949955
0.0010804
0.00105976
0.00112806
0.00165951
0.00145995
0.0014552
0.00296287
0.00174801
0.00325653
0.00455512
0.0046531
0.00488797
0.00496795
0.00493979
0.00489507
0.00483377
0.00475499
0.00467909
0.00463371
0.00469035
0.00492983
0.00542776
0.0062072
0.00683938
0.00722797
0.00738717
0.00734453
0.0071554
0.00684102
0.00638053
0.00581575
0.00517677
0.00449462
0.00380282
0.00313715
0.00253827
0.00205432
0.00174962
0.00162477
0.00157835
0.00149655
0.00128063
0.00159384
0.00301816
0.00198862
0.00144493
0.00271802
0.00132923
0.00318074
0.0050496
0.00512858
0.00511663
0.00503234
0.00501012
0.00503839
0.00508757
0.00515505
0.00525742
0.00542437
0.00569805
0.00613041
0.00668631
0.00724269
0.00756569
0.00762596
0.00746584
0.00711716
0.00664394
0.00613662
0.00562457
0.00510822
0.00457992
0.00405294
0.00356128
0.00314847
0.00285485
0.00270277
0.00267872
0.00270338
0.00264584
0.00243734
0.00194768
0.00223091
0.00546311
0.00274462
0.00149442
0.00142958
0.00100637
0.00289633
0.00540133
0.00572991
0.00559105
0.00548786
0.00551807
0.00560069
0.00570069
0.0058181
0.00596625
0.00616248
0.00642123
0.00674111
0.00706361
0.00727661
0.00727297
0.00704315
0.00663893
0.00615554
0.0056733
0.00523595
0.00485922
0.00454005
0.00427287
0.00406577
0.00393671
0.00390259
0.00396849
0.00411774
0.00430099
0.00442817
0.00439169
0.00413468
0.00355301
0.003599
0.00730025
0.00308979
0.000805767
0.00277778
0.00571822
0.00631738
0.00643376
0.00658836
0.00676004
0.00690364
0.00701426
0.00710223
0.00717935
0.00725389
0.00732733
0.00738893
0.00740953
0.0073512
0.00719673
0.00696709
0.00670086
0.0064338
0.00618899
0.00597857
0.00580791
0.00568147
0.00560578
0.0055905
0.0056454
0.00577541
0.00597438
0.00621732
0.00645238
0.00659802
0.0065505
0.00629255
0.00576497
0.00559264
0.00762808
0.00262149
0.00243187
0.00694584
0.00721238
0.00718591
0.00739028
0.00766622
0.00789803
0.00805783
0.00815598
0.00820948
0.00823216
0.00823359
0.00822015
0.00819524
0.0081579
0.00810239
0.00802154
0.0079158
0.00779471
0.00767
0.0075499
0.00744063
0.00734902
0.00728384
0.00725512
0.00727328
0.00734759
0.00748355
0.00767882
0.00791626
0.00815324
0.00830885
0.00825798
0.00794969
0.00736437
0.00677109
0.00606255
0.00219877
0.00151695
0.00160811
0.00181226
0.00193418
0.0019633
0.00196775
0.00197471
0.00198212
0.00198738
0.00199041
0.00199197
0.00199288
0.00199377
0.00199509
0.00199694
0.00199879
0.00199945
0.00199759
0.00199272
0.00198547
0.00197702
0.00196847
0.0019607
0.00195441
0.00195027
0.00194887
0.00195084
0.00195668
0.00196664
0.00198048
0.00199697
0.00201337
0.00202465
0.00202389
0.00201022
0.0019898
0.0019974
0.00205092
0.00208097
0.00185328
)
;

boundaryField
{
    floor
    {
        type            compressible::alphatWallFunction;
        Prt             0.85;
        value           nonuniform List<scalar> 
29
(
0.000109543
8.60388e-05
0.000114551
0.000118444
0.000117158
0.000112765
0.000107337
0.000100594
9.3975e-05
8.80129e-05
8.27411e-05
7.80808e-05
7.39347e-05
7.01934e-05
6.68041e-05
6.35915e-05
6.03375e-05
5.68787e-05
5.16093e-05
5.05576e-05
5.05569e-05
6.62833e-05
7.73611e-05
9.09727e-05
0.000109542
8.60378e-05
0.000134952
0.000128228
0.000101429
)
;
    }
    ceiling
    {
        type            compressible::alphatWallFunction;
        Prt             0.85;
        value           nonuniform List<scalar> 
43
(
0.000213657
0.000225861
0.000252925
0.000268928
0.000272736
0.000273318
0.000274228
0.000275196
0.000275882
0.000276277
0.000276481
0.000276599
0.000276716
0.000276889
0.000277131
0.000277372
0.000277458
0.000277216
0.00027658
0.000275636
0.000274534
0.000273417
0.000272402
0.000271581
0.000271038
0.000270856
0.000271112
0.000271874
0.000273175
0.000274979
0.000277129
0.000279264
0.000280731
0.00028063
0.00027885
0.000276187
0.000277178
0.000284143
0.000288046
0.000258322
0.000210552
0.000201794
0.00033317
)
;
    }
    sWall
    {
        type            compressible::alphatWallFunction;
        Prt             0.85;
        value           uniform 0.000213578;
    }
    nWall
    {
        type            compressible::alphatWallFunction;
        Prt             0.85;
        value           nonuniform List<scalar> 6(0.00015611 0.000205989 0.000276042 0.000357292 0.000303296 0.000258333);
    }
    sideWalls
    {
        type            empty;
    }
    glass1
    {
        type            compressible::alphatWallFunction;
        Prt             0.85;
        value           nonuniform List<scalar> 9(0.000142907 0.000173981 0.000186255 0.000193299 0.000198439 0.000202128 0.000205371 0.000203971 0.000210637);
    }
    glass2
    {
        type            compressible::alphatWallFunction;
        Prt             0.85;
        value           nonuniform List<scalar> 2(0.000374313 0.000417627);
    }
    sun
    {
        type            compressible::alphatWallFunction;
        Prt             0.85;
        value           nonuniform List<scalar> 
14
(
0.00014283
0.000174463
0.000182969
0.000179031
0.000172557
0.000165966
0.000159738
0.000153872
0.0001485
0.000143327
0.000138104
0.000132554
0.000126291
0.000118567
)
;
    }
    heatsource1
    {
        type            compressible::alphatWallFunction;
        Prt             0.85;
        value           nonuniform List<scalar> 3(0.000100517 0.000108505 0.000155862);
    }
    heatsource2
    {
        type            compressible::alphatWallFunction;
        Prt             0.85;
        value           nonuniform List<scalar> 4(0.000107653 9.58345e-05 9.58334e-05 9.7819e-05);
    }
    Table_master
    {
        type            compressible::alphatWallFunction;
        Prt             0.85;
        value           nonuniform List<scalar> 9(0.000132641 0.000117288 0.000104464 9.38139e-05 8.49422e-05 7.7511e-05 7.12752e-05 6.62863e-05 6.26699e-05);
    }
    Table_slave
    {
        type            compressible::alphatWallFunction;
        Prt             0.85;
        value           nonuniform List<scalar> 9(0.000144887 0.000133134 0.000123754 0.000115504 0.000107679 9.98461e-05 9.16862e-05 8.28835e-05 7.26811e-05);
    }
    inlet
    {
        type            fixedValue;
        value           uniform 1.94e-05;
    }
    outlet
    {
        type            zeroGradient;
    }
}


// ************************************************************************* //
