/*--------------------------------*- C++ -*----------------------------------*\
  =========                 |
  \\      /  F ield         | OpenFOAM: The Open Source CFD Toolbox
   \\    /   O peration     | Website:  https://openfoam.org
    \\  /    A nd           | Version:  6
     \\/     M anipulation  |
\*---------------------------------------------------------------------------*/
FoamFile
{
    version     2.0;
    format      ascii;
    class       volScalarField;
    location    "390";
    object      nut;
}
// * * * * * * * * * * * * * * * * * * * * * * * * * * * * * * * * * * * * * //

dimensions      [0 2 -1 0 0 0 0];

internalField   nonuniform List<scalar> 
459
(
0.00089955
0.000988774
0.00101959
0.00107261
0.0011223
0.00117063
0.00122096
0.00126672
0.00130083
0.00131683
0.00130791
0.00126791
0.00118796
0.000996408
0.000811366
0.000508196
0.000686899
0.000687099
0.000688201
0.000679478
0.000659625
0.000622432
0.000582171
0.00054488
0.000511513
0.000481759
0.000455472
0.000431917
0.000410378
0.000390026
0.000369705
0.000348309
0.000315757
0.000303851
0.00118585
0.00286415
0.00272852
0.00315238
0.00359752
0.00404046
0.00439955
0.00473114
0.00506217
0.00536446
0.00559844
0.00571552
0.00565958
0.00528187
0.00380349
0.00101045
0.000755364
0.000757401
0.00230744
0.00228321
0.00253072
0.00269907
0.00261577
0.00191852
0.00161156
0.00140772
0.00125702
0.0011404
0.00104126
0.000952393
0.000868233
0.000785731
0.000714234
0.000691357
0.000599908
0.000388091
0.00142483
0.00385962
0.00338488
0.00402684
0.0043516
0.00459294
0.00478666
0.00501492
0.00531922
0.00569859
0.00611588
0.00649365
0.00674089
0.00667561
0.00600322
0.00412053
0.00100511
0.000873057
0.0019452
0.00261304
0.00316127
0.00349841
0.00322987
0.000859466
0.000749886
0.000663135
0.000594497
0.000539681
0.000495562
0.000459939
0.000431508
0.00041031
0.000464924
0.000587612
0.000675202
0.000428659
0.00165302
0.00477729
0.00336215
0.00415132
0.00428644
0.00428901
0.00433271
0.00447665
0.00475196
0.00518389
0.00573161
0.0062785
0.00671049
0.00691028
0.00676628
0.00587968
0.00335374
0.00116984
0.00168922
0.0024259
0.00328782
0.00401298
0.00441867
0.00399839
0.0009494
0.000862621
0.000804024
0.000762269
0.000729682
0.00070007
0.000669695
0.000638566
0.000602234
0.000573165
0.000603518
0.000770901
0.00048566
0.00188667
0.00596785
0.00347244
0.00399247
0.00412001
0.00398458
0.00395604
0.00406416
0.00431855
0.00478506
0.00540674
0.00599492
0.00644644
0.00670924
0.00677014
0.00654262
0.00573922
0.00516042
0.00517052
0.00540883
0.00566589
0.00582867
0.0058317
0.00553939
0.00452901
0.00407411
0.00383442
0.00368183
0.00355366
0.00340673
0.00317058
0.00279257
0.00229831
0.00176678
0.00133749
0.00118538
0.000828293
0.000557831
0.000553239
0.000537676
0.0021382
0.00733592
0.00447946
0.00382432
0.00406005
0.00405207
0.00388213
0.00394458
0.00417664
0.00464709
0.00528113
0.00589883
0.00634585
0.00657554
0.00665303
0.00667974
0.00670078
0.00681333
0.00697677
0.00707117
0.00704409
0.00688843
0.00661972
0.00624958
0.00578107
0.00541708
0.0051532
0.00494973
0.0047738
0.00459328
0.00436925
0.00403014
0.00356054
0.0029846
0.00239451
0.00195885
0.00152135
0.00118168
0.00129999
0.000691136
0.00238314
0.00838786
0.0063531
0.00454579
0.0042813
0.00426857
0.00407815
0.00401113
0.00421032
0.00471427
0.00540334
0.00605844
0.00650409
0.00670487
0.00678171
0.00693168
0.00723837
0.00756453
0.00773146
0.00768261
0.00744706
0.00707684
0.0066298
0.00616677
0.00574806
0.00542819
0.00519374
0.00501477
0.00486566
0.00471744
0.00454015
0.00432015
0.00403825
0.00364319
0.00316859
0.00270903
0.00224007
0.00180791
0.00169334
0.000825353
0.00244749
0.00786522
0.00667582
0.00574202
0.00523144
0.00467452
0.00419917
0.00406181
0.00434357
0.00498875
0.00578855
0.00647836
0.00690055
0.00706959
0.00715214
0.007314
0.00754126
0.00768097
0.00763786
0.00739675
0.00700226
0.00652439
0.00603695
0.00560518
0.00526471
0.0050128
0.00482081
0.00466558
0.00453272
0.00440103
0.00424355
0.00406592
0.00392559
0.00380108
0.00355117
0.0032819
0.0029786
0.0024835
0.00264789
0.00105156
0.00240047
0.00288369
0.00318439
0.00329032
0.00325862
0.00324655
0.00338823
0.00383032
0.00461083
0.00560059
0.00652371
0.00714221
0.00742106
0.00747284
0.0074305
0.0072725
0.00711873
0.00698953
0.006808
0.00653192
0.00617983
0.00581503
0.00548372
0.00520964
0.00498469
0.00478636
0.00459286
0.00439369
0.0041876
0.00396393
0.00368603
0.00333197
0.00296575
0.00266844
0.0024364
0.00222717
0.00203968
0.00187706
0.00176465
0.00111278
0.00112401
0.00181962
0.00244613
0.00313752
0.00406659
0.00511034
0.00616512
0.00708682
0.00763734
0.00775133
0.00758401
0.00723298
0.00687715
0.0066352
0.00648703
0.00637124
0.00624909
0.00611336
0.00597118
0.00582682
0.00568347
0.00554272
0.00539331
0.0052194
0.00500227
0.00472675
0.00439016
0.00400914
0.00360865
0.003198
0.00282032
0.00251197
0.00228876
0.00214048
0.00202894
0.00191457
0.00181448
0.00126077
0.00140421
0.00280865
0.0041789
0.00554261
0.00646059
0.00713446
0.0077664
0.00827774
0.00830967
0.00790355
0.0073648
0.00693532
0.00667087
0.00654098
0.00648826
0.00647079
0.00646498
0.00646127
0.00645638
0.00644554
0.00642096
0.00637641
0.00632077
0.00625285
0.00615016
0.00597918
0.0057075
0.00533209
0.00487945
0.00437174
0.00385721
0.00338054
0.00297497
0.00265499
0.00240656
0.00222555
0.00288131
0.00140886
0.00138458
0.0014624
0.00152909
0.00172256
0.00175471
0.00173293
0.00173787
0.00178018
0.00180065
0.00178476
0.00173566
0.00167862
0.00162046
0.00157942
0.00155696
0.00154629
0.00154197
0.00154033
0.00153926
0.00153779
0.00153554
0.00153259
0.00152932
0.00152642
0.00152192
0.00151264
0.00149558
0.00146875
0.00143359
0.00139278
0.00134834
0.00130531
0.00126696
0.0012363
0.00121538
0.00120364
0.00119507
0.00117723
0.00118887
0.00115676
)
;

boundaryField
{
    floor
    {
        type            nutkWallFunction;
        Cmu             0.09;
        kappa           0.41;
        E               9.8;
        value           nonuniform List<scalar> 
29
(
9.82662e-05
6.07648e-05
8.31176e-05
8.31428e-05
8.32787e-05
8.2206e-05
7.97576e-05
7.51466e-05
7.01176e-05
6.54218e-05
6.11868e-05
5.73816e-05
5.39957e-05
5.09407e-05
4.8129e-05
4.54552e-05
4.27677e-05
3.99175e-05
3.55375e-05
3.39216e-05
3.39215e-05
4.51993e-05
5.05155e-05
5.78806e-05
9.82662e-05
6.07647e-05
9.17356e-05
0.000105671
0.000140524
)
;
    }
    ceiling
    {
        type            nutkWallFunction;
        Cmu             0.09;
        kappa           0.41;
        E               9.8;
        value           nonuniform List<scalar> 
43
(
0.000165077
0.000173873
0.00018137
0.00020294
0.000206508
0.000204111
0.000204666
0.000209345
0.000211605
0.000209855
0.000204432
0.000198108
0.000191637
0.000187056
0.000184542
0.000183348
0.000182864
0.00018268
0.00018256
0.000182396
0.000182144
0.000181813
0.000181445
0.000181119
0.000180615
0.000179573
0.000177654
0.000174634
0.000170666
0.000166047
0.000161
0.000156095
0.000151708
0.000148191
0.000145784
0.000144433
0.000143444
0.000141385
0.00014273
0.000139019
0.000276715
0.00032787
0.000167282
)
;
    }
    sWall
    {
        type            nutkWallFunction;
        Cmu             0.09;
        kappa           0.41;
        E               9.8;
        value           uniform 0.000165107;
    }
    nWall
    {
        type            nutkWallFunction;
        Cmu             0.09;
        kappa           0.41;
        E               9.8;
        value           nonuniform List<scalar> 6(6.44942e-05 8.36332e-05 9.99524e-05 0.000151012 0.000167884 0.00013903);
    }
    sideWalls
    {
        type            empty;
    }
    glass1
    {
        type            nutkWallFunction;
        Cmu             0.09;
        kappa           0.41;
        E               9.8;
        value           nonuniform List<scalar> 9(0.00010886 0.00014246 0.000169792 0.000195414 0.00022125 0.000248679 0.000275059 0.000281945 0.000276924);
    }
    glass2
    {
        type            nutkWallFunction;
        Cmu             0.09;
        kappa           0.41;
        E               9.8;
        value           nonuniform List<scalar> 2(0.000126798 0.000133943);
    }
    sun
    {
        type            nutkWallFunction;
        Cmu             0.09;
        kappa           0.41;
        E               9.8;
        value           nonuniform List<scalar> 
14
(
0.000108834
0.000119402
0.000123026
0.000129233
0.000135018
0.000140618
0.00014642
0.000151674
0.000155575
0.0001574
0.000156383
0.000151808
0.000142615
0.000120298
)
;
    }
    heatsource1
    {
        type            nutkWallFunction;
        Cmu             0.09;
        kappa           0.41;
        E               9.8;
        value           nonuniform List<scalar> 3(6.70495e-05 6.64699e-05 6.45014e-05);
    }
    heatsource2
    {
        type            nutkWallFunction;
        Cmu             0.09;
        kappa           0.41;
        E               9.8;
        value           nonuniform List<scalar> 4(0.000121955 9.14885e-05 9.14885e-05 0.000121327);
    }
    Table_master
    {
        type            nutkWallFunction;
        Cmu             0.09;
        kappa           0.41;
        E               9.8;
        value           nonuniform List<scalar> 9(0.000104048 9.08214e-05 8.01878e-05 7.16562e-05 6.47568e-05 5.91413e-05 5.4562e-05 5.08755e-05 4.81068e-05);
    }
    Table_slave
    {
        type            nutkWallFunction;
        Cmu             0.09;
        kappa           0.41;
        E               9.8;
        value           nonuniform List<scalar> 9(0.000114757 0.000104426 9.73826e-05 9.23267e-05 8.8358e-05 8.47333e-05 8.09962e-05 7.71452e-05 7.26219e-05);
    }
    inlet
    {
        type            calculated;
        value           uniform 0.000100623;
    }
    outlet
    {
        type            calculated;
        value           nonuniform List<scalar> 2(0.00138458 0.0014624);
    }
}


// ************************************************************************* //
