/*--------------------------------*- C++ -*----------------------------------*\
  =========                 |
  \\      /  F ield         | OpenFOAM: The Open Source CFD Toolbox
   \\    /   O peration     | Website:  https://openfoam.org
    \\  /    A nd           | Version:  6
     \\/     M anipulation  |
\*---------------------------------------------------------------------------*/
FoamFile
{
    version     2.0;
    format      ascii;
    class       volScalarField;
    location    "150";
    object      epsilon;
}
// * * * * * * * * * * * * * * * * * * * * * * * * * * * * * * * * * * * * * //

dimensions      [0 2 -3 0 0 0 0];

internalField   nonuniform List<scalar> 
459
(
0.00111379
0.00205661
0.00205153
0.00177553
0.00150481
0.00128262
0.00110282
0.000957552
0.000835643
0.000729903
0.000635146
0.000547169
0.000461951
0.000374119
0.000287198
8.78603e-05
0.000191848
0.000223501
0.000225854
0.000196827
0.000166601
0.000135052
0.000108848
8.8649e-05
7.31818e-05
6.12172e-05
5.18212e-05
4.43607e-05
3.82994e-05
3.31582e-05
2.85356e-05
2.43334e-05
1.9274e-05
2.09925e-05
0.00168192
0.00442289
0.00248124
0.00164643
0.00120756
0.000955747
0.000798207
0.000688288
0.000603752
0.000532401
0.000467497
0.000405656
0.000346127
0.00028913
0.000239188
0.000263954
0.000182442
0.000320653
0.000771876
0.000354737
0.000246461
0.000192294
0.000155484
0.000139001
0.000110677
8.65273e-05
6.79525e-05
5.39586e-05
4.3399e-05
3.53792e-05
2.92404e-05
2.47435e-05
2.24049e-05
2.81966e-05
3.6277e-05
4.63698e-05
0.00180339
0.00483327
0.00200791
0.00115423
0.000789346
0.000626727
0.000547546
0.000500087
0.000460529
0.000419017
0.000373095
0.000324377
0.000276644
0.000233097
0.000198105
0.000184672
0.000189746
0.000364351
0.000983187
0.000446462
0.000278958
0.000206226
0.000171399
0.000313141
0.000212846
0.000148595
0.000107097
7.97358e-05
6.12479e-05
4.85541e-05
3.99061e-05
3.43436e-05
2.58271e-05
2.97627e-05
6.26018e-05
7.24523e-05
0.00171784
0.00356998
0.00115666
0.000617376
0.000399575
0.000339476
0.000334049
0.000338273
0.000331747
0.000312461
0.000284056
0.000251238
0.000218386
0.000188909
0.000166391
0.000152099
0.000155351
0.000189359
0.000315046
0.000256262
0.000214364
0.000190156
0.000171002
0.000163072
0.000406179
0.000316457
0.000255137
0.000208023
0.000168852
0.00013479
0.000104537
7.7469e-05
5.24982e-05
2.77646e-05
2.85424e-05
0.000130581
0.000115721
0.00168782
0.00231335
0.000744382
0.000442443
0.000231536
0.000195569
0.000210303
0.000225284
0.00022833
0.000221207
0.000207501
0.00019054
0.000172839
0.000157744
0.000148218
0.000142516
0.000154966
0.000162809
0.000166045
0.000184001
0.000198146
0.000199877
0.000188756
0.000172483
0.000172299
0.000165654
0.000158084
0.000145996
0.000129157
0.000108919
8.6793e-05
6.44425e-05
4.11215e-05
2.43733e-05
2.53924e-05
0.000109262
0.000139724
0.000154483
0.000213641
0.000649345
0.00161675
0.00172205
0.000748226
0.000524527
0.000227499
0.000153267
0.000149502
0.000156708
0.0001609
0.000160894
0.000157794
0.000153141
0.000147857
0.00014542
0.000149001
0.000159593
0.000187137
0.000215826
0.000246513
0.000270779
0.000278789
0.000266279
0.000238675
0.000206573
0.000180806
0.000161591
0.000145616
0.000128599
0.000109464
8.89206e-05
6.8095e-05
4.85527e-05
3.11987e-05
2.32764e-05
2.85773e-05
6.59619e-05
0.00011834
0.00024308
0.00103815
0.00159014
0.00151547
0.00150997
0.000899041
0.000779858
0.00033457
0.000184171
0.000153749
0.000151891
0.000153703
0.000155157
0.000156132
0.000157518
0.000160779
0.000168576
0.000185456
0.000213237
0.000258807
0.000312518
0.000357149
0.000376928
0.000364924
0.000326048
0.000274632
0.000223994
0.000183393
0.000155147
0.000133783
0.000113682
9.4027e-05
7.56203e-05
5.97381e-05
4.79227e-05
4.15529e-05
4.3851e-05
5.4119e-05
7.64006e-05
0.000139967
0.000605471
0.00338007
0.00397152
0.00135935
0.00142753
0.00116047
0.00123182
0.000593187
0.000325497
0.000263731
0.000255917
0.000256501
0.000257726
0.000258521
0.000260434
0.000266154
0.000278678
0.000302541
0.000343656
0.000403736
0.000464939
0.000497764
0.000489907
0.000440455
0.000370238
0.000303627
0.000248486
0.000207529
0.000177762
0.000154497
0.000135124
0.000119649
0.000109274
0.00010571
0.000110891
0.000126327
0.000151113
0.000178725
0.000217917
0.000339943
0.00151141
0.0128531
0.010301
0.00105368
0.00107991
0.00151145
0.00180859
0.00103816
0.000690858
0.00063636
0.000635831
0.000642099
0.000647183
0.000643937
0.000636294
0.000633367
0.000638298
0.000654436
0.000684459
0.000723756
0.000752632
0.000747251
0.000702775
0.000635186
0.000561169
0.00049386
0.000439095
0.000396528
0.000364431
0.000341419
0.000327597
0.000324654
0.000335288
0.00036275
0.000410029
0.000477537
0.000558575
0.000642323
0.000731781
0.000904249
0.00280034
0.0184986
0.0144387
0.0019782
0.0022133
0.00180633
0.0017549
0.00180591
0.00184992
0.00187947
0.00189278
0.00188261
0.00185409
0.00181276
0.00177461
0.00174216
0.00171589
0.00169342
0.00166599
0.00162554
0.0015716
0.00151043
0.0014488
0.00139033
0.00133693
0.0012904
0.00125354
0.00123024
0.00122539
0.00124512
0.0012968
0.00138844
0.001526
0.00170642
0.00190834
0.00210734
0.00221334
0.00243469
0.00422653
0.0136357
0.00866537
0.00549789
0.00560752
0.00513551
0.00495583
0.00502472
0.00512863
0.00519347
0.0051983
0.00515714
0.00507856
0.00497145
0.00484369
0.00471656
0.00461288
0.00454718
0.00451574
0.00449345
0.00445667
0.00439887
0.0043266
0.00424614
0.00416213
0.00408094
0.0040121
0.00396673
0.00395719
0.00399844
0.00410965
0.00431449
0.00463546
0.00507102
0.0055405
0.00581815
0.00573444
0.00549811
0.00577184
0.00721354
0.00500845
0.000683733
0.000746673
0.00185781
0.00268382
0.00289598
0.00298534
0.00305517
0.00309509
0.00311001
0.00310999
0.00310032
0.0030859
0.00307068
0.00306002
0.0030561
0.00305762
0.0030591
0.00305265
0.00303356
0.003003
0.00296584
0.00292721
0.00289106
0.00286027
0.00283725
0.00282448
0.00282473
0.00284112
0.00287697
0.00293496
0.00301522
0.00311098
0.00320102
0.00324495
0.00322026
0.00318075
0.00325497
0.00358484
0.00383035
0.00284253
)
;

boundaryField
{
    floor
    {
        Cmu             0.09;
        kappa           0.41;
        E               9.8;
        type            epsilonWallFunction;
        value           nonuniform List<scalar> 
29
(
0.000287198
8.78603e-05
0.000191848
0.000223501
0.000225854
0.000196827
0.000166601
0.000135052
0.000108848
8.8649e-05
7.31818e-05
6.12172e-05
5.18212e-05
4.43607e-05
3.82994e-05
3.31582e-05
2.85356e-05
2.43334e-05
1.9274e-05
2.09925e-05
2.09925e-05
4.63698e-05
7.24523e-05
0.000115721
0.000287198
8.78603e-05
0.000320653
0.000364351
0.000189359
)
;
    }
    ceiling
    {
        Cmu             0.09;
        kappa           0.41;
        E               9.8;
        type            epsilonWallFunction;
        value           nonuniform List<scalar> 
43
(
0.000683733
0.000746673
0.00185781
0.00268382
0.00289598
0.00298534
0.00305517
0.00309509
0.00311001
0.00310999
0.00310032
0.0030859
0.00307068
0.00306002
0.0030561
0.00305762
0.0030591
0.00305265
0.00303356
0.003003
0.00296584
0.00292721
0.00289106
0.00286027
0.00283725
0.00282448
0.00282473
0.00284112
0.00287697
0.00293496
0.00301522
0.00311098
0.00320102
0.00324495
0.00322026
0.00318075
0.00325497
0.00358484
0.00383035
0.00284253
0.00105368
0.00107991
0.00549789
)
;
    }
    sWall
    {
        Cmu             0.09;
        kappa           0.41;
        E               9.8;
        type            epsilonWallFunction;
        value           uniform 0.000683733;
    }
    nWall
    {
        Cmu             0.09;
        kappa           0.41;
        E               9.8;
        type            epsilonWallFunction;
        value           nonuniform List<scalar> 6(0.000649345 0.00159014 0.00397152 0.00866537 0.00500845 0.00284253);
    }
    sideWalls
    {
        type            empty;
    }
    glass1
    {
        Cmu             0.09;
        kappa           0.41;
        E               9.8;
        type            epsilonWallFunction;
        value           nonuniform List<scalar> 9(0.00111379 0.00168192 0.00180339 0.00171784 0.00168782 0.00161675 0.00151547 0.00135935 0.00105368);
    }
    glass2
    {
        Cmu             0.09;
        kappa           0.41;
        E               9.8;
        type            epsilonWallFunction;
        value           nonuniform List<scalar> 2(0.010301 0.0144387);
    }
    sun
    {
        Cmu             0.09;
        kappa           0.41;
        E               9.8;
        type            epsilonWallFunction;
        value           nonuniform List<scalar> 
14
(
0.00111379
0.00205661
0.00205153
0.00177553
0.00150481
0.00128262
0.00110282
0.000957552
0.000835643
0.000729903
0.000635146
0.000547169
0.000461951
0.000374119
)
;
    }
    heatsource1
    {
        Cmu             0.09;
        kappa           0.41;
        E               9.8;
        type            epsilonWallFunction;
        value           nonuniform List<scalar> 3(0.000154483 0.000213641 0.000649345);
    }
    heatsource2
    {
        Cmu             0.09;
        kappa           0.41;
        E               9.8;
        type            epsilonWallFunction;
        value           nonuniform List<scalar> 4(0.000263954 0.000182442 0.000182442 0.000189746);
    }
    Table_master
    {
        Cmu             0.09;
        kappa           0.41;
        E               9.8;
        type            epsilonWallFunction;
        value           nonuniform List<scalar> 9(0.000313141 0.000212846 0.000148595 0.000107097 7.97358e-05 6.12479e-05 4.85541e-05 3.99061e-05 3.43436e-05);
    }
    Table_slave
    {
        Cmu             0.09;
        kappa           0.41;
        E               9.8;
        type            epsilonWallFunction;
        value           nonuniform List<scalar> 9(0.000406179 0.000316457 0.000255137 0.000208023 0.000168852 0.00013479 0.000104537 7.7469e-05 5.24982e-05);
    }
    inlet
    {
        type            turbulentMixingLengthDissipationRateInlet;
        mixingLength    0.01;
        phi             phi;
        k               k;
        value           uniform 0.000101881;
    }
    outlet
    {
        type            zeroGradient;
    }
}


// ************************************************************************* //
