// -*- C++ -*-
// File generated by PyFoam - sorry for the ugliness

FoamFile
{
 version 2.0;
 format ascii;
 class volVectorField;
 location "380";
 object U;
}

dimensions [ 0 1 -1 0 0 0 0 ];

internalField nonuniform List<vector> 459
(
  (-0.00945423 0.0465098 0)
  (-0.0948723 0.0173727 0)
  (-0.117644 0.00703423 0)
  (-0.131964 -0.00132974 0)
  (-0.132969 -0.0100271 0)
  (-0.118977 -0.0198706 0)
  (-0.0911696 -0.0304784 0)
  (-0.0533942 -0.0392065 0)
  (-0.00756203 -0.0412497 0)
  (0.0353878 -0.0306258 0)
  (0.0618191 -0.0205928 0)
  (0.0785231 -0.0110921 0)
  (0.0827637 -0.00159389 0)
  (0.070664 0.0119133 0)
  (0.0669385 0.0399405 0)
  (-0.0651083 0.00579304 0)
  (0.000120419 0.00275272 0)
  (-0.00496987 -0.0128085 0)
  (0.017108 -0.0204269 0)
  (0.0341031 -0.0170391 0)
  (0.049956 -0.0122779 0)
  (0.0609615 -0.007223 0)
  (0.0669755 -0.0044416 0)
  (0.0696006 -0.00336385 0)
  (0.0708109 -0.00291129 0)
  (0.0715778 -0.00260264 0)
  (0.0720265 -0.00231255 0)
  (0.0719783 -0.0019201 0)
  (0.0710568 -0.0011811 0)
  (0.0684416 0.000396174 0)
  (0.0624747 0.00362735 0)
  (0.0512718 0.00847038 0)
  (0.0217973 0.0171623 0)
  (0.0582324 0.010587 0)
  (0.0610018 0.0962789 0)
  (-0.0820061 0.0489511 0)
  (-0.0948398 0.031254 0)
  (-0.109346 0.014288 0)
  (-0.111302 -0.00524676 0)
  (-0.0993661 -0.0275535 0)
  (-0.0751749 -0.0493455 0)
  (-0.0430647 -0.064479 0)
  (-0.00748292 -0.0656202 0)
  (0.0257425 -0.0504315 0)
  (0.0490764 -0.0324481 0)
  (0.0648107 -0.0142403 0)
  (0.0728418 0.0042303 0)
  (0.0738949 0.0234654 0)
  (0.0772047 0.0483072 0)
  (0.0725989 0.0461309 0)
  (0.0468838 0.0439434 0)
  (-0.0971155 0.00857091 0)
  (0.0222135 -0.00548622 0)
  (0.0257665 -0.0246874 0)
  (0.0376456 -0.029834 0)
  (0.0497999 -0.0258121 0)
  (0.0599981 -0.0184725 0)
  (0.0652655 -0.00803226 0)
  (0.0665348 -0.00187767 0)
  (0.0664771 0.000484057 0)
  (0.0665956 0.00139481 0)
  (0.0669121 0.00194123 0)
  (0.0671732 0.00245535 0)
  (0.0672791 0.00319488 0)
  (0.0671261 0.00461653 0)
  (0.0661595 0.00778237 0)
  (0.0617946 0.0156505 0)
  (0.0521415 0.0242666 0)
  (0.0191066 0.0357655 0)
  (0.0993885 0.0279861 0)
  (0.127472 0.143889 0)
  (-0.0801375 0.074266 0)
  (-0.0729148 0.0481514 0)
  (-0.0866735 0.0206413 0)
  (-0.0889041 -0.0107703 0)
  (-0.0775468 -0.0452589 0)
  (-0.055731 -0.0771425 0)
  (-0.0289874 -0.0964099 0)
  (-0.00106961 -0.0950467 0)
  (0.0235361 -0.0755145 0)
  (0.0428201 -0.0509119 0)
  (0.056359 -0.0258959 0)
  (0.064327 -0.0017729 0)
  (0.0678216 0.021395 0)
  (0.0695767 0.043515 0)
  (0.0636129 0.0518331 0)
  (0.0501148 0.0741678 0)
  (-0.0972569 -0.0111396 0)
  (0.046717 -0.035392 0)
  (0.0525135 -0.0430932 0)
  (0.0580827 -0.0417388 0)
  (0.0640142 -0.0353043 0)
  (0.0692806 -0.0281543 0)
  (0.0702982 -0.0210646 0)
  (0.0636118 -0.0139356 0)
  (0.0582616 -0.0101741 0)
  (0.0559632 -0.00810513 0)
  (0.0550842 -0.00678243 0)
  (0.0546248 -0.00583162 0)
  (0.0546172 -0.00489924 0)
  (0.0558478 -0.00337987 0)
  (0.0600467 0.00099203 0)
  (0.0600461 0.019989 0)
  (0.0527929 0.0349355 0)
  (0.0156667 0.0520322 0)
  (0.126904 0.0541869 0)
  (0.191006 0.182248 0)
  (-0.086629 0.0946681 0)
  (-0.050431 0.0631965 0)
  (-0.062445 0.0278192 0)
  (-0.0628851 -0.0143424 0)
  (-0.0498139 -0.060916 0)
  (-0.0301174 -0.101285 0)
  (-0.00966114 -0.122569 0)
  (0.010236 -0.118446 0)
  (0.0269009 -0.095803 0)
  (0.0408321 -0.0658464 0)
  (0.0506024 -0.0353429 0)
  (0.0566913 -0.00726434 0)
  (0.0606729 0.0179251 0)
  (0.0653095 0.0402704 0)
  (0.0726038 0.0565807 0)
  (0.0844971 0.0780789 0)
  (0.108064 0.0242293 0)
  (0.0984918 -0.00270452 0)
  (0.09232 -0.0288607 0)
  (0.0828629 -0.040513 0)
  (0.0756637 -0.0406366 0)
  (0.0708351 -0.034883 0)
  (0.0666671 -0.026079 0)
  (0.066939 -0.0153955 0)
  (0.073043 -0.00991739 0)
  (0.0768599 -0.00690388 0)
  (0.0775516 -0.00503256 0)
  (0.0763767 -0.00353813 0)
  (0.0739915 -0.00212674 0)
  (0.0700567 -0.000526766 0)
  (0.0635813 0.00167364 0)
  (0.0514843 0.00517081 0)
  (0.0449253 0.0262321 0)
  (0.0469179 0.0427802 0)
  (0.0151705 0.0626052 0)
  (0.146612 0.0893626 0)
  (0.25081 0.211197 0)
  (-0.0996525 0.108809 0)
  (-0.0279509 0.0723552 0)
  (-0.0360931 0.0324629 0)
  (-0.0298409 -0.018667 0)
  (-0.0133826 -0.0755643 0)
  (0.00280209 -0.120207 0)
  (0.0154061 -0.139599 0)
  (0.0253709 -0.133351 0)
  (0.0339258 -0.108459 0)
  (0.0405915 -0.0748893 0)
  (0.0447843 -0.040965 0)
  (0.0474126 -0.0111011 0)
  (0.0503322 0.0139017 0)
  (0.0558758 0.0339447 0)
  (0.0657487 0.0470017 0)
  (0.081108 0.0509585 0)
  (0.0945578 0.0161703 0)
  (0.0950947 -0.00843846 0)
  (0.08844 -0.0255059 0)
  (0.0790969 -0.0329417 0)
  (0.0694221 -0.0328601 0)
  (0.0608982 -0.0280597 0)
  (0.0540826 -0.0200292 0)
  (0.0507019 -0.00899334 0)
  (0.0504288 -0.00247108 0)
  (0.0500683 0.000541531 0)
  (0.048837 0.00219336 0)
  (0.0476418 0.00357931 0)
  (0.0465207 0.00525875 0)
  (0.0451544 0.00768859 0)
  (0.0431715 0.0113535 0)
  (0.0398724 0.0168891 0)
  (0.038362 0.0288895 0)
  (0.0468275 0.0418293 0)
  (0.0360775 0.0560023 0)
  (0.10689 0.0864267 0)
  (0.0987709 0.0679887 0)
  (0.0894617 0.0474589 0)
  (-0.12264 0.0469551 0)
  (0.301875 0.233356 0)
  (-0.116856 0.11526 0)
  (-0.00777108 0.0709011 0)
  (-0.0063766 0.0308406 0)
  (0.0143477 -0.0326274 0)
  (0.0309344 -0.0908211 0)
  (0.0407209 -0.1308 0)
  (0.0444309 -0.146958 0)
  (0.0442452 -0.138746 0)
  (0.0423803 -0.111986 0)
  (0.0395502 -0.0762031 0)
  (0.0362261 -0.0408556 0)
  (0.033697 -0.0114496 0)
  (0.0337165 0.0109119 0)
  (0.0381783 0.0263761 0)
  (0.047213 0.033931 0)
  (0.0605951 0.0312195 0)
  (0.0700723 0.0115781 0)
  (0.0710603 -0.0060082 0)
  (0.0656354 -0.0176004 0)
  (0.0569309 -0.0230593 0)
  (0.0471282 -0.023186 0)
  (0.0378237 -0.0195317 0)
  (0.0300907 -0.0133758 0)
  (0.025007 -0.00603762 0)
  (0.0225444 -0.00138178 0)
  (0.0212305 0.000766968 0)
  (0.0208679 0.00178026 0)
  (0.0212113 0.00268459 0)
  (0.0222014 0.0041877 0)
  (0.0237152 0.00682009 0)
  (0.0255956 0.0109757 0)
  (0.0276245 0.0167973 0)
  (0.0308752 0.0249058 0)
  (0.0401861 0.0332577 0)
  (0.0400638 0.0371912 0)
  (0.0685391 0.0528276 0)
  (0.0675944 0.0403954 0)
  (0.0867847 0.0365305 0)
  (-0.129524 0.0671592 0)
  (0.346722 0.251155 0)
  (-0.127375 0.102962 0)
  (0.017041 0.0394598 0)
  (0.0405877 0.00126211 0)
  (0.0684554 -0.0552389 0)
  (0.0818719 -0.103754 0)
  (0.0838426 -0.134892 0)
  (0.0767044 -0.144554 0)
  (0.0636032 -0.132527 0)
  (0.0485985 -0.104033 0)
  (0.0341152 -0.0676784 0)
  (0.0219516 -0.0333539 0)
  (0.0138051 -0.00713549 0)
  (0.0111729 0.0101493 0)
  (0.014902 0.0201225 0)
  (0.0228268 0.0236466 0)
  (0.0330234 0.0200215 0)
  (0.0392151 0.00823773 0)
  (0.0392814 -0.00319204 0)
  (0.0343029 -0.0108427 0)
  (0.0261629 -0.0142527 0)
  (0.0168509 -0.0139589 0)
  (0.00790187 -0.0110868 0)
  (0.000462438 -0.00672793 0)
  (-0.0043463 -0.00227231 0)
  (-0.00661436 0.000280065 0)
  (-0.00701699 0.00107975 0)
  (-0.00623607 0.00107786 0)
  (-0.00454918 0.00110157 0)
  (-0.00181659 0.00177373 0)
  (0.00225925 0.00375054 0)
  (0.00731105 0.00723113 0)
  (0.0132872 0.012011 0)
  (0.020181 0.0177263 0)
  (0.0297042 0.023357 0)
  (0.0342212 0.0257897 0)
  (0.0481924 0.0365204 0)
  (0.0531678 0.0406521 0)
  (0.0971747 0.0525765 0)
  (-0.104763 0.108368 0)
  (0.413278 0.243665 0)
  (-0.0164632 0.0764392 0)
  (0.0673249 -0.0248408 0)
  (0.125417 -0.0625317 0)
  (0.14574 -0.0881592 0)
  (0.145755 -0.11169 0)
  (0.131927 -0.126413 0)
  (0.107635 -0.126762 0)
  (0.0769722 -0.110689 0)
  (0.0460683 -0.0819565 0)
  (0.0187334 -0.0477223 0)
  (-0.00139745 -0.0179113 0)
  (-0.0124036 0.000585051 0)
  (-0.0146344 0.00998409 0)
  (-0.0114983 0.0147972 0)
  (-0.00542395 0.0160341 0)
  (0.00140548 0.0132311 0)
  (0.00461418 0.00640815 0)
  (0.00320937 -0.000150746 0)
  (-0.00151394 -0.00450542 0)
  (-0.00895166 -0.00600102 0)
  (-0.0169633 -0.0053387 0)
  (-0.0242389 -0.00345182 0)
  (-0.0298933 -0.00124828 0)
  (-0.0332917 0.000393582 0)
  (-0.0345133 0.000842904 0)
  (-0.0343963 0.000305919 0)
  (-0.0335937 -0.000774453 0)
  (-0.0320624 -0.0020059 0)
  (-0.0296346 -0.00299683 0)
  (-0.0258428 -0.00328797 0)
  (-0.0200416 -0.00249021 0)
  (-0.0117934 -0.000557327 0)
  (-0.00249529 0.00207112 0)
  (0.00803178 0.0046777 0)
  (0.013667 0.00565207 0)
  (0.0226529 0.0116062 0)
  (0.0278965 0.0154877 0)
  (0.100457 0.0600609 0)
  (-0.316524 0.16578 0)
  (0.503282 0.241982 0)
  (0.240525 0.170147 0)
  (0.256763 0.11047 0)
  (0.271128 0.0402251 0)
  (0.254524 -0.0201596 0)
  (0.219105 -0.0610496 0)
  (0.173309 -0.081236 0)
  (0.122102 -0.083083 0)
  (0.0693067 -0.0689561 0)
  (0.0227913 -0.0445093 0)
  (-0.014599 -0.0162638 0)
  (-0.0334979 -0.000126107 0)
  (-0.0414102 0.00716898 0)
  (-0.0423365 0.0103394 0)
  (-0.0400784 0.0118862 0)
  (-0.0363848 0.0120816 0)
  (-0.0330216 0.0106477 0)
  (-0.0321532 0.0076843 0)
  (-0.0343119 0.00474225 0)
  (-0.0385857 0.00280745 0)
  (-0.0439682 0.00207702 0)
  (-0.0494268 0.00213959 0)
  (-0.0540238 0.00246218 0)
  (-0.0571953 0.00258322 0)
  (-0.058976 0.0021983 0)
  (-0.0598351 0.00118119 0)
  (-0.0602762 -0.000315949 0)
  (-0.0606305 -0.00203982 0)
  (-0.0612744 -0.00372459 0)
  (-0.0625273 -0.00501776 0)
  (-0.0647739 -0.00531651 0)
  (-0.068505 -0.00373728 0)
  (-0.0740794 0.000601317 0)
  (-0.081331 0.00809233 0)
  (-0.0925156 0.0194276 0)
  (-0.110898 0.0355374 0)
  (-0.135457 0.0567258 0)
  (-0.167385 0.0796829 0)
  (-0.217706 0.0984667 0)
  (-0.420572 0.101641 0)
  (0.25614 -0.0649288 0)
  (0.248351 -0.0570823 0)
  (0.221732 -0.0564195 0)
  (0.172936 -0.0520151 0)
  (0.115687 -0.0432217 0)
  (0.0583214 -0.0302648 0)
  (-0.00107171 -0.0113641 0)
  (-0.0422828 0.00469642 0)
  (-0.0620065 0.0124881 0)
  (-0.0697951 0.0148982 0)
  (-0.071733 0.0154369 0)
  (-0.0710695 0.0155421 0)
  (-0.0692979 0.0157642 0)
  (-0.0672113 0.0159392 0)
  (-0.0656142 0.0157682 0)
  (-0.0653132 0.0151558 0)
  (-0.0664286 0.0145052 0)
  (-0.068457 0.0141643 0)
  (-0.0707424 0.0142202 0)
  (-0.0727752 0.0144728 0)
  (-0.0743161 0.0147176 0)
  (-0.0753677 0.0148773 0)
  (-0.076108 0.0149731 0)
  (-0.0768022 0.0150869 0)
  (-0.0776877 0.0153682 0)
  (-0.0788595 0.0159548 0)
  (-0.0803821 0.0170004 0)
  (-0.0823491 0.0186469 0)
  (-0.0847748 0.0208738 0)
  (-0.0875093 0.0235076 0)
  (-0.0903378 0.0266793 0)
  (-0.0931569 0.0314551 0)
  (-0.0957264 0.0393498 0)
  (-0.0974952 0.0518335 0)
  (-0.0964056 0.0682708 0)
  (-0.0892168 0.0782064 0)
  (-0.0773956 0.0502391 0)
  (-0.121374 -0.141851 0)
  (-0.0201758 0.0507524 0)
  (-0.03398 0.00628959 0)
  (-0.0449544 -0.010928 0)
  (-0.0572759 -0.0220738 0)
  (-0.0730989 -0.0277074 0)
  (-0.0863965 -0.0308342 0)
  (-0.0941581 -0.0340542 0)
  (-0.0982736 -0.039342 0)
  (-0.0991564 -0.0455283 0)
  (-0.0985013 -0.0503947 0)
  (-0.0970922 -0.0531505 0)
  (-0.0952194 -0.0541772 0)
  (-0.0929882 -0.0542031 0)
  (-0.0905265 -0.0540872 0)
  (-0.0881082 -0.0545534 0)
  (-0.0860685 -0.0559539 0)
  (-0.0845455 -0.0580914 0)
  (-0.0834346 -0.0605437 0)
  (-0.0825263 -0.0629679 0)
  (-0.0816523 -0.0652719 0)
  (-0.0807567 -0.0675307 0)
  (-0.0798852 -0.0698894 0)
  (-0.0791516 -0.0725284 0)
  (-0.0787082 -0.075608 0)
  (-0.0787117 -0.0791621 0)
  (-0.0792851 -0.0830221 0)
  (-0.0804657 -0.0867354 0)
  (-0.0821278 -0.0895095 0)
  (-0.0839393 -0.0902376 0)
  (-0.0853489 -0.0875999 0)
  (-0.0854911 -0.0803363 0)
  (-0.0829679 -0.0676526 0)
  (-0.0757399 -0.0497793 0)
  (-0.0615877 -0.0283378 0)
  (-0.0399003 -0.00780781 0)
  (-0.0101773 -0.002305 0)
  (0.071011 -0.0778821 0)
  (-0.0814147 -0.123167 0)
  (-0.18292 -0.221608 0)
  (-0.256948 -0.0370923 0)
  (-0.22234 0.130963 0)
  (-0.198544 0.12421 0)
  (-0.181672 0.128461 0)
  (-0.173229 0.139036 0)
  (-0.167014 0.150578 0)
  (-0.159657 0.162242 0)
  (-0.150395 0.173744 0)
  (-0.140601 0.184685 0)
  (-0.13184 0.193836 0)
  (-0.124958 0.200194 0)
  (-0.119679 0.203999 0)
  (-0.115304 0.206187 0)
  (-0.111192 0.207767 0)
  (-0.10697 0.209559 0)
  (-0.102577 0.212061 0)
  (-0.09819 0.215348 0)
  (-0.0940362 0.219099 0)
  (-0.0902671 0.222861 0)
  (-0.0869435 0.2263 0)
  (-0.0840806 0.229315 0)
  (-0.0816881 0.232006 0)
  (-0.0797744 0.234602 0)
  (-0.0783421 0.237402 0)
  (-0.0773812 0.240709 0)
  (-0.0768513 0.24474 0)
  (-0.0766549 0.24955 0)
  (-0.0766037 0.254925 0)
  (-0.0763844 0.260306 0)
  (-0.0755377 0.264854 0)
  (-0.0734027 0.26759 0)
  (-0.0689927 0.267705 0)
  (-0.0609985 0.265038 0)
  (-0.0483493 0.260695 0)
  (-0.0312276 0.257308 0)
  (-0.00994424 0.258511 0)
  (0.0180471 0.264707 0)
  (0.0952046 0.30871 0)
  (-0.219089 0.317063 0)
)
;

boundaryField
{
  floor
  {
    type noSlip;
  }
  ceiling
  {
    type noSlip;
  }
  sWall
  {
    type noSlip;
  }
  nWall
  {
    type noSlip;
  }
  sideWalls
  {
    type empty;
  }
  glass1
  {
    type noSlip;
  }
  glass2
  {
    type noSlip;
  }
  sun
  {
    type noSlip;
  }
  heatsource1
  {
    type noSlip;
  }
  heatsource2
  {
    type noSlip;
  }
  Table_master
  {
    type noSlip;
  }
  Table_slave
  {
    type noSlip;
  }
  inlet
  {
    type fixedValue;
    value uniform (0.277164 -0.114805 0);
  }
  outlet
  {
    type zeroGradient;
  }
} 	// ************************************************************************* //

