// -*- C++ -*-
// File generated by PyFoam - sorry for the ugliness

FoamFile
{
 version 2.0;
 format ascii;
 class volScalarField;
 location "1600";
 object T;
}

dimensions [ 0 0 0 1 0 0 0 ];

internalField nonuniform List<scalar> 459
(
  303.988
  303.736
  303.725
  303.723
  303.72
  303.717
  303.713
  303.709
  303.704
  303.696
  303.685
  303.672
  303.66
  303.651
  303.647
  303.699
  303.682
  303.68
  303.682
  303.683
  303.684
  303.686
  303.687
  303.688
  303.69
  303.692
  303.694
  303.696
  303.699
  303.703
  303.708
  303.714
  303.724
  303.746
  304.168
  303.777
  303.758
  303.763
  303.767
  303.77
  303.77
  303.768
  303.76
  303.745
  303.722
  303.694
  303.668
  303.648
  303.636
  303.631
  303.628
  303.689
  303.675
  303.675
  303.677
  303.679
  303.68
  303.68
  303.679
  303.678
  303.677
  303.677
  303.677
  303.677
  303.678
  303.681
  303.685
  303.693
  303.706
  303.736
  304.355
  303.824
  303.791
  303.804
  303.819
  303.832
  303.841
  303.843
  303.836
  303.812
  303.773
  303.725
  303.681
  303.649
  303.633
  303.629
  303.631
  303.662
  303.667
  303.675
  303.683
  303.689
  303.691
  303.689
  303.687
  303.684
  303.682
  303.681
  303.679
  303.679
  303.679
  303.68
  303.683
  303.689
  303.701
  303.732
  304.541
  303.882
  303.822
  303.84
  303.867
  303.894
  303.916
  303.93
  303.924
  303.889
  303.828
  303.755
  303.689
  303.646
  303.625
  303.624
  303.631
  303.643
  303.655
  303.672
  303.687
  303.7
  303.71
  303.716
  303.72
  303.723
  303.726
  303.728
  303.729
  303.73
  303.731
  303.731
  303.73
  303.713
  303.703
  303.704
  303.732
  304.719
  303.955
  303.855
  303.867
  303.9
  303.938
  303.977
  304.006
  304.004
  303.955
  303.87
  303.771
  303.687
  303.635
  303.614
  303.616
  303.63
  303.649
  303.67
  303.693
  303.713
  303.729
  303.741
  303.748
  303.753
  303.757
  303.76
  303.761
  303.761
  303.76
  303.756
  303.752
  303.746
  303.732
  303.717
  303.71
  303.729
  303.795
  303.836
  303.841
  304.876
  304.05
  303.914
  303.898
  303.924
  303.962
  304.009
  304.059
  304.052
  303.985
  303.878
  303.765
  303.672
  303.615
  303.597
  303.607
  303.633
  303.663
  303.695
  303.723
  303.747
  303.763
  303.774
  303.781
  303.785
  303.787
  303.788
  303.788
  303.786
  303.781
  303.775
  303.768
  303.759
  303.746
  303.73
  303.718
  303.726
  303.759
  303.775
  303.808
  305.01
  304.204
  304.065
  304.015
  304.01
  304.029
  304.07
  304.102
  304.069
  303.972
  303.842
  303.716
  303.623
  303.576
  303.572
  303.6
  303.644
  303.689
  303.731
  303.762
  303.784
  303.798
  303.806
  303.809
  303.811
  303.812
  303.811
  303.809
  303.805
  303.799
  303.79
  303.781
  303.77
  303.757
  303.742
  303.729
  303.729
  303.742
  303.753
  303.781
  305.216
  304.616
  304.461
  304.347
  304.272
  304.237
  304.227
  304.169
  304.048
  303.888
  303.727
  303.603
  303.532
  303.519
  303.55
  303.607
  303.674
  303.732
  303.777
  303.802
  303.817
  303.825
  303.83
  303.831
  303.832
  303.831
  303.829
  303.826
  303.821
  303.815
  303.806
  303.797
  303.787
  303.775
  303.764
  303.753
  303.753
  303.766
  303.786
  303.908
  305.506
  305.234
  304.973
  304.743
  304.56
  304.418
  304.286
  304.065
  303.817
  303.603
  303.46
  303.4
  303.41
  303.469
  303.557
  303.648
  303.736
  303.786
  303.815
  303.831
  303.84
  303.845
  303.848
  303.849
  303.849
  303.848
  303.846
  303.844
  303.841
  303.839
  303.838
  303.839
  303.843
  303.852
  303.867
  303.89
  303.921
  303.953
  303.974
  304.022
  296.92
  299.633
  301.193
  301.82
  302.081
  302.315
  302.539
  302.758
  302.971
  303.173
  303.352
  303.511
  303.657
  303.744
  303.797
  303.826
  303.841
  303.85
  303.856
  303.86
  303.863
  303.865
  303.866
  303.868
  303.869
  303.87
  303.871
  303.872
  303.875
  303.878
  303.883
  303.892
  303.905
  303.923
  303.945
  303.966
  303.981
  303.995
  297.509
  299.808
  300.893
  301.585
  302.024
  302.362
  302.662
  302.933
  303.193
  303.412
  303.569
  303.682
  303.759
  303.804
  303.83
  303.844
  303.853
  303.86
  303.865
  303.869
  303.873
  303.877
  303.88
  303.883
  303.886
  303.889
  303.891
  303.893
  303.895
  303.898
  303.903
  303.909
  303.918
  303.93
  303.944
  303.96
  303.955
  303.979
  301.778
  300.083
  299.784
  301.512
  302.223
  302.641
  302.954
  303.199
  303.373
  303.506
  303.611
  303.688
  303.742
  303.781
  303.806
  303.822
  303.831
  303.837
  303.842
  303.846
  303.851
  303.855
  303.86
  303.864
  303.868
  303.873
  303.877
  303.881
  303.886
  303.89
  303.894
  303.898
  303.902
  303.907
  303.913
  303.922
  303.932
  303.936
  303.935
  303.973
)
;

boundaryField
{
  floor
  {
    type wallHeatTransfer;
    Tinf uniform 305.2;
    alphaWall uniform 0.24;
    value nonuniform List<scalar> 29
(
  303.802
  303.994
  303.939
  303.926
  303.932
  303.941
  303.951
  303.962
  303.973
  303.983
  303.994
  304.003
  304.013
  304.022
  304.032
  304.041
  304.052
  304.065
  304.082
  304.119
  304.119
  304.077
  304.053
  304.037
  303.802
  303.994
  303.937
  303.834
  303.784
)
;
  }
  ceiling
  {
    type wallHeatTransfer;
    Tinf uniform 303.2;
    alphaWall uniform 0.24;
    value nonuniform List<scalar> 43
(
  301.873
  300.295
  300.013
  301.621
  302.289
  302.681
  302.972
  303.199
  303.359
  303.481
  303.576
  303.644
  303.69
  303.72
  303.738
  303.747
  303.753
  303.756
  303.759
  303.762
  303.765
  303.768
  303.771
  303.773
  303.776
  303.779
  303.782
  303.786
  303.791
  303.796
  303.802
  303.808
  303.815
  303.822
  303.831
  303.842
  303.852
  303.855
  303.851
  303.881
  305.396
  305.15
  297.878
)
;
  }
  sWall
  {
    type wallHeatTransfer;
    Tinf uniform 315.2;
    alphaWall uniform 0.36;
    value uniform 303.081;
  }
  nWall
  {
    type wallHeatTransfer;
    Tinf uniform 307.2;
    alphaWall uniform 0.36;
    value nonuniform List<scalar> 6
(
  304.506
  304.467
  304.423
  304.47
  304.446
  304.516
)
;
  }
  sideWalls
  {
    type empty;
  }
  glass1
  {
    type wallHeatTransfer;
    Tinf uniform 315.2;
    alphaWall uniform 4.3;
    value nonuniform List<scalar> 9
(
  311.942
  311.328
  310.926
  310.605
  310.329
  310.076
  309.869
  309.919
  310.12
)
;
  }
  glass2
  {
    type wallHeatTransfer;
    Tinf uniform 307.2;
    alphaWall uniform 4.3;
    value nonuniform List<scalar> 2
(
  306.031
  306.093
)
;
  }
  sun
  {
    type wallHeatTransfer;
    Tinf uniform 305.2;
    alphaWall uniform 0.24;
    value nonuniform List<scalar> 14
(
  304.131
  303.898
  303.887
  303.879
  303.872
  303.865
  303.858
  303.851
  303.844
  303.834
  303.823
  303.813
  303.804
  303.801
)
;
  }
  heatsource1
  {
    type fixedGradient;
    gradient uniform 0;
  }
  heatsource2
  {
    type fixedGradient;
    gradient uniform 0;
  }
  Table_master
  {
    type zeroGradient;
  }
  Table_slave
  {
    type zeroGradient;
  }
  inlet
  {
    type fixedValue;
    value uniform 293.15;
  }
  outlet
  {
    type zeroGradient;
  }
} 	// ************************************************************************* //

