/*--------------------------------*- C++ -*----------------------------------*\
  =========                 |
  \\      /  F ield         | OpenFOAM: The Open Source CFD Toolbox
   \\    /   O peration     | Website:  https://openfoam.org
    \\  /    A nd           | Version:  6
     \\/     M anipulation  |
\*---------------------------------------------------------------------------*/
FoamFile
{
    version     2.0;
    format      ascii;
    class       volScalarField;
    location    "100";
    object      alphat;
}
// * * * * * * * * * * * * * * * * * * * * * * * * * * * * * * * * * * * * * //

dimensions      [1 -1 -1 0 0 0 0];

internalField   nonuniform List<scalar> 
459
(
0.00171777
0.00193225
0.00202518
0.00216411
0.00232306
0.00244974
0.00252398
0.00249079
0.00237038
0.00223465
0.00208798
0.0019304
0.00178853
0.0016399
0.00146834
0.00081994
0.000965834
0.00113241
0.001252
0.00128821
0.00126324
0.00118307
0.00109716
0.00102048
0.000954312
0.000897349
0.000848164
0.000805263
0.000767377
0.000733241
0.000700767
0.000666907
0.00062718
0.000569849
0.00218653
0.00632294
0.00659366
0.00755291
0.00820759
0.00871292
0.009144
0.00954596
0.00945569
0.00900152
0.0083379
0.00753523
0.00624591
0.00474551
0.00314204
0.00157563
0.0013521
0.000800496
0.00207773
0.00358865
0.00470119
0.00535919
0.00519986
0.00349969
0.00285327
0.00244804
0.0021627
0.00195147
0.00179016
0.00166584
0.00155841
0.00143589
0.00131144
0.00119153
0.00108633
0.00060832
0.00257806
0.00889656
0.00849453
0.00902489
0.00913626
0.00914103
0.00944713
0.0101756
0.0105698
0.0105255
0.0101612
0.00958095
0.00857787
0.00711707
0.0053078
0.0033515
0.00145899
0.000813045
0.00213297
0.00373279
0.00546697
0.00665621
0.00624887
0.00158481
0.00137255
0.00120082
0.00106366
0.000953903
0.000865553
0.000794091
0.000737878
0.00069964
0.000821257
0.000987438
0.00113257
0.000621019
0.00295238
0.0111071
0.0096644
0.00974556
0.00916339
0.00861624
0.00886285
0.00972977
0.0104252
0.0106638
0.0105312
0.0101701
0.00952317
0.00845647
0.00693968
0.00504253
0.0027635
0.00153725
0.00171319
0.00289264
0.00491293
0.00699451
0.00837392
0.00778341
0.0018112
0.00165001
0.00152285
0.00141518
0.00131569
0.0012182
0.00111878
0.00101383
0.000895492
0.000824915
0.000914847
0.00113472
0.000627612
0.00332454
0.0135428
0.0114815
0.0107927
0.00928903
0.00826075
0.00854362
0.00950706
0.0103704
0.0107497
0.0107192
0.0104723
0.0100746
0.00939399
0.00835054
0.00699236
0.00548703
0.00515476
0.00611507
0.00765564
0.00932743
0.0106765
0.0114291
0.0112496
0.00921114
0.00802911
0.00706137
0.00611991
0.00520047
0.00430268
0.00342651
0.00257883
0.00177798
0.00119389
0.00102871
0.00113772
0.000742255
0.000611379
0.000627835
0.000639557
0.00369208
0.0158816
0.0142278
0.0117365
0.00920421
0.00810921
0.00847951
0.00959509
0.0105971
0.01106
0.0111202
0.0110622
0.010999
0.0107242
0.0102172
0.00961725
0.00920026
0.00978008
0.0112172
0.0125156
0.0134696
0.0139693
0.0139919
0.0134999
0.0123833
0.0110795
0.00966841
0.00825681
0.00688202
0.0055625
0.00431135
0.00315368
0.00214794
0.00146292
0.00124498
0.0012489
0.000968604
0.0009855
0.00156794
0.000889203
0.00391703
0.0166908
0.0156243
0.0113529
0.00862907
0.00783438
0.00855945
0.00994545
0.0110877
0.0116253
0.0119371
0.0124637
0.0127668
0.0127474
0.0126447
0.0126545
0.0129988
0.0139429
0.0150532
0.0157339
0.0159688
0.015783
0.0152256
0.0143336
0.0130977
0.0116165
0.0100601
0.00851033
0.00701791
0.00562398
0.00436968
0.00329894
0.00245382
0.00188795
0.00170131
0.00164151
0.00143898
0.0014003
0.00156679
0.0010254
0.00391082
0.0125759
0.010926
0.00837113
0.00707303
0.00737567
0.00884432
0.0105948
0.0118087
0.0124463
0.0133852
0.0141309
0.0144189
0.0145308
0.0146991
0.0150321
0.0155853
0.0163103
0.0168573
0.0169595
0.0166247
0.0159136
0.0149051
0.0136687
0.0122699
0.0107826
0.00927374
0.00780067
0.00641721
0.00517698
0.00413037
0.00331541
0.00274595
0.00241313
0.00225006
0.00221499
0.00221494
0.00214874
0.00336516
0.00118883
0.00375955
0.00425949
0.00441996
0.00441426
0.00535267
0.00739629
0.00981893
0.0116518
0.0126233
0.0135383
0.014422
0.0148314
0.0149832
0.0151608
0.0154517
0.0158372
0.0162469
0.0165379
0.0165235
0.016112
0.0153345
0.0142779
0.0130404
0.0117088
0.010351
0.00900776
0.00770241
0.00645845
0.00530196
0.00425105
0.00331115
0.00251738
0.00199201
0.00179357
0.00178709
0.00183237
0.00189028
0.0019186
0.00188269
0.00127084
0.000800918
0.00389738
0.00814313
0.0111278
0.0127315
0.0130886
0.0131384
0.01349
0.0136859
0.0137286
0.0138277
0.0140326
0.0142927
0.0145224
0.0146163
0.0144595
0.0139826
0.0131995
0.0121943
0.0110776
0.00994581
0.0088617
0.00785167
0.00691448
0.0060431
0.00523682
0.00449861
0.00383037
0.00323551
0.0027288
0.00234298
0.00211056
0.00202348
0.00203051
0.0020706
0.00208777
0.00200294
0.00137067
0.00291301
0.0113726
0.0124028
0.0121905
0.0115247
0.0109393
0.0105402
0.0102534
0.0100782
0.0100468
0.0101334
0.010281
0.0104269
0.0105054
0.01045
0.0102094
0.00977682
0.00919715
0.00854512
0.00789232
0.00728459
0.00673978
0.006257
0.00582755
0.00544203
0.00509129
0.00476491
0.00445134
0.0041414
0.00383249
0.00352786
0.00322958
0.00293912
0.00267174
0.00244278
0.002336
0.00284784
0.00151329
0.00229987
0.00248153
0.00263472
0.00279244
0.00249517
0.00230301
0.00214638
0.0020166
0.00193159
0.00188556
0.00186581
0.00186151
0.00186451
0.00186846
0.00186812
0.00185918
0.00183877
0.00180643
0.0017649
0.00171912
0.00167412
0.00163338
0.00159829
0.00156851
0.00154276
0.00151941
0.00149691
0.00147386
0.00144906
0.0014217
0.0013917
0.00135996
0.0013285
0.00130027
0.00127827
0.0012629
0.00124697
0.0012331
0.00124845
0.00124394
)
;

boundaryField
{
    floor
    {
        type            compressible::alphatWallFunction;
        Prt             0.85;
        value           nonuniform List<scalar> 
29
(
0.00020673
0.000116713
0.000137537
0.000160867
0.000177375
0.000182343
0.000178925
0.000167893
0.000155974
0.000145245
0.000135912
0.000127817
0.000120779
0.000114601
0.000109113
0.000104141
9.9385e-05
9.43977e-05
8.85066e-05
7.99235e-05
7.99226e-05
8.5696e-05
8.75919e-05
8.85753e-05
0.000206727
0.000116712
0.000113906
0.00011571
0.000216004
)
;
    }
    ceiling
    {
        type            compressible::alphatWallFunction;
        Prt             0.85;
        value           nonuniform List<scalar> 
43
(
0.000316035
0.000339251
0.000358692
0.000378656
0.000341113
0.000316578
0.000296411
0.00027958
0.000268494
0.000262471
0.000259884
0.000259322
0.00025972
0.000260241
0.000260198
0.000259026
0.000256345
0.000252088
0.00024661
0.000240553
0.000234582
0.000229163
0.000224483
0.000220502
0.000217053
0.000213921
0.000210898
0.000207794
0.000204446
0.000200743
0.000196672
0.000192351
0.000188056
0.000184192
0.000181172
0.000179059
0.000176874
0.00017498
0.00017712
0.000176524
0.000498289
0.00055883
0.000393435
)
;
    }
    sWall
    {
        type            compressible::alphatWallFunction;
        Prt             0.85;
        value           uniform 0.000314931;
    }
    nWall
    {
        type            compressible::alphatWallFunction;
        Prt             0.85;
        value           nonuniform List<scalar> 6(9.01735e-05 0.000126457 0.00014574 0.000193499 0.000212786 0.000176259);
    }
    sideWalls
    {
        type            empty;
    }
    glass1
    {
        type            compressible::alphatWallFunction;
        Prt             0.85;
        value           nonuniform List<scalar> 9(0.000234469 0.000294985 0.000344575 0.000391325 0.000437255 0.000482143 0.000509461 0.000508874 0.000490835);
    }
    glass2
    {
        type            compressible::alphatWallFunction;
        Prt             0.85;
        value           nonuniform List<scalar> 2(0.000167786 0.000179194);
    }
    sun
    {
        type            compressible::alphatWallFunction;
        Prt             0.85;
        value           nonuniform List<scalar> 
14
(
0.000240044
0.000268258
0.000280383
0.000298397
0.000318854
0.000335051
0.000344502
0.000340273
0.000324914
0.000307498
0.00028855
0.00026803
0.000249402
0.00022971
)
;
    }
    heatsource1
    {
        type            compressible::alphatWallFunction;
        Prt             0.85;
        value           nonuniform List<scalar> 3(8.62138e-05 8.86493e-05 9.03603e-05);
    }
    heatsource2
    {
        type            compressible::alphatWallFunction;
        Prt             0.85;
        value           nonuniform List<scalar> 4(0.000221285 0.000191139 0.000191136 0.000205616);
    }
    Table_master
    {
        type            compressible::alphatWallFunction;
        Prt             0.85;
        value           nonuniform List<scalar> 9(0.000222532 0.000193934 0.00017043 0.000151383 0.000135936 0.000123351 0.000113061 0.000104888 9.92871e-05);
    }
    Table_slave
    {
        type            compressible::alphatWallFunction;
        Prt             0.85;
        value           nonuniform List<scalar> 9(0.000252576 0.000231238 0.000214242 0.000199727 0.000186203 0.000172839 0.000159083 0.000144409 0.000127646);
    }
    inlet
    {
        type            fixedValue;
        value           uniform 1.94e-05;
    }
    outlet
    {
        type            zeroGradient;
    }
}


// ************************************************************************* //
