/*--------------------------------*- C++ -*----------------------------------*\
  =========                 |
  \\      /  F ield         | OpenFOAM: The Open Source CFD Toolbox
   \\    /   O peration     | Website:  https://openfoam.org
    \\  /    A nd           | Version:  6
     \\/     M anipulation  |
\*---------------------------------------------------------------------------*/
FoamFile
{
    version     2.0;
    format      ascii;
    class       volScalarField;
    location    "1400";
    object      alphat;
}
// * * * * * * * * * * * * * * * * * * * * * * * * * * * * * * * * * * * * * //

dimensions      [1 -1 -1 0 0 0 0];

internalField   nonuniform List<scalar> 
459
(
0.000987583
0.00105428
0.00105198
0.00109215
0.00112773
0.00115902
0.00118728
0.00121389
0.00124049
0.00126068
0.00127019
0.00126606
0.00124822
0.00122218
0.00119448
0.00043265
0.000595854
0.000580802
0.000559465
0.000537639
0.000515302
0.00049085
0.000466972
0.000445052
0.000425032
0.000406652
0.000389694
0.000373938
0.00035911
0.00034481
0.000330396
0.00031471
0.000303496
0.000277719
0.00142572
0.00288398
0.00260677
0.00302765
0.00335106
0.0036826
0.00400393
0.00428563
0.0044803
0.00462759
0.00470533
0.00465474
0.00439031
0.00377357
0.00259707
0.00121169
0.00103601
0.000785956
0.00111398
0.00136852
0.00154374
0.00163285
0.00161916
0.00137155
0.00122637
0.0011114
0.00101439
0.000930861
0.000857549
0.00079135
0.000728747
0.000667645
0.000615565
0.000570784
0.000674294
0.000365043
0.00180841
0.00405517
0.00303366
0.0041673
0.00457033
0.00484697
0.00505095
0.00520468
0.0053215
0.00543758
0.00554456
0.0056051
0.00557488
0.00539559
0.00491578
0.00371655
0.00130739
0.000963098
0.00167959
0.00209505
0.00232808
0.00242374
0.00221427
0.000649067
0.000578818
0.000523785
0.00048027
0.000445343
0.000416879
0.000393441
0.000374212
0.000359098
0.000396277
0.000461841
0.000754547
0.000424468
0.00219224
0.00561686
0.00297208
0.00449182
0.00500912
0.00515861
0.00519584
0.00520261
0.00523297
0.00531067
0.00542611
0.00554498
0.00564592
0.0057231
0.00573202
0.00546868
0.00434721
0.00118732
0.00213651
0.00278702
0.00304498
0.0031281
0.00311591
0.00272442
0.000701447
0.000655036
0.000630163
0.00061525
0.000602446
0.000585932
0.000565406
0.000543009
0.000515129
0.000486195
0.000489651
0.000860966
0.000473945
0.00258757
0.00769216
0.00348141
0.0042002
0.00506766
0.00520401
0.00513756
0.00502985
0.00499428
0.00506217
0.0051961
0.00533843
0.00547546
0.00561819
0.00575261
0.00579366
0.00556128
0.00472598
0.00431514
0.00404311
0.0038171
0.00365543
0.0035408
0.00337903
0.00292479
0.002794
0.00274955
0.00271415
0.00265399
0.00254899
0.00234613
0.00203783
0.00166317
0.00126002
0.000934076
0.000900908
0.000639506
0.000623977
0.000762488
0.00085243
0.00300221
0.00995823
0.00550358
0.00395703
0.00457311
0.00495058
0.0050484
0.00497763
0.00483824
0.00492979
0.00508019
0.00522251
0.00535643
0.00550136
0.00564951
0.00573474
0.00564409
0.00526485
0.00480917
0.00439087
0.00403154
0.00375728
0.00358183
0.00348417
0.00341471
0.0033948
0.00337852
0.00333964
0.00326835
0.00316406
0.00301982
0.00277025
0.0024119
0.00195489
0.00150662
0.00112507
0.000874459
0.000751128
0.00108323
0.000880867
0.00339991
0.0117215
0.00886171
0.00574285
0.00466368
0.00444581
0.00463846
0.0048802
0.00490582
0.00500048
0.00510191
0.00520329
0.00531182
0.00544393
0.00559331
0.00569353
0.00562966
0.00532631
0.00488607
0.00441561
0.00396538
0.0036153
0.0034365
0.00337827
0.00337523
0.00338277
0.00336832
0.00332267
0.00325181
0.00316966
0.00309063
0.00298787
0.00273619
0.00235498
0.00195348
0.00156842
0.00128149
0.00116133
0.00114939
0.000962523
0.00348706
0.0110462
0.00964696
0.00853938
0.00715937
0.0060924
0.00560432
0.00547218
0.00531044
0.00522274
0.00521281
0.00524859
0.00532059
0.00544051
0.00559782
0.00571264
0.00565167
0.00534315
0.00485701
0.00427002
0.00375092
0.00343987
0.00330384
0.00325288
0.00322903
0.00319999
0.00314923
0.00307873
0.00300666
0.00295918
0.0029583
0.00300483
0.00300181
0.00273302
0.00248174
0.00234117
0.00238465
0.00262518
0.00340544
0.00151051
0.00340307
0.00407357
0.00477771
0.00511684
0.00530524
0.00526697
0.00516122
0.00509115
0.00509793
0.00516832
0.00522894
0.00527001
0.00533327
0.00546078
0.00563925
0.00575911
0.00565437
0.00526118
0.00463714
0.00399044
0.00356192
0.00334455
0.00323322
0.00315672
0.00308231
0.00299389
0.00288307
0.00275072
0.00261021
0.00248202
0.00237837
0.00229566
0.0022289
0.00217796
0.00216324
0.00218622
0.00219973
0.00214984
0.00202851
0.00142267
0.00278346
0.00573716
0.00572209
0.00572292
0.00573862
0.00578802
0.00581465
0.00573187
0.00553632
0.00538377
0.00536009
0.00548184
0.00567566
0.00575606
0.00548846
0.00487969
0.00423601
0.00379952
0.00356706
0.00343665
0.00333587
0.00323056
0.00310704
0.00296199
0.00279833
0.00262308
0.00244759
0.00229112
0.00217973
0.00213045
0.00212575
0.0021465
0.00218562
0.00222468
0.00222707
0.00216112
0.0019324
0.00117262
0.0027077
0.00628272
0.00630115
0.00615082
0.00607024
0.00599326
0.00588396
0.00544388
0.00490177
0.00479758
0.00493367
0.00524451
0.00559461
0.00572691
0.00541668
0.00490029
0.0044939
0.00423728
0.00409558
0.00401198
0.00394504
0.00386826
0.00376329
0.00361848
0.00343106
0.00320919
0.00297054
0.00273708
0.00252785
0.00237641
0.00229502
0.00227092
0.00227991
0.00228727
0.00225808
0.00224576
0.00179168
0.00120416
0.00214101
0.00232868
0.00247947
0.00263593
0.00251377
0.0023996
0.00223324
0.00196188
0.00167703
0.00146269
0.00127752
0.00120376
0.00121537
0.00122759
0.00121606
0.00117138
0.00111023
0.00106014
0.00102469
0.00100716
0.000997895
0.000990796
0.000982397
0.000970763
0.00095531
0.000936995
0.000918449
0.000903608
0.000896784
0.000901732
0.000921523
0.000952273
0.000991529
0.00103889
0.00109269
0.00114834
0.00115678
0.00103532
0.00102163
0.00126888
)
;

boundaryField
{
    floor
    {
        type            compressible::alphatWallFunction;
        Prt             0.85;
        value           nonuniform List<scalar> 
29
(
0.000169447
5.8873e-05
8.37941e-05
8.15349e-05
7.832e-05
7.50157e-05
7.16167e-05
6.78745e-05
6.41974e-05
6.08009e-05
5.76801e-05
5.47983e-05
5.21246e-05
4.96269e-05
4.72638e-05
4.49729e-05
4.26509e-05
4.01089e-05
3.82814e-05
3.40461e-05
3.40456e-05
4.82105e-05
5.75909e-05
6.52724e-05
0.000169445
5.88723e-05
0.000111782
0.000137132
0.000168455
)
;
    }
    ceiling
    {
        type            compressible::alphatWallFunction;
        Prt             0.85;
        value           nonuniform List<scalar> 
43
(
0.000295385
0.00031954
0.000338801
0.000358766
0.000343308
0.000328777
0.000307454
0.000272284
0.000234782
0.000206103
0.00018095
0.000170829
0.000172432
0.000174115
0.000172529
0.000166363
0.000157881
0.000150894
0.000145925
0.00014346
0.000142156
0.000141156
0.000139972
0.000138329
0.000136143
0.000133547
0.000130913
0.0001288
0.000127828
0.000128534
0.000131353
0.000135718
0.000141266
0.000147927
0.000155449
0.000163186
0.000164355
0.000147427
0.000145506
0.000179803
0.000454696
0.000536494
0.00036758
)
;
    }
    sWall
    {
        type            compressible::alphatWallFunction;
        Prt             0.85;
        value           uniform 0.000294202;
    }
    nWall
    {
        type            compressible::alphatWallFunction;
        Prt             0.85;
        value           nonuniform List<scalar> 6(0.000121182 0.000125251 0.000136857 0.000166237 0.000170589 0.000179487);
    }
    sideWalls
    {
        type            empty;
    }
    glass1
    {
        type            compressible::alphatWallFunction;
        Prt             0.85;
        value           nonuniform List<scalar> 9(0.000137115 0.000196699 0.000247185 0.000296751 0.000346908 0.000398707 0.000447735 0.000458518 0.000448439);
    }
    glass2
    {
        type            compressible::alphatWallFunction;
        Prt             0.85;
        value           nonuniform List<scalar> 2(0.000211149 0.000199401);
    }
    sun
    {
        type            compressible::alphatWallFunction;
        Prt             0.85;
        value           nonuniform List<scalar> 
14
(
0.000140615
0.000149972
0.000149648
0.00015526
0.000160212
0.00016455
0.000168457
0.000172127
0.000175786
0.000178556
0.000179859
0.000179294
0.000176845
0.000173265
)
;
    }
    heatsource1
    {
        type            compressible::alphatWallFunction;
        Prt             0.85;
        value           nonuniform List<scalar> 3(8.80697e-05 0.000108453 0.000121446);
    }
    heatsource2
    {
        type            compressible::alphatWallFunction;
        Prt             0.85;
        value           nonuniform List<scalar> 4(0.000171897 0.000147481 0.00014748 0.000185021);
    }
    Table_master
    {
        type            compressible::alphatWallFunction;
        Prt             0.85;
        value           nonuniform List<scalar> 9(9.17963e-05 8.1306e-05 7.29778e-05 6.63151e-05 6.09121e-05 5.64689e-05 5.27811e-05 4.97342e-05 4.73251e-05);
    }
    Table_slave
    {
        type            compressible::alphatWallFunction;
        Prt             0.85;
        value           nonuniform List<scalar> 9(9.95298e-05 9.26834e-05 8.89902e-05 8.67673e-05 8.48536e-05 8.23779e-05 7.92884e-05 7.59015e-05 7.16608e-05);
    }
    inlet
    {
        type            fixedValue;
        value           uniform 1.94e-05;
    }
    outlet
    {
        type            zeroGradient;
    }
}


// ************************************************************************* //
