/*--------------------------------*- C++ -*----------------------------------*\
  =========                 |
  \\      /  F ield         | OpenFOAM: The Open Source CFD Toolbox
   \\    /   O peration     | Website:  https://openfoam.org
    \\  /    A nd           | Version:  6
     \\/     M anipulation  |
\*---------------------------------------------------------------------------*/
FoamFile
{
    version     2.0;
    format      ascii;
    class       volScalarField;
    location    "700";
    object      epsilon;
}
// * * * * * * * * * * * * * * * * * * * * * * * * * * * * * * * * * * * * * //

dimensions      [0 2 -3 0 0 0 0];

internalField   nonuniform List<scalar> 
459
(
0.000359471
0.000457141
0.000472776
0.000539222
0.000605108
0.000670014
0.000735921
0.000806397
0.00086886
0.000906961
0.000908087
0.000864162
0.000778482
0.000670396
0.000565372
2.90855e-05
5.3472e-05
6.92663e-05
6.35797e-05
5.56018e-05
4.75903e-05
3.97819e-05
3.3165e-05
2.78317e-05
2.35661e-05
2.01373e-05
1.73788e-05
1.51241e-05
1.32442e-05
1.16328e-05
1.01859e-05
8.79528e-06
8.18128e-06
6.4561e-06
0.000964343
0.00148171
0.000432118
0.000410945
0.000424656
0.000447521
0.000481176
0.000530119
0.000587079
0.000635362
0.000657045
0.000639076
0.000580214
0.00049957
0.000453949
0.0005817
0.000173589
4.68724e-05
9.17436e-05
8.79125e-05
7.54225e-05
6.17059e-05
5.01718e-05
4.34434e-05
3.55397e-05
2.87615e-05
2.33313e-05
1.90583e-05
1.57287e-05
1.3126e-05
1.10993e-05
9.63908e-06
8.83325e-06
8.61362e-06
2.60341e-05
1.68945e-05
0.00182526
0.00385381
0.000562168
0.000394074
0.000402253
0.00043827
0.000492828
0.000567882
0.000654437
0.000727619
0.000764104
0.000752107
0.000693182
0.000605738
0.000521792
0.000476512
0.0005327
0.000336115
0.000208737
0.000143623
0.000103975
7.85242e-05
6.38333e-05
0.000110337
7.91483e-05
5.87226e-05
4.4968e-05
3.54244e-05
2.86126e-05
2.36331e-05
1.99375e-05
1.72028e-05
1.3369e-05
1.149e-05
4.94803e-05
2.76513e-05
0.00304912
0.00820519
0.000946193
0.00040311
0.000389348
0.000437946
0.000516221
0.000629972
0.000756712
0.000850544
0.000889381
0.000869954
0.000798936
0.000696285
0.000580515
0.000488167
0.000447604
0.000780485
0.000421302
0.000239381
0.000153605
0.000107395
8.04695e-05
6.84104e-05
0.000153877
0.000122312
0.000103804
9.16704e-05
8.20452e-05
7.27176e-05
6.43109e-05
5.59174e-05
4.67338e-05
2.85478e-05
1.91757e-05
8.19269e-05
3.83189e-05
0.00476648
0.0147528
0.00195525
0.000489719
0.000392147
0.000441003
0.000552562
0.000756059
0.000938201
0.00103873
0.00106193
0.00101892
0.000920747
0.000786398
0.000634891
0.000489491
0.000368782
0.000298261
0.000222855
0.000162776
0.000119528
9.04715e-05
7.19422e-05
6.18929e-05
6.2215e-05
6.10297e-05
5.96585e-05
5.78304e-05
5.49122e-05
5.05163e-05
4.57152e-05
4.1134e-05
3.69808e-05
3.05054e-05
2.40228e-05
5.73591e-05
4.45166e-05
7.52889e-05
0.000131144
0.000184083
0.00717188
0.0218832
0.00449818
0.000973698
0.000575627
0.000563503
0.000707485
0.00109027
0.00127764
0.00133355
0.0013076
0.00122237
0.00108652
0.000910295
0.000713051
0.00052179
0.000362642
0.00025273
0.000182531
0.000134499
0.000100625
7.87725e-05
6.63993e-05
6.12537e-05
6.17305e-05
6.45643e-05
6.75424e-05
6.9358e-05
6.88633e-05
6.49019e-05
5.70914e-05
4.86074e-05
4.08761e-05
3.41168e-05
2.98891e-05
4.21184e-05
4.49132e-05
5.63073e-05
0.000242535
0.000208887
0.0100567
0.0261051
0.00951242
0.00338332
0.00197669
0.00156451
0.00172904
0.00187737
0.00187564
0.0017891
0.00166079
0.00149833
0.00129672
0.00105871
0.000803836
0.000563455
0.0003677
0.000235254
0.000156491
0.00011103
8.41171e-05
6.98787e-05
6.45417e-05
6.54006e-05
7.05025e-05
7.76781e-05
8.52408e-05
9.22202e-05
9.74372e-05
9.88901e-05
9.30033e-05
8.08118e-05
6.89311e-05
5.92212e-05
5.53482e-05
6.28514e-05
8.11826e-05
0.00013279
0.000315746
0.000302201
0.0107548
0.0292381
0.0159202
0.0104292
0.00712279
0.00519965
0.00409929
0.003328
0.00279573
0.00241756
0.00211728
0.00183468
0.00153345
0.00120619
0.00087518
0.000577071
0.000342494
0.00019667
0.000118134
8.52987e-05
7.0508e-05
6.54769e-05
6.67005e-05
7.2244e-05
8.09318e-05
9.18803e-05
0.000104619
0.000119143
0.000135536
0.000153537
0.000171819
0.000181974
0.000188248
0.000206354
0.00024671
0.000373587
0.000702441
0.00135761
0.00403793
0.00117584
0.00997348
0.0169322
0.013615
0.0102873
0.00780493
0.00605114
0.0048239
0.00398994
0.00341162
0.0029694
0.00257224
0.00216534
0.00172948
0.00127521
0.000847032
0.000493452
0.000233788
0.000127678
8.36464e-05
6.63533e-05
6.07895e-05
6.15702e-05
6.63697e-05
7.41414e-05
8.44942e-05
9.74234e-05
0.000113321
0.000133052
0.000158007
0.000190204
0.000232388
0.000288062
0.000363795
0.000478469
0.000648935
0.000881111
0.00114621
0.00137519
0.00154853
0.000963119
0.00446337
0.00668446
0.00642677
0.00586514
0.00531214
0.00471393
0.00409312
0.00346243
0.0028216
0.00218188
0.00156104
0.000960481
0.000474838
0.000227342
0.000112652
6.94176e-05
5.34746e-05
4.85548e-05
4.88193e-05
5.20271e-05
5.72779e-05
6.42814e-05
7.30725e-05
8.39234e-05
9.73687e-05
0.000114286
0.000136028
0.000164638
0.000203213
0.000257019
0.000331317
0.000433467
0.000567162
0.000719685
0.000849629
0.00090179
0.000842442
0.000534194
0.00318706
0.0064435
0.00640018
0.0053018
0.00459203
0.00406566
0.00342965
0.00268847
0.00187652
0.00119623
0.000687298
0.000352824
0.000170216
8.80751e-05
5.43291e-05
4.27399e-05
4.00257e-05
4.10087e-05
4.38354e-05
4.7964e-05
5.32664e-05
5.98248e-05
6.78629e-05
7.77442e-05
9.00224e-05
0.000105542
0.000125593
0.000152137
0.00018804
0.000236821
0.000303378
0.000392651
0.000505258
0.000632907
0.000728107
0.000826045
0.000758356
0.000559812
0.00267353
0.00264853
0.00282415
0.00333056
0.00279387
0.00225655
0.00182304
0.00146109
0.00119322
0.000933124
0.000677057
0.000454724
0.000275764
0.000158434
9.39446e-05
6.30943e-05
4.96805e-05
4.47867e-05
4.4284e-05
4.6307e-05
5.01046e-05
5.51427e-05
6.13873e-05
6.89681e-05
7.80974e-05
8.90714e-05
0.000102296
0.00011835
0.000138113
0.000163032
0.000194661
0.000233908
0.000282988
0.000344789
0.000422326
0.00053154
0.000569834
0.000529032
0.000435097
0.000347613
)
;

boundaryField
{
    floor
    {
        Cmu             0.09;
        kappa           0.41;
        E               9.8;
        type            epsilonWallFunction;
        value           nonuniform List<scalar> 
29
(
0.000565372
2.90855e-05
5.3472e-05
6.92663e-05
6.35797e-05
5.56018e-05
4.75903e-05
3.97819e-05
3.3165e-05
2.78317e-05
2.35661e-05
2.01373e-05
1.73788e-05
1.51241e-05
1.32442e-05
1.16328e-05
1.01859e-05
8.79528e-06
8.18128e-06
6.4561e-06
6.4561e-06
1.68945e-05
2.76513e-05
3.83189e-05
0.000565372
2.90855e-05
4.68724e-05
0.000336115
0.000780485
)
;
    }
    ceiling
    {
        Cmu             0.09;
        kappa           0.41;
        E               9.8;
        type            epsilonWallFunction;
        value           nonuniform List<scalar> 
43
(
0.00267353
0.00264853
0.00282415
0.00333056
0.00279387
0.00225655
0.00182304
0.00146109
0.00119322
0.000933124
0.000677057
0.000454724
0.000275764
0.000158434
9.39446e-05
6.30943e-05
4.96805e-05
4.47867e-05
4.4284e-05
4.6307e-05
5.01046e-05
5.51427e-05
6.13873e-05
6.89681e-05
7.80974e-05
8.90714e-05
0.000102296
0.00011835
0.000138113
0.000163032
0.000194661
0.000233908
0.000282988
0.000344789
0.000422326
0.00053154
0.000569834
0.000529032
0.000435097
0.000347613
0.00997348
0.0169322
0.00318706
)
;
    }
    sWall
    {
        Cmu             0.09;
        kappa           0.41;
        E               9.8;
        type            epsilonWallFunction;
        value           uniform 0.00267353;
    }
    nWall
    {
        Cmu             0.09;
        kappa           0.41;
        E               9.8;
        type            epsilonWallFunction;
        value           nonuniform List<scalar> 6(0.000184083 0.000208887 0.000302201 0.000534194 0.000559812 0.000347613);
    }
    sideWalls
    {
        type            empty;
    }
    glass1
    {
        Cmu             0.09;
        kappa           0.41;
        E               9.8;
        type            epsilonWallFunction;
        value           nonuniform List<scalar> 9(0.000359471 0.000964343 0.00182526 0.00304912 0.00476648 0.00717188 0.0100567 0.0107548 0.00997348);
    }
    glass2
    {
        Cmu             0.09;
        kappa           0.41;
        E               9.8;
        type            epsilonWallFunction;
        value           nonuniform List<scalar> 2(0.00117584 0.000963119);
    }
    sun
    {
        Cmu             0.09;
        kappa           0.41;
        E               9.8;
        type            epsilonWallFunction;
        value           nonuniform List<scalar> 
14
(
0.000359471
0.000457141
0.000472776
0.000539222
0.000605108
0.000670014
0.000735921
0.000806397
0.00086886
0.000906961
0.000908087
0.000864162
0.000778482
0.000670396
)
;
    }
    heatsource1
    {
        Cmu             0.09;
        kappa           0.41;
        E               9.8;
        type            epsilonWallFunction;
        value           nonuniform List<scalar> 3(7.52889e-05 0.000131144 0.000184083);
    }
    heatsource2
    {
        Cmu             0.09;
        kappa           0.41;
        E               9.8;
        type            epsilonWallFunction;
        value           nonuniform List<scalar> 4(0.0005817 0.000173589 0.000173589 0.0005327);
    }
    Table_master
    {
        Cmu             0.09;
        kappa           0.41;
        E               9.8;
        type            epsilonWallFunction;
        value           nonuniform List<scalar> 9(0.000110337 7.91483e-05 5.87226e-05 4.4968e-05 3.54244e-05 2.86126e-05 2.36331e-05 1.99375e-05 1.72028e-05);
    }
    Table_slave
    {
        Cmu             0.09;
        kappa           0.41;
        E               9.8;
        type            epsilonWallFunction;
        value           nonuniform List<scalar> 9(0.000153877 0.000122312 0.000103804 9.16704e-05 8.20452e-05 7.27176e-05 6.43109e-05 5.59174e-05 4.67338e-05);
    }
    inlet
    {
        type            turbulentMixingLengthDissipationRateInlet;
        mixingLength    0.01;
        phi             phi;
        k               k;
        value           uniform 0.000101881;
    }
    outlet
    {
        type            zeroGradient;
    }
}


// ************************************************************************* //
