/*--------------------------------*- C++ -*----------------------------------*\
  =========                 |
  \\      /  F ield         | OpenFOAM: The Open Source CFD Toolbox
   \\    /   O peration     | Website:  https://openfoam.org
    \\  /    A nd           | Version:  6
     \\/     M anipulation  |
\*---------------------------------------------------------------------------*/
FoamFile
{
    version     2.0;
    format      ascii;
    class       volScalarField;
    location    "460";
    object      epsilon;
}
// * * * * * * * * * * * * * * * * * * * * * * * * * * * * * * * * * * * * * //

dimensions      [0 2 -3 0 0 0 0];

internalField   nonuniform List<scalar> 
459
(
0.000282482
0.000366667
0.00038798
0.000447938
0.000509084
0.000571798
0.000638992
0.0007111
0.000770202
0.000804415
0.000801557
0.000753549
0.000658264
0.000515667
0.000336795
7.43866e-05
0.000167649
0.000146264
0.000127029
0.000111769
9.74606e-05
8.11444e-05
6.65912e-05
5.48655e-05
4.56022e-05
3.83312e-05
3.25283e-05
2.78117e-05
2.38874e-05
2.05113e-05
1.74521e-05
1.47077e-05
1.16731e-05
1.61862e-05
0.00071808
0.00104321
0.000340694
0.000329409
0.000343687
0.000368157
0.000405777
0.000458049
0.000511869
0.000551936
0.000563645
0.000539285
0.00048113
0.000399661
0.000314732
0.000388329
8.2155e-05
0.00019459
0.000383287
0.000192839
0.000134308
0.000104708
8.67719e-05
8.01218e-05
6.55859e-05
5.2578e-05
4.21465e-05
3.40116e-05
2.77173e-05
2.28214e-05
1.90381e-05
1.64071e-05
1.52346e-05
1.94232e-05
2.24304e-05
3.17211e-05
0.00131753
0.00256342
0.000417675
0.000308223
0.000318166
0.000352572
0.000406453
0.000478387
0.000551682
0.000605736
0.000627325
0.000611258
0.000561491
0.000487364
0.000407603
0.000356677
0.000413523
0.000343482
0.000261562
0.000185981
0.000142555
0.000114429
0.000101717
0.000210278
0.00014164
9.95774e-05
7.2936e-05
5.54267e-05
4.35369e-05
3.52411e-05
2.93985e-05
2.54584e-05
2.02388e-05
2.16898e-05
3.10109e-05
4.16898e-05
0.00214493
0.00530389
0.000652128
0.000306614
0.000303141
0.000348313
0.000423913
0.000528013
0.000621852
0.000682372
0.00070556
0.000689651
0.000638943
0.00055869
0.000476284
0.000407479
0.000369297
0.000758991
0.000459313
0.000293652
0.000207167
0.000156633
0.000125651
0.000114898
0.000282301
0.000214112
0.000176629
0.000154029
0.000138478
0.000125334
0.000111309
9.80645e-05
8.38118e-05
5.10295e-05
3.63686e-05
5.32408e-05
5.92743e-05
0.00328525
0.00944019
0.00126021
0.000349479
0.000296307
0.000351037
0.000474769
0.000641493
0.000750505
0.000804077
0.000817003
0.000788939
0.000721091
0.000621941
0.000512182
0.000411933
0.000334636
0.000305202
0.000263527
0.000222748
0.00018645
0.000156401
0.000133304
0.000118076
0.000118804
0.000113781
0.0001089
0.000104244
9.90423e-05
9.24211e-05
8.37878e-05
7.42977e-05
6.51865e-05
5.37616e-05
4.30747e-05
5.66904e-05
6.22914e-05
8.58389e-05
8.0964e-05
6.99762e-05
0.00486942
0.0140422
0.00279531
0.000615746
0.000385184
0.000418549
0.000673169
0.000891706
0.000976191
0.000997144
0.000983616
0.000934962
0.000842579
0.00071085
0.000563891
0.000431439
0.000334881
0.00027983
0.000245792
0.0002181
0.000193148
0.000171164
0.000153318
0.000140802
0.000135635
0.000134629
0.000134434
0.000132626
0.000128107
0.000120509
0.000109767
9.55593e-05
8.08665e-05
6.75947e-05
5.60894e-05
5.61121e-05
6.36382e-05
7.08637e-05
0.000172909
0.000132194
0.0067946
0.0169036
0.00603737
0.00201046
0.00118156
0.00103816
0.00129979
0.00137036
0.00134404
0.00129071
0.00122998
0.00114563
0.00101529
0.000839657
0.000649695
0.000483906
0.000368653
0.000304537
0.000269843
0.0002457
0.000225529
0.000208832
0.000196751
0.000190314
0.000189863
0.000192715
0.000194217
0.00019126
0.00018315
0.000171264
0.00015786
0.000144033
0.000126179
0.000110697
9.97185e-05
9.4147e-05
9.57895e-05
0.000103475
0.000276683
0.000216779
0.00732917
0.0203804
0.0106589
0.00653271
0.0043252
0.0032841
0.00261978
0.00217563
0.00188409
0.00169958
0.00157118
0.00143712
0.00125109
0.00101246
0.000768192
0.000566124
0.000434893
0.000367006
0.000334165
0.000314998
0.000302502
0.00029485
0.000292447
0.000295115
0.000301061
0.000306357
0.000305755
0.00029546
0.000275396
0.000250643
0.000230013
0.000220516
0.000223291
0.000228824
0.000252196
0.000291132
0.000353536
0.000431133
0.00159013
0.000422637
0.00684881
0.0118208
0.00978105
0.00728558
0.0054444
0.00418859
0.00332241
0.00274018
0.00237777
0.00216756
0.00201861
0.00183534
0.00156509
0.00123048
0.000925133
0.000699887
0.000580376
0.000531228
0.000512851
0.00050837
0.000510491
0.000516034
0.000525035
0.000537187
0.000549296
0.000555439
0.000547674
0.000518794
0.000466902
0.000400764
0.000340379
0.000304947
0.000303073
0.000332892
0.000390461
0.000482921
0.000612064
0.000776217
0.000956858
0.000522722
0.00455478
0.00617695
0.00496075
0.00409964
0.0035051
0.0031366
0.00295523
0.00286038
0.00272717
0.00245649
0.00204551
0.00157786
0.00128376
0.00114273
0.00110068
0.00109773
0.00111013
0.00113237
0.0011551
0.00117226
0.00118757
0.0012056
0.00122347
0.00123246
0.00121762
0.00115993
0.00104408
0.00087331
0.000685688
0.000536025
0.000443398
0.000402651
0.000417622
0.000485931
0.000597477
0.000729263
0.00088568
0.000893365
0.00286173
0.00426346
0.00417022
0.00420345
0.00433959
0.00454391
0.00480309
0.00499438
0.00497721
0.00463423
0.00409397
0.00354076
0.00318348
0.00300471
0.00294432
0.00296044
0.00300814
0.00305812
0.00309623
0.00311589
0.00313121
0.00316149
0.00320998
0.00326784
0.00330834
0.00328453
0.00314124
0.00284873
0.0024482
0.00200168
0.00157188
0.00121564
0.000961971
0.00081617
0.000754976
0.00075808
0.00189027
0.00132024
0.00115981
0.00149494
0.00191837
0.00205082
0.00178477
0.00178591
0.00191528
0.00212897
0.00233628
0.00249142
0.00254618
0.00247462
0.00232577
0.00218017
0.00205526
0.00197363
0.0019284
0.00190226
0.00188316
0.00186488
0.00184528
0.00183001
0.00182118
0.00181485
0.00180676
0.00178746
0.00174388
0.00166465
0.0015492
0.00141656
0.00127916
0.00114807
0.00103375
0.000940942
0.000872761
0.000827415
0.000794562
0.00075885
0.00083533
0.000760737
)
;

boundaryField
{
    floor
    {
        Cmu             0.09;
        kappa           0.41;
        E               9.8;
        type            epsilonWallFunction;
        value           nonuniform List<scalar> 
29
(
0.000336795
7.43866e-05
0.000167649
0.000146264
0.000127029
0.000111769
9.74606e-05
8.11444e-05
6.65912e-05
5.48655e-05
4.56022e-05
3.83312e-05
3.25283e-05
2.78117e-05
2.38874e-05
2.05113e-05
1.74521e-05
1.47077e-05
1.16731e-05
1.61862e-05
1.61862e-05
3.17211e-05
4.16898e-05
5.92743e-05
0.000336795
7.43866e-05
0.00019459
0.000343482
0.000758991
)
;
    }
    ceiling
    {
        Cmu             0.09;
        kappa           0.41;
        E               9.8;
        type            epsilonWallFunction;
        value           nonuniform List<scalar> 
43
(
0.00115981
0.00149494
0.00191837
0.00205082
0.00178477
0.00178591
0.00191528
0.00212897
0.00233628
0.00249142
0.00254618
0.00247462
0.00232577
0.00218017
0.00205526
0.00197363
0.0019284
0.00190226
0.00188316
0.00186488
0.00184528
0.00183001
0.00182118
0.00181485
0.00180676
0.00178746
0.00174388
0.00166465
0.0015492
0.00141656
0.00127916
0.00114807
0.00103375
0.000940942
0.000872761
0.000827415
0.000794562
0.00075885
0.00083533
0.000760737
0.00684881
0.0118208
0.00286173
)
;
    }
    sWall
    {
        Cmu             0.09;
        kappa           0.41;
        E               9.8;
        type            epsilonWallFunction;
        value           uniform 0.00115981;
    }
    nWall
    {
        Cmu             0.09;
        kappa           0.41;
        E               9.8;
        type            epsilonWallFunction;
        value           nonuniform List<scalar> 6(6.99762e-05 0.000132194 0.000216779 0.000893365 0.00132024 0.000760737);
    }
    sideWalls
    {
        type            empty;
    }
    glass1
    {
        Cmu             0.09;
        kappa           0.41;
        E               9.8;
        type            epsilonWallFunction;
        value           nonuniform List<scalar> 9(0.000282482 0.00071808 0.00131753 0.00214493 0.00328525 0.00486942 0.0067946 0.00732917 0.00684881);
    }
    glass2
    {
        Cmu             0.09;
        kappa           0.41;
        E               9.8;
        type            epsilonWallFunction;
        value           nonuniform List<scalar> 2(0.000422637 0.000522722);
    }
    sun
    {
        Cmu             0.09;
        kappa           0.41;
        E               9.8;
        type            epsilonWallFunction;
        value           nonuniform List<scalar> 
14
(
0.000282482
0.000366667
0.00038798
0.000447938
0.000509084
0.000571798
0.000638992
0.0007111
0.000770202
0.000804415
0.000801557
0.000753549
0.000658264
0.000515667
)
;
    }
    heatsource1
    {
        Cmu             0.09;
        kappa           0.41;
        E               9.8;
        type            epsilonWallFunction;
        value           nonuniform List<scalar> 3(8.58389e-05 8.0964e-05 6.99762e-05);
    }
    heatsource2
    {
        Cmu             0.09;
        kappa           0.41;
        E               9.8;
        type            epsilonWallFunction;
        value           nonuniform List<scalar> 4(0.000388329 8.2155e-05 8.2155e-05 0.000413523);
    }
    Table_master
    {
        Cmu             0.09;
        kappa           0.41;
        E               9.8;
        type            epsilonWallFunction;
        value           nonuniform List<scalar> 9(0.000210278 0.00014164 9.95774e-05 7.2936e-05 5.54267e-05 4.35369e-05 3.52411e-05 2.93985e-05 2.54584e-05);
    }
    Table_slave
    {
        Cmu             0.09;
        kappa           0.41;
        E               9.8;
        type            epsilonWallFunction;
        value           nonuniform List<scalar> 9(0.000282301 0.000214112 0.000176629 0.000154029 0.000138478 0.000125334 0.000111309 9.80645e-05 8.38118e-05);
    }
    inlet
    {
        type            turbulentMixingLengthDissipationRateInlet;
        mixingLength    0.01;
        phi             phi;
        k               k;
        value           uniform 3.01869e-05;
    }
    outlet
    {
        type            zeroGradient;
    }
}


// ************************************************************************* //
