/*--------------------------------*- C++ -*----------------------------------*\
  =========                 |
  \\      /  F ield         | OpenFOAM: The Open Source CFD Toolbox
   \\    /   O peration     | Website:  https://openfoam.org
    \\  /    A nd           | Version:  6
     \\/     M anipulation  |
\*---------------------------------------------------------------------------*/
FoamFile
{
    version     2.0;
    format      ascii;
    class       volScalarField;
    location    "460";
    object      nut;
}
// * * * * * * * * * * * * * * * * * * * * * * * * * * * * * * * * * * * * * //

dimensions      [0 2 -1 0 0 0 0];

internalField   nonuniform List<scalar> 
459
(
0.000927621
0.00101188
0.00103112
0.00108171
0.00112885
0.00117342
0.00121769
0.00126187
0.0012959
0.00131482
0.00131326
0.0012865
0.00122982
0.00113371
0.000983651
0.000594579
0.000779558
0.000744891
0.000710689
0.000681006
0.000650607
0.000612062
0.000573036
0.000537209
0.000505094
0.000476682
0.0004513
0.000428339
0.000407163
0.000386999
0.000366715
0.000346387
0.000320706
0.000357622
0.001266
0.00299641
0.00282056
0.00326992
0.00371803
0.00417804
0.0045942
0.00492061
0.00524097
0.00553232
0.00575936
0.00587977
0.00583665
0.00550727
0.0043937
0.00103146
0.000614567
0.000819248
0.00238673
0.0022112
0.00233532
0.00243478
0.00236816
0.00183332
0.00156753
0.00138403
0.00124491
0.00113073
0.00103195
0.000943508
0.000860377
0.000781095
0.000714977
0.000716989
0.000668649
0.000447533
0.00154988
0.00405823
0.0034477
0.00431223
0.00471548
0.00501528
0.00525496
0.00546581
0.00573179
0.00604862
0.0063892
0.00670437
0.00692628
0.00696407
0.00653538
0.00493021
0.00105328
0.000990107
0.00193634
0.00253681
0.00297186
0.00322011
0.00298669
0.000840696
0.000736948
0.000655284
0.000590687
0.000539035
0.000497352
0.000463513
0.000436336
0.0004159
0.000471106
0.000612161
0.000759798
0.000490214
0.00182326
0.00516616
0.00338942
0.00450144
0.00479716
0.00485687
0.00489782
0.00500265
0.00522388
0.00555636
0.0059807
0.00643803
0.00684418
0.0071366
0.00714302
0.00658856
0.00455276
0.00128961
0.00191819
0.00261304
0.003309
0.0038434
0.00412177
0.00372696
0.000927423
0.000845776
0.000793224
0.000757839
0.000731425
0.000707511
0.000680071
0.000651951
0.000618699
0.000594101
0.000635352
0.000868197
0.000551228
0.00210168
0.00660101
0.00360425
0.00426229
0.00464832
0.0045646
0.0044789
0.00454336
0.0047585
0.00510196
0.00557465
0.00610078
0.0065555
0.00688084
0.0070257
0.00692047
0.00641974
0.00549022
0.00530512
0.00534601
0.00541545
0.00543703
0.00536968
0.00509844
0.00425541
0.00390176
0.00372769
0.00362073
0.00352967
0.00342214
0.00326167
0.002929
0.0024603
0.00192337
0.00146987
0.00131571
0.000930673
0.000623645
0.000611609
0.000582587
0.00239628
0.00818561
0.0048688
0.00401537
0.00441756
0.0044821
0.00430757
0.00438018
0.004584
0.0049246
0.00540352
0.00594257
0.00641921
0.00674019
0.00687982
0.00687638
0.00679323
0.00668595
0.00663939
0.00656533
0.00642241
0.00621208
0.00595187
0.00564931
0.0053023
0.00504916
0.00487114
0.00473673
0.00462485
0.00451313
0.0043676
0.00412226
0.00372801
0.0031967
0.00261391
0.00215605
0.00167672
0.00129128
0.00139037
0.000720193
0.00267772
0.00938398
0.007071
0.00492814
0.00449807
0.00460753
0.00451518
0.00450088
0.00463097
0.00495934
0.00546637
0.00604502
0.00654644
0.00686431
0.00698658
0.00699691
0.00701113
0.00705641
0.00703915
0.00688161
0.00660466
0.00626407
0.00591219
0.00558934
0.00532432
0.00513138
0.00498705
0.0048736
0.00478518
0.00471035
0.00461806
0.00447365
0.00425115
0.00389301
0.00343304
0.00296092
0.00245291
0.00195711
0.00180994
0.00084928
0.00274619
0.00880202
0.00747342
0.00645334
0.00575716
0.00531998
0.00487982
0.00467367
0.00477678
0.00517343
0.00577245
0.00641536
0.00692909
0.00721843
0.0073003
0.00727385
0.00722014
0.00713187
0.00694254
0.00663413
0.0062781
0.00593263
0.00563166
0.00538841
0.00519978
0.00504695
0.00490774
0.00477596
0.00466155
0.00457093
0.0044784
0.00434791
0.00420775
0.00407974
0.00381295
0.00350843
0.00315472
0.00258604
0.00272613
0.00106097
0.00268483
0.00322054
0.00373233
0.00388322
0.00390655
0.00391106
0.00403658
0.00435842
0.00490616
0.00563156
0.00641091
0.00708559
0.00751246
0.00766375
0.00760668
0.0074242
0.00713749
0.00683536
0.00654661
0.00626657
0.00601478
0.00580397
0.00563064
0.00548272
0.00534369
0.00519332
0.00501482
0.00480372
0.00457192
0.00433693
0.00408029
0.00373677
0.00331474
0.00293174
0.00263131
0.0023695
0.00214552
0.00196068
0.00183723
0.00113886
0.00216061
0.00362147
0.0041341
0.00460682
0.00516043
0.00578058
0.00643478
0.00706213
0.00760278
0.00796219
0.00802861
0.00783112
0.00750824
0.00719923
0.00694202
0.00677166
0.00665234
0.00654788
0.00645013
0.00635455
0.00625764
0.00615643
0.00604107
0.00589421
0.0056939
0.00541834
0.00505576
0.00461843
0.00414616
0.00366495
0.00320225
0.00280811
0.00250611
0.00230144
0.00216136
0.00204051
0.00195902
0.00136162
0.0020072
0.00375247
0.00474706
0.0057107
0.00650204
0.00711005
0.00764541
0.00813495
0.00855336
0.00876938
0.0086367
0.00823846
0.00785544
0.00759399
0.00745404
0.00739938
0.00738696
0.0073835
0.0073663
0.00731913
0.00725404
0.00719383
0.00714207
0.00709013
0.00701423
0.00687411
0.00662087
0.00621829
0.00569392
0.00509485
0.00447194
0.00388605
0.00337863
0.00297309
0.002663
0.00244323
0.00320627
0.00155094
0.0014854
0.00161655
0.00175668
0.00179621
0.0017149
0.00171525
0.00175569
0.00181869
0.00187591
0.00191656
0.00193051
0.00191227
0.00187313
0.0018332
0.0017975
0.00177338
0.00175972
0.00175173
0.00174585
0.00174018
0.00173406
0.00172927
0.00172648
0.00172448
0.00172191
0.00171576
0.0017017
0.00167553
0.00163586
0.00158777
0.00153468
0.00148036
0.00142949
0.00138536
0.00135106
0.00132725
0.00130944
0.00128952
0.00133147
0.00129059
)
;

boundaryField
{
    floor
    {
        type            nutkWallFunction;
        Cmu             0.09;
        kappa           0.41;
        E               9.8;
        value           nonuniform List<scalar> 
29
(
0.000118811
7.16565e-05
9.44222e-05
9.02096e-05
8.60308e-05
8.23847e-05
7.8631e-05
7.38406e-05
6.89531e-05
6.44306e-05
6.03453e-05
5.67042e-05
5.34288e-05
5.0446e-05
4.76772e-05
4.50239e-05
4.2337e-05
3.96253e-05
3.61704e-05
4.11299e-05
4.11299e-05
5.29411e-05
5.84415e-05
6.6204e-05
0.000118811
7.16565e-05
9.92194e-05
0.000119574
0.000154332
)
;
    }
    ceiling
    {
        type            nutkWallFunction;
        Cmu             0.09;
        kappa           0.41;
        E               9.8;
        value           nonuniform List<scalar> 
43
(
0.000176491
0.000191179
0.000206732
0.000211128
0.000202155
0.000202206
0.000206693
0.000213654
0.000219954
0.000224417
0.000225948
0.000223952
0.000219661
0.000215271
0.000211338
0.000208675
0.000207167
0.000206283
0.000205632
0.000205005
0.000204328
0.000203796
0.000203488
0.000203266
0.000202982
0.0002023
0.00020074
0.000197833
0.000193418
0.00018805
0.000182102
0.000175993
0.00017025
0.00016525
0.000161351
0.000158638
0.000156606
0.000154328
0.000159119
0.000154451
0.000307114
0.000363216
0.000234184
)
;
    }
    sWall
    {
        type            nutkWallFunction;
        Cmu             0.09;
        kappa           0.41;
        E               9.8;
        value           uniform 0.000176536;
    }
    nWall
    {
        type            nutkWallFunction;
        Cmu             0.09;
        kappa           0.41;
        E               9.8;
        value           nonuniform List<scalar> 6(7.01389e-05 8.71906e-05 0.000102833 0.00016257 0.000183948 0.000154468);
    }
    sideWalls
    {
        type            empty;
    }
    glass1
    {
        type            nutkWallFunction;
        Cmu             0.09;
        kappa           0.41;
        E               9.8;
        value           nonuniform List<scalar> 9(0.000112224 0.000151758 0.000183988 0.000214411 0.000244887 0.000276667 0.000306643 0.000313889 0.00030741);
    }
    glass2
    {
        type            nutkWallFunction;
        Cmu             0.09;
        kappa           0.41;
        E               9.8;
        value           nonuniform List<scalar> 2(0.000127924 0.000137004);
    }
    sun
    {
        type            nutkWallFunction;
        Cmu             0.09;
        kappa           0.41;
        E               9.8;
        value           nonuniform List<scalar> 
14
(
0.000112184
0.00012214
0.000124399
0.000130319
0.000135807
0.000140971
0.00014608
0.000151157
0.000155054
0.000157215
0.000157037
0.000153978
0.000147474
0.000136369
)
;
    }
    heatsource1
    {
        type            nutkWallFunction;
        Cmu             0.09;
        kappa           0.41;
        E               9.8;
        value           nonuniform List<scalar> 3(7.5278e-05 7.37777e-05 7.01448e-05);
    }
    heatsource2
    {
        type            nutkWallFunction;
        Cmu             0.09;
        kappa           0.41;
        E               9.8;
        value           nonuniform List<scalar> 4(0.000124441 7.41498e-05 7.41498e-05 0.000127001);
    }
    Table_master
    {
        type            nutkWallFunction;
        Cmu             0.09;
        kappa           0.41;
        E               9.8;
        value           nonuniform List<scalar> 9(0.000101802 8.92404e-05 7.92053e-05 7.11611e-05 6.4652e-05 5.93432e-05 5.49929e-05 5.14704e-05 4.88037e-05);
    }
    Table_slave
    {
        type            nutkWallFunction;
        Cmu             0.09;
        kappa           0.41;
        E               9.8;
        value           nonuniform List<scalar> 9(0.000112163 0.000102412 9.60781e-05 9.17855e-05 8.85657e-05 8.56387e-05 8.22656e-05 7.8792e-05 7.4661e-05);
    }
    inlet
    {
        type            calculated;
        value           uniform 6.7082e-05;
    }
    outlet
    {
        type            calculated;
        value           nonuniform List<scalar> 2(0.0014854 0.00161655);
    }
}


// ************************************************************************* //
