// -*- C++ -*-
// File generated by PyFoam - sorry for the ugliness

FoamFile
{
 version 2.0;
 format ascii;
 class volVectorField;
 location "600";
 object U;
}

dimensions [ 0 1 -1 0 0 0 0 ];

internalField nonuniform List<vector> 459
(
  (0.0415933 0.0832056 0)
  (-0.161579 0.0229397 0)
  (-0.182071 0.0174176 0)
  (-0.212261 0.013089 0)
  (-0.236026 0.00819788 0)
  (-0.252778 0.00303171 0)
  (-0.26149 -0.00253286 0)
  (-0.260685 -0.0086203 0)
  (-0.249458 -0.015303 0)
  (-0.227972 -0.0220449 0)
  (-0.197409 -0.0280137 0)
  (-0.159844 -0.0327682 0)
  (-0.117852 -0.0368888 0)
  (-0.077577 -0.0424588 0)
  (-0.0581922 -0.0507228 0)
  (0.0115065 0.00805496 0)
  (-0.0133811 -0.0189889 0)
  (0.0137237 -0.024516 0)
  (0.0306075 -0.0170157 0)
  (0.04464 -0.0108718 0)
  (0.0536039 -0.00674846 0)
  (0.0580529 -0.00419587 0)
  (0.0598646 -0.00289663 0)
  (0.0605653 -0.00227739 0)
  (0.0608895 -0.00194234 0)
  (0.0610115 -0.00172533 0)
  (0.0609254 -0.00153791 0)
  (0.0605538 -0.00129203 0)
  (0.0596762 -0.000822964 0)
  (0.0577244 0.000242847 0)
  (0.0535438 0.00241839 0)
  (0.0458799 0.00460384 0)
  (0.039985 0.00557162 0)
  (-0.0179388 0.019238 0)
  (0.220408 0.171087 0)
  (-0.154529 0.0608717 0)
  (-0.147172 0.0502733 0)
  (-0.178583 0.0413914 0)
  (-0.201825 0.0314082 0)
  (-0.2184 0.0204323 0)
  (-0.227452 0.00795837 0)
  (-0.22739 -0.00637324 0)
  (-0.217249 -0.0219773 0)
  (-0.197665 -0.0368452 0)
  (-0.170309 -0.0486673 0)
  (-0.137991 -0.0559758 0)
  (-0.1042 -0.0588232 0)
  (-0.0741132 -0.0586985 0)
  (-0.0545978 -0.0546127 0)
  (-0.0375482 -0.0319286 0)
  (-0.0120299 -0.00496945 0)
  (0.0787675 0.0159424 0)
  (0.0399252 -0.0198754 0)
  (0.04303 -0.0267556 0)
  (0.0529307 -0.0207296 0)
  (0.060214 -0.0128505 0)
  (0.0641448 -0.00628572 0)
  (0.0652691 -0.00196125 0)
  (0.0651195 0.000256086 0)
  (0.0649184 0.00126831 0)
  (0.0649261 0.00180186 0)
  (0.0650038 0.00216979 0)
  (0.0650391 0.00249886 0)
  (0.06501 0.0029603 0)
  (0.0648614 0.0038895 0)
  (0.0640508 0.00616552 0)
  (0.060167 0.0124298 0)
  (0.0503373 0.0173963 0)
  (0.0464435 0.0195205 0)
  (-0.0529015 0.0424209 0)
  (0.383622 0.256457 0)
  (-0.176318 0.0983286 0)
  (-0.110508 0.081763 0)
  (-0.141616 0.0650755 0)
  (-0.161801 0.0484109 0)
  (-0.176809 0.0305618 0)
  (-0.185579 0.0102911 0)
  (-0.18562 -0.0129751 0)
  (-0.175405 -0.0379629 0)
  (-0.156395 -0.0611014 0)
  (-0.13096 -0.0785351 0)
  (-0.102274 -0.0881549 0)
  (-0.0735699 -0.089814 0)
  (-0.048222 -0.0844901 0)
  (-0.0285302 -0.0714187 0)
  (-0.0123563 -0.0468254 0)
  (0.00722042 -0.0162859 0)
  (0.100967 -0.0548198 0)
  (0.0637136 -0.0472861 0)
  (0.061134 -0.037464 0)
  (0.0652567 -0.0272321 0)
  (0.0678771 -0.0175025 0)
  (0.0686722 -0.00943001 0)
  (0.0668496 -0.00802529 0)
  (0.0643444 -0.00616509 0)
  (0.0629185 -0.00520529 0)
  (0.0624365 -0.00468316 0)
  (0.0623651 -0.00437009 0)
  (0.0624991 -0.00412231 0)
  (0.0629277 -0.00379228 0)
  (0.0641236 -0.00306623 0)
  (0.0672982 -7.5736e-05 0)
  (0.0654935 0.0171326 0)
  (0.0520304 0.0290628 0)
  (0.0542168 0.0360657 0)
  (-0.0823593 0.0672328 0)
  (0.528908 0.32535 0)
  (-0.21521 0.132463 0)
  (-0.0713971 0.108349 0)
  (-0.102321 0.084868 0)
  (-0.116497 0.063798 0)
  (-0.127652 0.0412289 0)
  (-0.134736 0.0145469 0)
  (-0.133314 -0.0176289 0)
  (-0.121582 -0.0523902 0)
  (-0.102837 -0.0832763 0)
  (-0.080218 -0.105075 0)
  (-0.0566654 -0.115797 0)
  (-0.0344519 -0.115732 0)
  (-0.0153326 -0.106498 0)
  (0.000999133 -0.0884759 0)
  (0.0165882 -0.063272 0)
  (0.0380028 -0.0375336 0)
  (0.0697756 -0.00970138 0)
  (0.0812677 -0.0408281 0)
  (0.0692412 -0.0411599 0)
  (0.0634883 -0.0330737 0)
  (0.0627359 -0.0250598 0)
  (0.0632865 -0.0170927 0)
  (0.0653357 -0.00828699 0)
  (0.0696169 -0.0055092 0)
  (0.0749268 -0.00514233 0)
  (0.0796069 -0.00486779 0)
  (0.0834705 -0.00443558 0)
  (0.0862911 -0.00362537 0)
  (0.0873549 -0.00228075 0)
  (0.0853571 -0.0002186 0)
  (0.0791748 0.00278974 0)
  (0.0663473 0.0072644 0)
  (0.0545357 0.027514 0)
  (0.0426147 0.0444155 0)
  (0.0582091 0.057177 0)
  (-0.11428 0.0902398 0)
  (0.652405 0.379274 0)
  (-0.259668 0.16151 0)
  (-0.0324015 0.123492 0)
  (-0.0614083 0.0962116 0)
  (-0.0674514 0.0728767 0)
  (-0.0722291 0.0477058 0)
  (-0.0756169 0.0166576 0)
  (-0.0687645 -0.0234789 0)
  (-0.0539978 -0.0671688 0)
  (-0.0365651 -0.103244 0)
  (-0.0191174 -0.12646 0)
  (-0.00338552 -0.136035 0)
  (0.00980535 -0.133023 0)
  (0.0198144 -0.120537 0)
  (0.0279423 -0.101161 0)
  (0.0360056 -0.0777675 0)
  (0.0463688 -0.0553946 0)
  (0.0581497 -0.0422073 0)
  (0.0623026 -0.0442155 0)
  (0.0577788 -0.0392595 0)
  (0.0519918 -0.0312282 0)
  (0.0487907 -0.0239339 0)
  (0.0477303 -0.0175785 0)
  (0.0488243 -0.0119281 0)
  (0.051905 -0.00830958 0)
  (0.0562962 -0.00674236 0)
  (0.0606287 -0.00594283 0)
  (0.064673 -0.00486397 0)
  (0.0681672 -0.00277056 0)
  (0.07059 0.000852164 0)
  (0.0707586 0.00593796 0)
  (0.0680515 0.012485 0)
  (0.0620426 0.0211429 0)
  (0.0546173 0.0369102 0)
  (0.0439949 0.0558108 0)
  (0.0659266 0.0765079 0)
  (-0.0213867 0.104356 0)
  (0.0433124 0.0292982 0)
  (-0.0654609 -0.0369351 0)
  (-0.272116 -0.0592343 0)
  (0.739597 0.425002 0)
  (-0.300713 0.182291 0)
  (-0.0031683 0.119681 0)
  (-0.0193077 0.0979559 0)
  (-0.0159691 0.076124 0)
  (-0.0129477 0.0503101 0)
  (-0.0109958 0.0164569 0)
  (0.0098905 -0.0354292 0)
  (0.0264908 -0.0835555 0)
  (0.0394795 -0.118913 0)
  (0.0485201 -0.13917 0)
  (0.0534776 -0.145209 0)
  (0.0549089 -0.139383 0)
  (0.0538607 -0.124775 0)
  (0.0515182 -0.104451 0)
  (0.0493083 -0.0817097 0)
  (0.0483627 -0.0603494 0)
  (0.0481598 -0.0449727 0)
  (0.0452689 -0.0378869 0)
  (0.0389126 -0.0323155 0)
  (0.0323038 -0.0262633 0)
  (0.0280657 -0.0209958 0)
  (0.026376 -0.0168002 0)
  (0.0270593 -0.0134226 0)
  (0.0296483 -0.0113449 0)
  (0.033373 -0.0107379 0)
  (0.0374653 -0.010457 0)
  (0.041699 -0.0094871 0)
  (0.0459217 -0.00699736 0)
  (0.0498223 -0.00219383 0)
  (0.0530258 0.00505587 0)
  (0.0541661 0.0140823 0)
  (0.0537687 0.0250272 0)
  (0.0535192 0.0398467 0)
  (0.0515287 0.0583456 0)
  (0.0741339 0.0819363 0)
  (0.0523493 0.0998322 0)
  (0.0921795 0.0690597 0)
  (0.1162 0.0446422 0)
  (-0.133453 -0.0105078 0)
  (0.7841 0.466677 0)
  (-0.320236 0.169377 0)
  (0.020436 0.0706872 0)
  (0.0364358 0.0791263 0)
  (0.0470634 0.0711165 0)
  (0.0569633 0.0438915 0)
  (0.0753163 0.00047173 0)
  (0.100398 -0.052734 0)
  (0.114836 -0.0966818 0)
  (0.119913 -0.126252 0)
  (0.117476 -0.140928 0)
  (0.10917 -0.142333 0)
  (0.0968381 -0.133232 0)
  (0.0824711 -0.116812 0)
  (0.0677098 -0.0960546 0)
  (0.0539922 -0.0741714 0)
  (0.0421065 -0.0540346 0)
  (0.0322965 -0.0388496 0)
  (0.0231357 -0.0298804 0)
  (0.0145181 -0.0246156 0)
  (0.00761924 -0.0207035 0)
  (0.00338371 -0.0178977 0)
  (0.00158576 -0.01605 0)
  (0.00181039 -0.0148357 0)
  (0.00354544 -0.014343 0)
  (0.00615061 -0.0145028 0)
  (0.00917384 -0.0146217 0)
  (0.0125483 -0.013979 0)
  (0.0163935 -0.0117949 0)
  (0.0208414 -0.00706156 0)
  (0.0270312 0.00117792 0)
  (0.0327459 0.0113786 0)
  (0.0377181 0.0226345 0)
  (0.0442642 0.0358652 0)
  (0.051407 0.0510953 0)
  (0.0738089 0.0703386 0)
  (0.0862545 0.07839 0)
  (0.118224 0.0546796 0)
  (0.158301 0.0442669 0)
  (-0.0378319 0.0931503 0)
  (0.886256 0.472465 0)
  (-0.0821433 0.149909 0)
  (0.10066 -0.00429315 0)
  (0.160731 -0.00344187 0)
  (0.164608 0.00495074 0)
  (0.168173 -0.0167147 0)
  (0.194155 -0.050956 0)
  (0.211433 -0.0825384 0)
  (0.212771 -0.107377 0)
  (0.201032 -0.122936 0)
  (0.180302 -0.128244 0)
  (0.154009 -0.123954 0)
  (0.125084 -0.11211 0)
  (0.0961357 -0.0952505 0)
  (0.0688374 -0.075536 0)
  (0.0445614 -0.0558149 0)
  (0.0236541 -0.0381929 0)
  (0.0074888 -0.0256177 0)
  (-0.00519453 -0.0189164 0)
  (-0.0135829 -0.0165722 0)
  (-0.0193992 -0.0155936 0)
  (-0.0231094 -0.0152645 0)
  (-0.0252314 -0.0153168 0)
  (-0.0261686 -0.0155853 0)
  (-0.0262798 -0.0160747 0)
  (-0.025938 -0.0167145 0)
  (-0.025381 -0.0172148 0)
  (-0.0246074 -0.0171913 0)
  (-0.0234084 -0.0161836 0)
  (-0.0213693 -0.0136206 0)
  (-0.0173925 -0.00877308 0)
  (-0.00700472 -0.000857693 0)
  (0.0012534 0.0086551 0)
  (0.0119114 0.0172129 0)
  (0.0237739 0.0245994 0)
  (0.0446291 0.0324207 0)
  (0.0641727 0.0254162 0)
  (0.0846383 -0.00417332 0)
  (0.144595 0.0381105 0)
  (-0.411167 0.204796 0)
  (1.02723 0.429241 0)
  (0.491591 0.284839 0)
  (0.502673 0.198092 0)
  (0.509068 0.142295 0)
  (0.468014 0.103319 0)
  (0.428452 0.0611858 0)
  (0.395356 0.015668 0)
  (0.355553 -0.0268381 0)
  (0.309961 -0.0595345 0)
  (0.261308 -0.0795236 0)
  (0.212246 -0.0871136 0)
  (0.164659 -0.0844599 0)
  (0.119959 -0.0747704 0)
  (0.079632 -0.0609979 0)
  (0.0439595 -0.0447879 0)
  (0.0142013 -0.0291198 0)
  (-0.0111726 -0.0158805 0)
  (-0.0258537 -0.0105198 0)
  (-0.0352912 -0.00943021 0)
  (-0.0417339 -0.0100758 0)
  (-0.0466734 -0.0110475 0)
  (-0.0506037 -0.0120302 0)
  (-0.0538617 -0.012965 0)
  (-0.0567134 -0.0138515 0)
  (-0.0594097 -0.0147035 0)
  (-0.0622223 -0.0154471 0)
  (-0.0654069 -0.0158631 0)
  (-0.0691998 -0.0155922 0)
  (-0.0738881 -0.0141165 0)
  (-0.0798964 -0.0107457 0)
  (-0.0877351 -0.00470487 0)
  (-0.0975587 0.00451246 0)
  (-0.106627 0.0159534 0)
  (-0.121195 0.0299047 0)
  (-0.144613 0.0466751 0)
  (-0.17937 0.0652125 0)
  (-0.229199 0.0814426 0)
  (-0.286683 0.0929388 0)
  (-0.356061 0.0996795 0)
  (-0.619405 0.102023 0)
  (-0.207343 0.0340874 0)
  (0.147532 0.0722081 0)
  (0.243981 0.0544246 0)
  (0.240104 0.0267617 0)
  (0.225933 -0.00103413 0)
  (0.212697 -0.0227753 0)
  (0.189427 -0.0368879 0)
  (0.158474 -0.0441975 0)
  (0.122956 -0.045344 0)
  (0.0855222 -0.0410315 0)
  (0.04868 -0.0329547 0)
  (0.0147437 -0.0221776 0)
  (-0.0177815 -0.00828397 0)
  (-0.0388391 6.98838e-05 0)
  (-0.0518045 0.00327325 0)
  (-0.0588573 0.00281219 0)
  (-0.0639373 0.000993453 0)
  (-0.0683206 -0.00107993 0)
  (-0.0725816 -0.00287785 0)
  (-0.0768824 -0.00434452 0)
  (-0.0812902 -0.00549356 0)
  (-0.0858785 -0.00633984 0)
  (-0.0907336 -0.00686468 0)
  (-0.0959416 -0.00697065 0)
  (-0.101547 -0.00646176 0)
  (-0.107516 -0.00506232 0)
  (-0.113717 -0.00245092 0)
  (-0.119909 0.00169788 0)
  (-0.125569 0.0076661 0)
  (-0.129509 0.0161877 0)
  (-0.13254 0.0284232 0)
  (-0.135059 0.0446524 0)
  (-0.13788 0.0640749 0)
  (-0.141572 0.0831613 0)
  (-0.143139 0.0918187 0)
  (-0.126228 0.0688483 0)
  (-0.0853371 -0.0250986 0)
  (-0.279391 -0.202416 0)
  (-0.0515973 0.215313 0)
  (0.0637877 0.111402 0)
  (0.044337 0.0465193 0)
  (0.04936 0.0287751 0)
  (0.0546747 0.015104 0)
  (0.0528426 0.000984906 0)
  (0.0440855 -0.0102612 0)
  (0.0266081 -0.0161194 0)
  (0.00337739 -0.015978 0)
  (-0.0227894 -0.0113308 0)
  (-0.0459686 -0.00720138 0)
  (-0.0635376 -0.00562577 0)
  (-0.0741039 -0.00685971 0)
  (-0.0783685 -0.0107692 0)
  (-0.0806212 -0.0153466 0)
  (-0.0823562 -0.0196429 0)
  (-0.0843838 -0.0224488 0)
  (-0.0870641 -0.0238255 0)
  (-0.0903141 -0.0242899 0)
  (-0.0940357 -0.0244204 0)
  (-0.0981544 -0.0243167 0)
  (-0.102581 -0.0240123 0)
  (-0.107223 -0.0234973 0)
  (-0.111962 -0.022701 0)
  (-0.116618 -0.0214659 0)
  (-0.120908 -0.0195241 0)
  (-0.124415 -0.0164702 0)
  (-0.12658 -0.0117109 0)
  (-0.126742 -0.00467574 0)
  (-0.124126 0.00468799 0)
  (-0.117313 0.0171788 0)
  (-0.105031 0.0334821 0)
  (-0.0869958 0.053226 0)
  (-0.0642291 0.0725717 0)
  (-0.0395275 0.0840704 0)
  (1.28677e-06 0.0685284 0)
  (0.144787 -0.00382357 0)
  (-0.207986 -0.113465 0)
  (-0.0607849 -0.327675 0)
  (-0.416951 -0.117173 0)
  (-0.30486 0.0834213 0)
  (-0.216405 -0.0161985 0)
  (-0.164701 -0.0375716 0)
  (-0.131188 -0.0330838 0)
  (-0.113782 -0.029327 0)
  (-0.108187 -0.0237904 0)
  (-0.108696 -0.0139386 0)
  (-0.113846 -0.00229901 0)
  (-0.118418 0.00928265 0)
  (-0.119328 0.0196467 0)
  (-0.116424 0.0287763 0)
  (-0.111536 0.037785 0)
  (-0.105327 0.04618 0)
  (-0.0993207 0.0531645 0)
  (-0.0947017 0.0585899 0)
  (-0.0918324 0.0621361 0)
  (-0.0906099 0.0635693 0)
  (-0.0906845 0.0631613 0)
  (-0.0917403 0.0616588 0)
  (-0.0935479 0.0598399 0)
  (-0.095934 0.0578334 0)
  (-0.0987587 0.0557027 0)
  (-0.101893 0.0534884 0)
  (-0.105188 0.0512258 0)
  (-0.108443 0.0489492 0)
  (-0.111362 0.0466852 0)
  (-0.113507 0.0444406 0)
  (-0.114189 0.0422097 0)
  (-0.112197 0.0404481 0)
  (-0.105562 0.0403933 0)
  (-0.0918739 0.0427907 0)
  (-0.0692216 0.0484836 0)
  (-0.0379553 0.0579926 0)
  (0.00985256 0.0709815 0)
  (0.0565764 0.0728823 0)
  (0.0998488 0.0579328 0)
  (0.16402 0.0286739 0)
  (-0.222962 -0.0263439 0)
)
;

boundaryField
{
  floor
  {
    type noSlip;
  }
  ceiling
  {
    type noSlip;
  }
  sWall
  {
    type noSlip;
  }
  nWall
  {
    type noSlip;
  }
  sideWalls
  {
    type empty;
  }
  glass1
  {
    type noSlip;
  }
  glass2
  {
    type noSlip;
  }
  sun
  {
    type noSlip;
  }
  heatsource1
  {
    type noSlip;
  }
  heatsource2
  {
    type noSlip;
  }
  Table_master
  {
    type noSlip;
  }
  Table_slave
  {
    type noSlip;
  }
  inlet
  {
    type fixedValue;
    value uniform (0.277164 -0.114805 0);
  }
  outlet
  {
    type zeroGradient;
  }
} 	// ************************************************************************* //

