/*--------------------------------*- C++ -*----------------------------------*\
  =========                 |
  \\      /  F ield         | OpenFOAM: The Open Source CFD Toolbox
   \\    /   O peration     | Website:  https://openfoam.org
    \\  /    A nd           | Version:  6
     \\/     M anipulation  |
\*---------------------------------------------------------------------------*/
FoamFile
{
    version     2.0;
    format      ascii;
    class       volScalarField;
    location    "370";
    object      epsilon;
}
// * * * * * * * * * * * * * * * * * * * * * * * * * * * * * * * * * * * * * //

dimensions      [0 2 -3 0 0 0 0];

internalField   nonuniform List<scalar> 
459
(
0.000328056
0.000438613
0.000485442
0.000565394
0.000647578
0.000734914
0.000834371
0.000928371
0.000998846
0.00102664
0.000995199
0.000896179
0.000728271
0.000439526
0.00024333
7.23698e-05
0.000121536
0.000108624
0.000133609
0.000119743
0.000100892
7.63838e-05
5.6727e-05
4.28547e-05
3.31554e-05
2.62333e-05
2.11671e-05
1.73481e-05
1.44391e-05
1.21008e-05
1.01088e-05
8.85228e-06
1.06564e-05
2.83794e-05
0.00072503
0.000965382
0.000408124
0.000407422
0.000429959
0.000471068
0.000537052
0.00061693
0.000688951
0.000729038
0.000720487
0.00065982
0.000558395
0.000434028
0.000306232
0.000476835
0.000201816
0.00025753
0.000485353
0.00023397
0.000171977
0.000135302
0.000109722
9.69837e-05
7.15744e-05
5.14038e-05
3.72413e-05
2.74826e-05
2.07093e-05
1.59167e-05
1.25089e-05
1.01339e-05
8.85938e-06
1.58708e-05
4.54983e-05
5.49645e-05
0.00123103
0.00208873
0.000444417
0.000369512
0.000391567
0.000447162
0.000533513
0.000635246
0.000722903
0.00077551
0.000781109
0.000733702
0.000640086
0.000533562
0.000428183
0.000384224
0.000475364
0.000386404
0.000816499
0.000397788
0.000252014
0.0001802
0.000144378
0.000241391
0.00014503
9.11327e-05
5.99833e-05
4.12387e-05
2.95111e-05
2.19263e-05
1.702e-05
1.39724e-05
1.06047e-05
1.6659e-05
7.68381e-05
8.32564e-05
0.00189239
0.00411938
0.000606816
0.000353093
0.000368303
0.000442024
0.000565111
0.000692368
0.000786003
0.000842367
0.000855405
0.000810486
0.000721875
0.000619144
0.000522959
0.000449406
0.00040388
0.000729163
0.000672229
0.000450193
0.000315013
0.000233421
0.000181429
0.000156271
0.000342527
0.000247194
0.000188014
0.000148214
0.000119025
9.61061e-05
7.70949e-05
6.05896e-05
4.54767e-05
2.40225e-05
2.14173e-05
0.000118856
0.000114663
0.0027823
0.00729337
0.00107897
0.000380856
0.000361559
0.000469844
0.000683852
0.000829431
0.000911921
0.00096067
0.000965852
0.000911737
0.000804588
0.000672617
0.000547651
0.00044877
0.000380261
0.000354328
0.000315731
0.000278976
0.000241128
0.000205624
0.000174234
0.000149069
0.000140476
0.000124753
0.000109382
9.54292e-05
8.24664e-05
7.02441e-05
5.85641e-05
4.72811e-05
3.61905e-05
2.48063e-05
2.10286e-05
6.91818e-05
0.000107859
0.000115374
0.000193473
0.000613342
0.00402183
0.011029
0.00236608
0.000631635
0.000475283
0.000697234
0.000983442
0.00108703
0.00112786
0.00115208
0.00114116
0.00106178
0.000914389
0.000734764
0.000566385
0.00043803
0.000358031
0.000316596
0.000290466
0.000267386
0.000241887
0.000214126
0.000185955
0.000159536
0.000138141
0.000120528
0.00010552
9.19736e-05
7.92736e-05
6.71828e-05
5.56129e-05
4.46337e-05
3.44658e-05
2.59816e-05
2.28581e-05
3.33541e-05
7.01992e-05
0.000194271
0.000928174
0.00147382
0.00550855
0.013489
0.00511533
0.0019957
0.00141181
0.00155784
0.00157192
0.00150735
0.00146139
0.00144519
0.0014028
0.00127743
0.00106936
0.000828337
0.000611561
0.000456222
0.000369623
0.000332261
0.000312844
0.000293336
0.000268711
0.000239539
0.000208558
0.000178897
0.00015311
0.000132218
0.000115271
0.000100682
8.75351e-05
7.54457e-05
6.42953e-05
5.41643e-05
4.52728e-05
3.82616e-05
3.46361e-05
3.77546e-05
8.3647e-05
0.000553894
0.00299255
0.00350902
0.00594437
0.016129
0.00865554
0.0054597
0.00400156
0.00307149
0.0024369
0.00207158
0.00191622
0.00186476
0.00178092
0.00157746
0.00127429
0.000952105
0.000682087
0.000507306
0.000422215
0.000388973
0.000371309
0.000351045
0.000323329
0.000290246
0.000254761
0.000222563
0.00019575
0.0001746
0.000157868
0.000144283
0.000133178
0.000124309
0.000117577
0.000112816
0.000109559
0.000106924
0.000103851
0.000108369
0.000202263
0.00124848
0.0108161
0.00868836
0.00560505
0.0097216
0.00739708
0.00553912
0.00423671
0.00331081
0.00273635
0.00248623
0.00246065
0.00247152
0.00232599
0.00196308
0.00149995
0.00108701
0.000784361
0.000640908
0.000579357
0.000553192
0.000534991
0.000512716
0.000484188
0.000451884
0.000419531
0.00039073
0.000367236
0.000349619
0.000337579
0.000330828
0.00032943
0.000333632
0.000343482
0.000358281
0.000375857
0.000392025
0.000401952
0.000408481
0.000564824
0.0021606
0.0151154
0.0119221
0.00185548
0.00229728
0.00237457
0.00260199
0.00294535
0.00332359
0.00359789
0.00355131
0.00308933
0.00234305
0.00167747
0.00137088
0.0012332
0.0011716
0.00114956
0.00114196
0.00113597
0.00112625
0.0011121
0.00109522
0.00107811
0.00106318
0.00105236
0.00104736
0.00104979
0.00106141
0.00108425
0.00112036
0.00117124
0.0012363
0.00131029
0.00138118
0.00144072
0.00145185
0.0016359
0.00319116
0.01109
0.00712963
0.000987784
0.00252722
0.00426728
0.0056326
0.0061944
0.00664715
0.00682802
0.00638387
0.00545342
0.00440345
0.00362749
0.00318908
0.00298676
0.00292468
0.00293234
0.00297289
0.00302365
0.00306938
0.00310215
0.00312105
0.00312991
0.00313412
0.00313922
0.00315081
0.00317395
0.00321356
0.00327504
0.0033646
0.00348844
0.0036493
0.00383558
0.0039964
0.0040152
0.00383128
0.00365186
0.00416667
0.00593876
0.00412957
0.000812443
0.00100223
0.0012312
0.00180118
0.00217493
0.00235936
0.00272537
0.00303157
0.00320201
0.00315981
0.00294546
0.00271899
0.0024943
0.00234076
0.00225456
0.00221178
0.00219437
0.00218834
0.00218504
0.00218034
0.00217347
0.00216549
0.00215811
0.002153
0.00215154
0.00215478
0.0021635
0.00217835
0.00219977
0.0022277
0.00226077
0.00229433
0.00231671
0.00230762
0.0022615
0.00223275
0.00236253
0.00274932
0.00312702
0.00233158
)
;

boundaryField
{
    floor
    {
        Cmu             0.09;
        kappa           0.41;
        E               9.8;
        type            epsilonWallFunction;
        value           nonuniform List<scalar> 
29
(
0.00024333
7.23698e-05
0.000121536
0.000108624
0.000133609
0.000119743
0.000100892
7.63838e-05
5.6727e-05
4.28547e-05
3.31554e-05
2.62333e-05
2.11671e-05
1.73481e-05
1.44391e-05
1.21008e-05
1.01088e-05
8.85228e-06
1.06564e-05
2.83794e-05
2.83794e-05
5.49645e-05
8.32564e-05
0.000114663
0.00024333
7.23698e-05
0.00025753
0.000386404
0.000729163
)
;
    }
    ceiling
    {
        Cmu             0.09;
        kappa           0.41;
        E               9.8;
        type            epsilonWallFunction;
        value           nonuniform List<scalar> 
43
(
0.000812443
0.00100223
0.0012312
0.00180118
0.00217493
0.00235936
0.00272537
0.00303157
0.00320201
0.00315981
0.00294546
0.00271899
0.0024943
0.00234076
0.00225456
0.00221178
0.00219437
0.00218834
0.00218504
0.00218034
0.00217347
0.00216549
0.00215811
0.002153
0.00215154
0.00215478
0.0021635
0.00217835
0.00219977
0.0022277
0.00226077
0.00229433
0.00231671
0.00230762
0.0022615
0.00223275
0.00236253
0.00274932
0.00312702
0.00233158
0.00560505
0.0097216
0.000987784
)
;
    }
    sWall
    {
        Cmu             0.09;
        kappa           0.41;
        E               9.8;
        type            epsilonWallFunction;
        value           uniform 0.000812443;
    }
    nWall
    {
        Cmu             0.09;
        kappa           0.41;
        E               9.8;
        type            epsilonWallFunction;
        value           nonuniform List<scalar> 6(0.000613342 0.00147382 0.00350902 0.00712963 0.00412957 0.00233158);
    }
    sideWalls
    {
        type            empty;
    }
    glass1
    {
        Cmu             0.09;
        kappa           0.41;
        E               9.8;
        type            epsilonWallFunction;
        value           nonuniform List<scalar> 9(0.000328056 0.00072503 0.00123103 0.00189239 0.0027823 0.00402183 0.00550855 0.00594437 0.00560505);
    }
    glass2
    {
        Cmu             0.09;
        kappa           0.41;
        E               9.8;
        type            epsilonWallFunction;
        value           nonuniform List<scalar> 2(0.00868836 0.0119221);
    }
    sun
    {
        Cmu             0.09;
        kappa           0.41;
        E               9.8;
        type            epsilonWallFunction;
        value           nonuniform List<scalar> 
14
(
0.000328056
0.000438613
0.000485442
0.000565394
0.000647578
0.000734914
0.000834371
0.000928371
0.000998846
0.00102664
0.000995199
0.000896179
0.000728271
0.000439526
)
;
    }
    heatsource1
    {
        Cmu             0.09;
        kappa           0.41;
        E               9.8;
        type            epsilonWallFunction;
        value           nonuniform List<scalar> 3(0.000115374 0.000193473 0.000613342);
    }
    heatsource2
    {
        Cmu             0.09;
        kappa           0.41;
        E               9.8;
        type            epsilonWallFunction;
        value           nonuniform List<scalar> 4(0.000476835 0.000201816 0.000201816 0.000475364);
    }
    Table_master
    {
        Cmu             0.09;
        kappa           0.41;
        E               9.8;
        type            epsilonWallFunction;
        value           nonuniform List<scalar> 9(0.000241391 0.00014503 9.11327e-05 5.99833e-05 4.12387e-05 2.95111e-05 2.19263e-05 1.702e-05 1.39724e-05);
    }
    Table_slave
    {
        Cmu             0.09;
        kappa           0.41;
        E               9.8;
        type            epsilonWallFunction;
        value           nonuniform List<scalar> 9(0.000342527 0.000247194 0.000188014 0.000148214 0.000119025 9.61061e-05 7.70949e-05 6.05896e-05 4.54767e-05);
    }
    inlet
    {
        type            turbulentMixingLengthDissipationRateInlet;
        mixingLength    0.01;
        phi             phi;
        k               k;
        value           uniform 0.000101881;
    }
    outlet
    {
        type            zeroGradient;
    }
}


// ************************************************************************* //
