/*--------------------------------*- C++ -*----------------------------------*\
  =========                 |
  \\      /  F ield         | OpenFOAM: The Open Source CFD Toolbox
   \\    /   O peration     | Website:  https://openfoam.org
    \\  /    A nd           | Version:  6
     \\/     M anipulation  |
\*---------------------------------------------------------------------------*/
FoamFile
{
    version     2.0;
    format      ascii;
    class       volVectorField;
    location    "700";
    object      U;
}
// * * * * * * * * * * * * * * * * * * * * * * * * * * * * * * * * * * * * * //

dimensions      [0 1 -1 0 0 0 0];

internalField   nonuniform List<vector> 
459
(
(0.0677489 0.078054 0)
(-0.15331 0.0144058 0)
(-0.161812 0.0145652 0)
(-0.190145 0.011925 0)
(-0.214796 0.00845008 0)
(-0.235267 0.00462004 0)
(-0.25087 0.000422202 0)
(-0.260855 -0.00427393 0)
(-0.264235 -0.00964621 0)
(-0.259611 -0.0159585 0)
(-0.24546 -0.0237925 0)
(-0.219049 -0.033574 0)
(-0.178907 -0.0471107 0)
(-0.134726 -0.0682715 0)
(-0.122111 -0.0979105 0)
(0.0774212 -0.0416878 0)
(0.0523584 -0.0261141 0)
(0.0662718 -0.0160986 0)
(0.0801843 -0.0107391 0)
(0.087209 -0.00764385 0)
(0.0902692 -0.00538101 0)
(0.091447 -0.00353385 0)
(0.0910273 -0.00238431 0)
(0.089787 -0.00177877 0)
(0.0883605 -0.00142991 0)
(0.086941 -0.001175 0)
(0.0854713 -0.000938397 0)
(0.0837977 -0.000632169 0)
(0.0816052 -7.64009e-05 0)
(0.0781842 0.00112436 0)
(0.0721452 0.00353484 0)
(0.0619552 0.00639553 0)
(0.0504806 0.00923684 0)
(-0.0062126 0.0251181 0)
(0.268519 0.165751 0)
(-0.162095 0.0448477 0)
(-0.136876 0.0461788 0)
(-0.169221 0.0415408 0)
(-0.194312 0.0359597 0)
(-0.215071 0.0297212 0)
(-0.231126 0.0225402 0)
(-0.241897 0.0140224 0)
(-0.246477 0.00375437 0)
(-0.243463 -0.00859176 0)
(-0.232616 -0.0222984 0)
(-0.213108 -0.0370187 0)
(-0.186401 -0.0540035 0)
(-0.15947 -0.0757247 0)
(-0.139623 -0.094658 0)
(-0.106421 -0.076403 0)
(-0.0610763 -0.0671607 0)
(0.0810639 -0.0641931 0)
(0.0359552 -0.032112 0)
(0.0455934 -0.0147669 0)
(0.0575611 -0.00797432 0)
(0.0644214 -0.00491882 0)
(0.0683927 -0.00209801 0)
(0.0707882 0.00154666 0)
(0.071219 0.00347267 0)
(0.0711465 0.00408796 0)
(0.0712605 0.00420496 0)
(0.0715061 0.00421738 0)
(0.0717294 0.00428364 0)
(0.0718727 0.00458258 0)
(0.0718699 0.00549607 0)
(0.0711411 0.00798071 0)
(0.0670921 0.0147696 0)
(0.0566508 0.020983 0)
(0.0500026 0.025638 0)
(-0.0484477 0.0524589 0)
(0.447952 0.251476 0)
(-0.20164 0.0786613 0)
(-0.105081 0.0771092 0)
(-0.141487 0.0658651 0)
(-0.163669 0.055262 0)
(-0.182473 0.0438763 0)
(-0.1974 0.0309714 0)
(-0.207901 0.0160387 0)
(-0.212954 -0.00119564 0)
(-0.210911 -0.0204789 0)
(-0.201678 -0.0414104 0)
(-0.185708 -0.0626954 0)
(-0.16528 -0.0836959 0)
(-0.144122 -0.103364 0)
(-0.121914 -0.114956 0)
(-0.0926435 -0.109379 0)
(-0.0720892 -0.112253 0)
(0.05769 -0.0802831 0)
(0.014507 -0.0425428 0)
(0.0252431 -0.0245216 0)
(0.0367091 -0.0173969 0)
(0.044904 -0.0132201 0)
(0.0507429 -0.00951613 0)
(0.0541902 -0.00702405 0)
(0.0538144 -0.00508859 0)
(0.0535337 -0.00417938 0)
(0.0543108 -0.00374509 0)
(0.0555792 -0.00346854 0)
(0.0569578 -0.00321111 0)
(0.0585278 -0.00281294 0)
(0.060876 -0.00189333 0)
(0.065467 0.0015948 0)
(0.0647299 0.0200978 0)
(0.0517358 0.0335036 0)
(0.0549429 0.0426355 0)
(-0.086747 0.0799941 0)
(0.602409 0.322284 0)
(-0.254352 0.11327 0)
(-0.0678545 0.104378 0)
(-0.110306 0.0875831 0)
(-0.126833 0.0743534 0)
(-0.141977 0.0603459 0)
(-0.154735 0.0442781 0)
(-0.164479 0.0252697 0)
(-0.169867 0.00265648 0)
(-0.168528 -0.0234355 0)
(-0.160549 -0.0512201 0)
(-0.147615 -0.0780612 0)
(-0.132265 -0.102028 0)
(-0.117039 -0.121273 0)
(-0.102189 -0.132389 0)
(-0.0878609 -0.133188 0)
(-0.0771534 -0.117378 0)
(-0.0505973 -0.0435724 0)
(0.00896139 -0.0811734 0)
(0.00555178 -0.0527677 0)
(0.0140446 -0.0352102 0)
(0.0231985 -0.0263565 0)
(0.0310856 -0.02052 0)
(0.0378809 -0.0146574 0)
(0.0466468 -0.0116954 0)
(0.0584873 -0.0105344 0)
(0.0691924 -0.00944165 0)
(0.0780888 -0.00814688 0)
(0.084762 -0.00639959 0)
(0.0883975 -0.00409935 0)
(0.0875482 -0.00118021 0)
(0.0811596 0.00258567 0)
(0.0670172 0.00782842 0)
(0.053632 0.0299979 0)
(0.0408414 0.0486898 0)
(0.0598761 0.0630218 0)
(-0.128024 0.103331 0)
(0.730379 0.379542 0)
(-0.307017 0.146345 0)
(-0.0280522 0.121515 0)
(-0.0768443 0.102195 0)
(-0.0863576 0.0879906 0)
(-0.0963766 0.0724677 0)
(-0.105407 0.0541374 0)
(-0.112966 0.0318893 0)
(-0.11758 0.00474418 0)
(-0.115554 -0.0271451 0)
(-0.107747 -0.0605415 0)
(-0.0971974 -0.0907407 0)
(-0.0861313 -0.115344 0)
(-0.07623 -0.133478 0)
(-0.0676994 -0.144605 0)
(-0.0595116 -0.148632 0)
(-0.0471617 -0.140382 0)
(-0.0263162 -0.106085 0)
(-0.00405737 -0.0878545 0)
(-9.75818e-05 -0.0607454 0)
(0.00601925 -0.043536 0)
(0.01256 -0.0340869 0)
(0.019192 -0.0279619 0)
(0.0263128 -0.0228126 0)
(0.0348693 -0.0184529 0)
(0.0444557 -0.0158224 0)
(0.0534578 -0.0137913 0)
(0.0614717 -0.0112225 0)
(0.0681085 -0.00730077 0)
(0.0726293 -0.00153015 0)
(0.073782 0.00565671 0)
(0.0706301 0.0137918 0)
(0.0632254 0.0234929 0)
(0.0540786 0.0405173 0)
(0.0411831 0.0610292 0)
(0.0679152 0.0833468 0)
(-0.0349187 0.117691 0)
(0.0414552 0.021403 0)
(-0.0748998 -0.0422356 0)
(-0.283123 -0.0651345 0)
(0.818736 0.429786 0)
(-0.351885 0.173698 0)
(0.00460828 0.121676 0)
(-0.0403827 0.109954 0)
(-0.0436041 0.0962531 0)
(-0.0484061 0.0797705 0)
(-0.0526106 0.0603959 0)
(-0.0563735 0.0366985 0)
(-0.0586263 0.00664078 0)
(-0.052155 -0.0309811 0)
(-0.0439278 -0.0690747 0)
(-0.0365134 -0.100475 0)
(-0.0307272 -0.123884 0)
(-0.0272235 -0.139958 0)
(-0.0257667 -0.149755 0)
(-0.0248422 -0.153889 0)
(-0.0200004 -0.148342 0)
(-0.0117393 -0.123142 0)
(-0.00425786 -0.0919387 0)
(-0.00331216 -0.064066 0)
(-0.000918683 -0.0481214 0)
(0.00218039 -0.0391553 0)
(0.00622089 -0.0336753 0)
(0.0112966 -0.0295129 0)
(0.0174892 -0.0262867 0)
(0.0243771 -0.0242185 0)
(0.0313943 -0.0222429 0)
(0.0382598 -0.0192776 0)
(0.0447895 -0.0143058 0)
(0.0505546 -0.00642239 0)
(0.0551402 0.00424523 0)
(0.0561096 0.016016 0)
(0.0546678 0.0287184 0)
(0.0532472 0.044794 0)
(0.0490659 0.064653 0)
(0.0763683 0.0902585 0)
(0.0459887 0.112143 0)
(0.0943868 0.0720477 0)
(0.121061 0.0450211 0)
(-0.146003 -0.0169113 0)
(0.843747 0.474787 0)
(-0.373332 0.165205 0)
(0.0245985 0.0782068 0)
(0.00991361 0.10916 0)
(0.00726178 0.106184 0)
(0.00399679 0.0853471 0)
(0.00391349 0.0623372 0)
(0.004849 0.0374036 0)
(0.00631219 0.00362683 0)
(0.0236864 -0.0405716 0)
(0.0305641 -0.0774461 0)
(0.0324428 -0.105497 0)
(0.0306987 -0.12541 0)
(0.0258484 -0.138628 0)
(0.0187165 -0.146822 0)
(0.0109319 -0.151539 0)
(0.00640212 -0.150038 0)
(0.00321813 -0.127422 0)
(-2.08855e-05 -0.0909028 0)
(-0.00568819 -0.0619593 0)
(-0.00794304 -0.0478801 0)
(-0.00917606 -0.0405475 0)
(-0.00887718 -0.0362348 0)
(-0.00736009 -0.0333396 0)
(-0.00476809 -0.0313376 0)
(-0.00137794 -0.0299305 0)
(0.00267204 -0.028337 0)
(0.0071116 -0.0257241 0)
(0.0121393 -0.0210373 0)
(0.0178653 -0.0129727 0)
(0.0257374 -0.000412608 0)
(0.0328588 0.0136029 0)
(0.0377524 0.0271379 0)
(0.0441395 0.0416847 0)
(0.0501773 0.0578701 0)
(0.0761141 0.0789811 0)
(0.0865231 0.0883085 0)
(0.123589 0.0571544 0)
(0.166816 0.0426028 0)
(-0.0362417 0.0940737 0)
(0.941333 0.490603 0)
(-0.128957 0.147451 0)
(0.0865592 0.00821664 0)
(0.126925 0.0448336 0)
(0.105936 0.0715025 0)
(0.0892448 0.0614472 0)
(0.0864181 0.0383357 0)
(0.0894376 0.0108988 0)
(0.103264 -0.0229035 0)
(0.11491 -0.0537125 0)
(0.115113 -0.0802882 0)
(0.107389 -0.101336 0)
(0.0946505 -0.116706 0)
(0.0786455 -0.127207 0)
(0.0608528 -0.134334 0)
(0.0433686 -0.139993 0)
(0.0295551 -0.141699 0)
(0.0168261 -0.120788 0)
(0.00429413 -0.0826071 0)
(-0.00973362 -0.0543814 0)
(-0.0167807 -0.043331 0)
(-0.02234 -0.0380404 0)
(-0.0261288 -0.0351046 0)
(-0.028703 -0.0333434 0)
(-0.0303763 -0.032283 0)
(-0.0314027 -0.0315411 0)
(-0.0319051 -0.0306 0)
(-0.0318391 -0.0288877 0)
(-0.0309416 -0.0257945 0)
(-0.0286872 -0.0206596 0)
(-0.0235353 -0.0127703 0)
(-0.00945173 -0.00134493 0)
(0.000149182 0.0112605 0)
(0.0121307 0.0215203 0)
(0.0239629 0.0295757 0)
(0.0474518 0.0392078 0)
(0.0680723 0.0323333 0)
(0.0897171 -0.0037139 0)
(0.15253 0.0395395 0)
(-0.446974 0.216479 0)
(1.06882 0.451749 0)
(0.517892 0.301837 0)
(0.519694 0.233074 0)
(0.489692 0.194928 0)
(0.407328 0.168709 0)
(0.335613 0.130755 0)
(0.294476 0.0881847 0)
(0.273157 0.0473692 0)
(0.257936 0.00891678 0)
(0.235292 -0.0269236 0)
(0.209197 -0.0563927 0)
(0.181276 -0.0781937 0)
(0.152165 -0.0931926 0)
(0.122458 -0.103239 0)
(0.0929223 -0.11066 0)
(0.0659315 -0.118299 0)
(0.0443566 -0.123911 0)
(0.0244027 -0.103699 0)
(0.00500505 -0.0653686 0)
(-0.0168333 -0.0424114 0)
(-0.0280563 -0.0357429 0)
(-0.0371523 -0.0328428 0)
(-0.0446808 -0.0311908 0)
(-0.0513462 -0.030183 0)
(-0.0575504 -0.0295281 0)
(-0.0635953 -0.0289045 0)
(-0.0697044 -0.0278691 0)
(-0.0760518 -0.0258713 0)
(-0.082845 -0.0222614 0)
(-0.0904132 -0.0163312 0)
(-0.0991162 -0.00742303 0)
(-0.108976 0.0047379 0)
(-0.117264 0.0189053 0)
(-0.132182 0.035063 0)
(-0.157636 0.0534131 0)
(-0.195539 0.0724649 0)
(-0.250552 0.0869924 0)
(-0.314437 0.0942929 0)
(-0.386463 0.0954639 0)
(-0.654342 0.0907886 0)
(-0.241448 0.100039 0)
(0.175011 0.172514 0)
(0.265825 0.166743 0)
(0.263266 0.135819 0)
(0.264004 0.0956739 0)
(0.265767 0.054548 0)
(0.261627 0.0180172 0)
(0.249195 -0.0116575 0)
(0.228341 -0.0338937 0)
(0.201671 -0.049835 0)
(0.171057 -0.0608949 0)
(0.138072 -0.0686212 0)
(0.103972 -0.0751394 0)
(0.0725984 -0.0842981 0)
(0.0448501 -0.0950974 0)
(0.0178102 -0.0732814 0)
(-0.00328272 -0.0360919 0)
(-0.0281558 -0.0242537 0)
(-0.041409 -0.0227411 0)
(-0.0519572 -0.0225538 0)
(-0.0615947 -0.022531 0)
(-0.0709166 -0.0225299 0)
(-0.0801871 -0.0224275 0)
(-0.0896038 -0.0220054 0)
(-0.099243 -0.0209114 0)
(-0.10901 -0.0186531 0)
(-0.118607 -0.0146195 0)
(-0.12749 -0.00815524 0)
(-0.134765 0.00133151 0)
(-0.139215 0.0139741 0)
(-0.14172 0.0301445 0)
(-0.143596 0.05004 0)
(-0.146197 0.0726115 0)
(-0.150261 0.0936 0)
(-0.152672 0.101443 0)
(-0.134717 0.0735046 0)
(-0.0836142 -0.0312133 0)
(-0.290709 -0.221797 0)
(-0.12148 0.252679 0)
(0.0903437 0.18122 0)
(0.107453 0.132909 0)
(0.138886 0.10863 0)
(0.172382 0.0795982 0)
(0.197006 0.0500059 0)
(0.208294 0.0262798 0)
(0.207236 0.0102591 0)
(0.196569 -0.00177647 0)
(0.178474 -0.0111371 0)
(0.155016 -0.0184967 0)
(0.127617 -0.0246968 0)
(0.0970432 -0.0321015 0)
(0.067277 -0.0478833 0)
(0.0283618 -0.0707616 0)
(-0.0148694 -0.0345381 0)
(-0.0296984 0.0263338 0)
(-0.0471181 0.0271844 0)
(-0.0576708 0.0216529 0)
(-0.0665625 0.0196056 0)
(-0.0752073 0.0183421 0)
(-0.0836983 0.0169794 0)
(-0.0920354 0.0156196 0)
(-0.100196 0.0144461 0)
(-0.108065 0.0136154 0)
(-0.115403 0.013268 0)
(-0.12184 0.0135409 0)
(-0.126819 0.0145789 0)
(-0.129365 0.0165462 0)
(-0.128046 0.0217632 0)
(-0.121197 0.0315965 0)
(-0.107812 0.0467289 0)
(-0.0883164 0.066681 0)
(-0.0642936 0.0867531 0)
(-0.0389709 0.0982874 0)
(0.00421643 0.0801964 0)
(0.146799 0.00340297 0)
(-0.210363 -0.13421 0)
(-0.148995 -0.364341 0)
(-0.442831 -0.0999676 0)
(-0.322059 0.152498 0)
(-0.169224 0.0597624 0)
(-0.083222 0.0350818 0)
(0.0174235 0.032747 0)
(0.0818663 0.0124468 0)
(0.127689 -0.00845263 0)
(0.155185 -0.027189 0)
(0.165378 -0.0437932 0)
(0.16297 -0.0568457 0)
(0.15114 -0.0676771 0)
(0.132777 -0.0777305 0)
(0.109857 -0.0884068 0)
(0.0830466 -0.10199 0)
(0.056255 -0.122983 0)
(-0.00734474 -0.142239 0)
(-0.0626671 -0.129155 0)
(-0.0669122 -0.12287 0)
(-0.0692029 -0.119016 0)
(-0.0749219 -0.114396 0)
(-0.0820418 -0.108421 0)
(-0.0892429 -0.101894 0)
(-0.0962976 -0.0952558 0)
(-0.10317 -0.0886546 0)
(-0.109755 -0.082093 0)
(-0.115824 -0.0754627 0)
(-0.120991 -0.0685483 0)
(-0.124693 -0.0610143 0)
(-0.12615 -0.0523691 0)
(-0.124248 -0.0419434 0)
(-0.11696 -0.0306672 0)
(-0.101327 -0.0178971 0)
(-0.0751736 -0.00264465 0)
(-0.0395352 0.0158912 0)
(0.0181165 0.0392868 0)
(0.0702546 0.041038 0)
(0.119259 0.0195762 0)
(0.175428 -0.0202324 0)
(-0.187319 -0.0873955 0)
)
;

boundaryField
{
    floor
    {
        type            noSlip;
    }
    ceiling
    {
        type            noSlip;
    }
    sWall
    {
        type            noSlip;
    }
    nWall
    {
        type            noSlip;
    }
    sideWalls
    {
        type            empty;
    }
    glass1
    {
        type            noSlip;
    }
    glass2
    {
        type            noSlip;
    }
    sun
    {
        type            noSlip;
    }
    heatsource1
    {
        type            noSlip;
    }
    heatsource2
    {
        type            noSlip;
    }
    Table_master
    {
        type            noSlip;
    }
    Table_slave
    {
        type            noSlip;
    }
    inlet
    {
        type            fixedValue;
        value           uniform (0.277164 -0.114805 0);
    }
    outlet
    {
        type            zeroGradient;
    }
}


// ************************************************************************* //
