/*--------------------------------*- C++ -*----------------------------------*\
  =========                 |
  \\      /  F ield         | OpenFOAM: The Open Source CFD Toolbox
   \\    /   O peration     | Website:  https://openfoam.org
    \\  /    A nd           | Version:  6
     \\/     M anipulation  |
\*---------------------------------------------------------------------------*/
FoamFile
{
    version     2.0;
    format      ascii;
    class       volScalarField;
    location    "310";
    object      alphat;
}
// * * * * * * * * * * * * * * * * * * * * * * * * * * * * * * * * * * * * * //

dimensions      [1 -1 -1 0 0 0 0];

internalField   nonuniform List<scalar> 
459
(
0.00105114
0.00117824
0.001241
0.00132072
0.00140472
0.00148981
0.00156004
0.00160459
0.00159972
0.00151835
0.00142402
0.00131545
0.00120043
0.00108979
0.000970437
0.000586139
0.000765682
0.00087936
0.000932028
0.000927588
0.000901741
0.00084926
0.000793236
0.000742152
0.000697023
0.000657246
0.000622031
0.000590752
0.000562556
0.000536175
0.000510031
0.000481655
0.000440716
0.000393609
0.00130954
0.00348546
0.00360035
0.0042093
0.00476431
0.005195
0.00560224
0.00600121
0.00634859
0.0063683
0.00606822
0.00557408
0.00476686
0.0036478
0.00237107
0.00107424
0.000914844
0.000802465
0.00287107
0.00303926
0.00347979
0.00377975
0.0036449
0.0025694
0.00212992
0.00184685
0.00164217
0.00148649
0.00136421
0.0012596
0.00115598
0.00104575
0.000942359
0.000869901
0.000707378
0.000445349
0.00152475
0.00481652
0.00457243
0.00503066
0.00529328
0.00549814
0.00576593
0.00624035
0.0068828
0.00724975
0.00725395
0.00699069
0.00646767
0.00551833
0.00418883
0.0025887
0.00100848
0.000868869
0.00287448
0.00341741
0.00421348
0.00477949
0.00441102
0.00113124
0.000988556
0.000873043
0.000780361
0.000705628
0.000644847
0.000595453
0.000556527
0.000528526
0.000598184
0.00072977
0.00075788
0.000477806
0.00173052
0.00584854
0.00490494
0.00520125
0.00517272
0.00514066
0.00527155
0.00582061
0.00663335
0.00720547
0.00741934
0.00733561
0.00703247
0.00642056
0.00542793
0.00401152
0.00211079
0.00108493
0.00159415
0.00260405
0.00400474
0.00524155
0.00595551
0.00541893
0.00124707
0.00113537
0.00105124
0.000982618
0.000924528
0.000870876
0.000817549
0.000761415
0.000697912
0.000641798
0.000688461
0.000844283
0.000525508
0.00194168
0.00703963
0.00542735
0.00550896
0.00523592
0.00494092
0.00497204
0.00559583
0.00647811
0.00717427
0.00747973
0.00745474
0.00723924
0.00686573
0.00626196
0.00536259
0.00423118
0.00395119
0.0047257
0.00578518
0.0067701
0.00746042
0.007766
0.00752758
0.00613903
0.00542946
0.00498781
0.00464298
0.00423971
0.00377044
0.00323438
0.00263856
0.00200842
0.00143319
0.00107857
0.00106099
0.000778329
0.000584149
0.000580413
0.000575564
0.00216598
0.00838672
0.00677367
0.00626973
0.00550683
0.00490377
0.00489605
0.0055732
0.00655959
0.00734318
0.00768037
0.00766081
0.00751269
0.00737304
0.00717693
0.00688831
0.00665914
0.00710751
0.00794766
0.00863453
0.00906397
0.00920925
0.0090956
0.00874081
0.00811656
0.00753391
0.00701484
0.00649346
0.00592896
0.00530632
0.00462116
0.0038783
0.00310299
0.00236457
0.00178232
0.00149819
0.00120895
0.00101178
0.00121619
0.00073781
0.00235409
0.00926215
0.00851899
0.00706194
0.00566452
0.00483785
0.00489956
0.0057397
0.00687744
0.00773526
0.00807966
0.00809947
0.00814217
0.00828518
0.00838258
0.00849696
0.00877978
0.00938265
0.00995351
0.0102154
0.0101947
0.00993738
0.00951343
0.00899066
0.00841164
0.007857
0.00732412
0.00678005
0.00621241
0.0056119
0.00499414
0.00436521
0.00373508
0.00311528
0.00255691
0.0021568
0.00178674
0.00149389
0.00150424
0.000871488
0.00238894
0.00785054
0.00727461
0.00595638
0.00481316
0.0044069
0.00492345
0.00613274
0.00746882
0.00834802
0.00867606
0.00883585
0.00901027
0.00907609
0.009204
0.00946342
0.00985375
0.010279
0.0105072
0.0104126
0.0100388
0.00947435
0.00881104
0.00813122
0.00749318
0.00691892
0.00638272
0.00585187
0.00532935
0.00483382
0.00439671
0.00403943
0.00375355
0.00341621
0.00309821
0.0028564
0.00261282
0.00220621
0.00257286
0.00111245
0.0023329
0.0027228
0.00281171
0.00276124
0.00293045
0.00376157
0.00526237
0.00700577
0.0084192
0.00908367
0.0093764
0.00924989
0.00904217
0.00896609
0.00907788
0.0093158
0.00957195
0.00969656
0.00957186
0.00918517
0.00858829
0.00787211
0.00714289
0.00648507
0.00593279
0.00546539
0.00503444
0.00460513
0.00417546
0.00374174
0.00330379
0.00288868
0.0025539
0.00231992
0.00215417
0.00202443
0.00191812
0.00182586
0.00176156
0.0012086
0.000570472
0.00154365
0.00344101
0.00571423
0.0076815
0.00894307
0.00957028
0.00936119
0.00892582
0.00853405
0.00832296
0.00828219
0.0083348
0.00839474
0.00837703
0.00821097
0.0078871
0.0074586
0.00700066
0.0065748
0.00621144
0.00590924
0.00564456
0.00538535
0.00510286
0.00477715
0.00440373
0.00399099
0.00355939
0.003136
0.0027558
0.00245074
0.0022428
0.00212305
0.00204741
0.00197183
0.00190003
0.0013938
0.00205889
0.00810616
0.00978099
0.0101343
0.0100423
0.0096276
0.00897809
0.00831202
0.00782077
0.00756459
0.00746452
0.00743866
0.00743517
0.00742333
0.00738113
0.00729627
0.00717401
0.00703443
0.00689918
0.00678246
0.00668742
0.00660803
0.00653274
0.00644645
0.0063308
0.00616488
0.00592691
0.00560101
0.00518551
0.00469905
0.00417698
0.00366866
0.00321954
0.0028537
0.00256591
0.00236204
0.00304043
0.00155017
0.00194559
0.00209206
0.00224459
0.00251897
0.00239315
0.00223755
0.00211025
0.00198778
0.00187438
0.00179106
0.0017434
0.00172101
0.00171369
0.00171454
0.00171901
0.0017236
0.00172551
0.00172322
0.00171706
0.00170879
0.0017003
0.00169273
0.00168622
0.00168007
0.00167295
0.00166303
0.00164832
0.00162695
0.00159783
0.00156111
0.00151851
0.00147311
0.0014289
0.00138978
0.00135866
0.0013353
0.00131295
0.00128469
0.00129796
0.00127285
)
;

boundaryField
{
    floor
    {
        type            compressible::alphatWallFunction;
        Prt             0.85;
        value           nonuniform List<scalar> 
29
(
0.000138363
8.25296e-05
0.000109044
0.000125431
0.00013294
0.000132309
0.00012863
0.000121121
0.000113043
0.000105618
9.90068e-05
9.31366e-05
8.79035e-05
8.32248e-05
7.89808e-05
7.4986e-05
7.10028e-05
6.66504e-05
6.03127e-05
5.29254e-05
5.29247e-05
6.10341e-05
6.60592e-05
7.33674e-05
0.000138362
8.25286e-05
0.000114373
0.000123926
0.00015444
)
;
    }
    ceiling
    {
        type            compressible::alphatWallFunction;
        Prt             0.85;
        value           nonuniform List<scalar> 
43
(
0.000270272
0.000289338
0.000309041
0.000344145
0.000328121
0.000308174
0.000291741
0.000275829
0.000261001
0.000250044
0.000243752
0.000240791
0.000239823
0.000239937
0.000240529
0.000241137
0.000241392
0.000241087
0.000240272
0.000239176
0.00023805
0.000237044
0.000236179
0.000235363
0.000234416
0.000233098
0.00023114
0.000228293
0.000224409
0.000219498
0.000213786
0.000207676
0.000201707
0.000196408
0.000192178
0.000188997
0.000185947
0.000182084
0.000183903
0.00018047
0.000320397
0.000369939
0.000284987
)
;
    }
    sWall
    {
        type            compressible::alphatWallFunction;
        Prt             0.85;
        value           uniform 0.000269797;
    }
    nWall
    {
        type            compressible::alphatWallFunction;
        Prt             0.85;
        value           nonuniform List<scalar> 6(8.06533e-05 0.000104678 0.000123992 0.000196611 0.000217684 0.000180135);
    }
    sideWalls
    {
        type            empty;
    }
    glass1
    {
        type            compressible::alphatWallFunction;
        Prt             0.85;
        value           nonuniform List<scalar> 9(0.000148237 0.000183764 0.000212764 0.00024008 0.000267756 0.000296807 0.000320933 0.00032541 0.000318311);
    }
    glass2
    {
        type            compressible::alphatWallFunction;
        Prt             0.85;
        value           nonuniform List<scalar> 2(0.000157382 0.000170696);
    }
    sun
    {
        type            compressible::alphatWallFunction;
        Prt             0.85;
        value           nonuniform List<scalar> 
14
(
0.000149714
0.000167392
0.000176041
0.000186956
0.000198376
0.000209866
0.000219295
0.000225251
0.000224598
0.000213704
0.000200991
0.000186239
0.000170462
0.000155119
)
;
    }
    heatsource1
    {
        type            compressible::alphatWallFunction;
        Prt             0.85;
        value           nonuniform List<scalar> 3(8.21101e-05 8.15478e-05 8.08175e-05);
    }
    heatsource2
    {
        type            compressible::alphatWallFunction;
        Prt             0.85;
        value           nonuniform List<scalar> 4(0.000152836 0.000130368 0.000130366 0.000143614);
    }
    Table_master
    {
        type            compressible::alphatWallFunction;
        Prt             0.85;
        value           nonuniform List<scalar> 9(0.000160772 0.000140808 0.000124399 0.000111048 0.000100144 9.11722e-05 8.38053e-05 7.79465e-05 7.37006e-05);
    }
    Table_slave
    {
        type            compressible::alphatWallFunction;
        Prt             0.85;
        value           nonuniform List<scalar> 9(0.000176767 0.000161348 0.000149619 0.000139972 0.000131744 0.00012409 0.000116427 0.000108296 9.90097e-05);
    }
    inlet
    {
        type            fixedValue;
        value           uniform 1.94e-05;
    }
    outlet
    {
        type            zeroGradient;
    }
}


// ************************************************************************* //
