// -*- C++ -*-
// File generated by PyFoam - sorry for the ugliness

FoamFile
{
 version 2.0;
 format ascii;
 class volVectorField;
 location "500";
 object U;
}

dimensions [ 0 1 -1 0 0 0 0 ];

internalField nonuniform List<vector> 459
(
  (0.0871776 0.064236 0)
  (-0.129783 0.00348253 0)
  (-0.115228 0.00590944 0)
  (-0.128691 0.00651199 0)
  (-0.14164 0.00545651 0)
  (-0.152985 0.00369645 0)
  (-0.161806 0.00143882 0)
  (-0.16736 -0.00130019 0)
  (-0.168893 -0.00456894 0)
  (-0.165543 -0.00850752 0)
  (-0.156202 -0.0133737 0)
  (-0.139042 -0.0194624 0)
  (-0.112821 -0.0278271 0)
  (-0.0828048 -0.0404529 0)
  (-0.070972 -0.0568643 0)
  (0.0285291 0.0100572 0)
  (-0.0287689 -0.00530869 0)
  (-0.0183647 -0.00607256 0)
  (-0.0146669 -0.00359341 0)
  (-0.0100189 -0.00286188 0)
  (-0.00614991 -0.00334018 0)
  (-0.000386637 -0.00656757 0)
  (0.00551766 -0.00575602 0)
  (0.0106424 -0.00456844 0)
  (0.0146125 -0.00378262 0)
  (0.0178156 -0.00344191 0)
  (0.0204054 -0.00328357 0)
  (0.0225305 -0.00285394 0)
  (0.0228627 -0.00176443 0)
  (0.0216434 -8.11922e-05 0)
  (0.0215667 -0.000152026 0)
  (0.0218051 -0.00530001 0)
  (0.0322101 -0.00713927 0)
  (-0.0176033 0.011655 0)
  (0.276761 0.139276 0)
  (-0.148941 0.0198439 0)
  (-0.101881 0.0202771 0)
  (-0.119924 0.0208125 0)
  (-0.13356 0.0191494 0)
  (-0.145225 0.0161437 0)
  (-0.154394 0.0120388 0)
  (-0.160548 0.00682353 0)
  (-0.163043 0.000398955 0)
  (-0.161119 -0.00735331 0)
  (-0.154354 -0.0163293 0)
  (-0.141969 -0.0265634 0)
  (-0.123855 -0.038978 0)
  (-0.102326 -0.055362 0)
  (-0.0826421 -0.0739881 0)
  (-0.0672299 -0.0811431 0)
  (0.0441559 0.0179079 0)
  (0.0991974 0.00917253 0)
  (0.0328121 0.00724979 0)
  (0.00565448 0.00447316 0)
  (-0.00370411 0.00309161 0)
  (-0.00654672 0.000868228 0)
  (-0.0101625 -0.00242893 0)
  (-0.0109589 -0.00923981 0)
  (-0.0093232 -0.00733786 0)
  (-0.00745236 -0.00514942 0)
  (-0.00760722 -0.00359974 0)
  (-0.00860676 -0.0020076 0)
  (-0.0106623 0.00033343 0)
  (-0.014481 0.0034249 0)
  (-0.0182762 0.00594051 0)
  (-0.0217707 0.0065002 0)
  (-0.0227789 0.00371514 0)
  (-0.0224651 0.00206743 0)
  (-0.0377447 0.00762658 0)
  (-0.104442 0.0186641 0)
  (0.436193 0.212123 0)
  (-0.190716 0.0449936 0)
  (-0.082867 0.0379962 0)
  (-0.106898 0.034556 0)
  (-0.120176 0.0306887 0)
  (-0.131514 0.0253006 0)
  (-0.140682 0.0183249 0)
  (-0.147327 0.00968903 0)
  (-0.150895 -0.000650215 0)
  (-0.150626 -0.0125428 0)
  (-0.14659 -0.0258038 0)
  (-0.139077 -0.0400651 0)
  (-0.128986 -0.0553205 0)
  (-0.118034 -0.0713106 0)
  (-0.108284 -0.0850128 0)
  (-0.103156 -0.0901214 0)
  (-0.112049 -0.0857708 0)
  (0.0173764 0.0178829 0)
  (-0.0398134 0.0119668 0)
  (-0.0389398 0.0105476 0)
  (-0.035528 0.00559485 0)
  (-0.0318633 -0.000337534 0)
  (-0.0285759 -0.00680143 0)
  (-0.0192025 -0.00862182 0)
  (-0.0330914 -0.00735549 0)
  (-0.0386574 -0.0054902 0)
  (-0.0423419 -0.00418461 0)
  (-0.0445822 -0.00310814 0)
  (-0.0450994 -0.00208827 0)
  (-0.0436809 -0.00117999 0)
  (-0.0410452 -0.00104079 0)
  (-0.0348858 -0.00286407 0)
  (-0.0207736 -0.00749607 0)
  (-0.00486077 -0.00227025 0)
  (0.00711719 -0.0021379 0)
  (-0.0963507 -0.00683091 0)
  (0.56546 0.272399 0)
  (-0.234659 0.074389 0)
  (-0.0602606 0.055876 0)
  (-0.0912464 0.0481332 0)
  (-0.103359 0.0424736 0)
  (-0.11324 0.035382 0)
  (-0.121423 0.0264514 0)
  (-0.127644 0.0154201 0)
  (-0.131397 0.00214944 0)
  (-0.131902 -0.0130469 0)
  (-0.129587 -0.0291741 0)
  (-0.125834 -0.0451965 0)
  (-0.12234 -0.0604748 0)
  (-0.121024 -0.0740092 0)
  (-0.124187 -0.0829862 0)
  (-0.136037 -0.0819426 0)
  (-0.156931 -0.0603375 0)
  (-0.152366 -0.0034601 0)
  (-0.108831 0.0122731 0)
  (-0.0982458 0.00845844 0)
  (-0.0871466 0.00458257 0)
  (-0.0826964 0.000142114 0)
  (-0.0810101 -0.00477375 0)
  (-0.0815357 -0.00897428 0)
  (-0.0796201 -0.00733182 0)
  (-0.0727132 -0.00691036 0)
  (-0.0659218 -0.00720248 0)
  (-0.0590236 -0.0074488 0)
  (-0.0520594 -0.00768923 0)
  (-0.0449583 -0.00804041 0)
  (-0.0372029 -0.00873303 0)
  (-0.027804 -0.010195 0)
  (-0.0166105 -0.0131409 0)
  (-0.011254 -0.0174498 0)
  (-0.00184051 -0.012518 0)
  (0.0159278 -0.00459813 0)
  (-0.0366963 0.0117089 0)
  (0.667527 0.321913 0)
  (-0.272492 0.105232 0)
  (-0.0377311 0.0706562 0)
  (-0.0733784 0.0595534 0)
  (-0.0840611 0.052132 0)
  (-0.0912727 0.0434158 0)
  (-0.0970018 0.0328217 0)
  (-0.101185 0.0198588 0)
  (-0.103314 0.00421058 0)
  (-0.102295 -0.0135453 0)
  (-0.0993839 -0.0312497 0)
  (-0.0965173 -0.0470254 0)
  (-0.0954729 -0.0602545 0)
  (-0.0976182 -0.0705384 0)
  (-0.103896 -0.0767716 0)
  (-0.114407 -0.076574 0)
  (-0.124592 -0.0648651 0)
  (-0.125243 -0.0369183 0)
  (-0.114838 -0.0148299 0)
  (-0.101921 -0.00510334 0)
  (-0.0912762 -0.00313936 0)
  (-0.0841889 -0.00407176 0)
  (-0.0797021 -0.00650409 0)
  (-0.0770634 -0.00861429 0)
  (-0.0742404 -0.00852451 0)
  (-0.0703696 -0.00891154 0)
  (-0.0662805 -0.00925961 0)
  (-0.0621322 -0.00952416 0)
  (-0.0579501 -0.00977009 0)
  (-0.0536867 -0.0102149 0)
  (-0.0490934 -0.01127 0)
  (-0.0437887 -0.0135487 0)
  (-0.0377582 -0.0177011 0)
  (-0.0310868 -0.0236068 0)
  (-0.0211054 -0.0264836 0)
  (-0.000431084 -0.0267127 0)
  (0.0285762 -0.0213667 0)
  (0.0670357 -0.0286909 0)
  (0.101467 -0.00624705 0)
  (-0.0427122 0.0432281 0)
  (0.733544 0.366182 0)
  (-0.302894 0.13319 0)
  (-0.0218392 0.0774563 0)
  (-0.051797 0.068726 0)
  (-0.0615999 0.059439 0)
  (-0.0656974 0.0484246 0)
  (-0.0676025 0.0361052 0)
  (-0.0681025 0.0215557 0)
  (-0.0666782 0.00379722 0)
  (-0.061526 -0.0162807 0)
  (-0.0568471 -0.0345114 0)
  (-0.0539226 -0.0486731 0)
  (-0.0540072 -0.0588085 0)
  (-0.0577669 -0.065369 0)
  (-0.0652431 -0.0680338 0)
  (-0.075258 -0.0651819 0)
  (-0.0839842 -0.0545031 0)
  (-0.0868804 -0.037478 0)
  (-0.0834785 -0.0227666 0)
  (-0.0771072 -0.0141247 0)
  (-0.0710291 -0.010273 0)
  (-0.0664603 -0.00930618 0)
  (-0.0634914 -0.0100364 0)
  (-0.0617811 -0.0110544 0)
  (-0.0604668 -0.0114243 0)
  (-0.0591068 -0.0118017 0)
  (-0.0578522 -0.0121146 0)
  (-0.0568447 -0.0122808 0)
  (-0.0562242 -0.0123662 0)
  (-0.0561081 -0.0126616 0)
  (-0.0565009 -0.0137445 0)
  (-0.0573121 -0.0164237 0)
  (-0.0584085 -0.0214186 0)
  (-0.0589888 -0.0287149 0)
  (-0.0564112 -0.0372764 0)
  (-0.0471203 -0.0478264 0)
  (-0.0308336 -0.0602245 0)
  (-0.0104369 -0.0679774 0)
  (0.0728308 -0.0111782 0)
  (-0.0793422 0.092414 0)
  (0.752051 0.40673 0)
  (-0.316701 0.134421 0)
  (-0.00704077 0.0542786 0)
  (-0.012218 0.0749261 0)
  (-0.0264336 0.0679431 0)
  (-0.0306086 0.0497577 0)
  (-0.0282709 0.0341604 0)
  (-0.023867 0.0180904 0)
  (-0.0155099 -0.00203867 0)
  (-0.00612062 -0.0234758 0)
  (-0.00112374 -0.0399087 0)
  (0.000363859 -0.0507032 0)
  (-0.00168062 -0.0569211 0)
  (-0.00722719 -0.059761 0)
  (-0.0158681 -0.0596797 0)
  (-0.0262207 -0.0559383 0)
  (-0.0354991 -0.0475129 0)
  (-0.0409618 -0.0359519 0)
  (-0.0422393 -0.0253012 0)
  (-0.0411192 -0.017891 0)
  (-0.0394432 -0.0136462 0)
  (-0.0381633 -0.0117374 0)
  (-0.0376364 -0.0113521 0)
  (-0.0378285 -0.0115696 0)
  (-0.038406 -0.0117796 0)
  (-0.0391809 -0.0119392 0)
  (-0.0402449 -0.0118834 0)
  (-0.0418004 -0.011461 0)
  (-0.0441967 -0.0106689 0)
  (-0.0479511 -0.00982543 0)
  (-0.0536399 -0.00971737 0)
  (-0.0617211 -0.0114495 0)
  (-0.0721834 -0.0158657 0)
  (-0.0842997 -0.0233382 0)
  (-0.0966816 -0.0342835 0)
  (-0.107345 -0.0493564 0)
  (-0.113073 -0.0661435 0)
  (-0.108452 -0.0703472 0)
  (-0.0935758 -0.0218867 0)
  (-0.146919 0.166676 0)
  (0.847295 0.428288 0)
  (-0.135587 0.111868 0)
  (0.0619633 -0.0107413 0)
  (0.0943182 0.0359222 0)
  (0.0632319 0.0484169 0)
  (0.0449851 0.029631 0)
  (0.0451392 0.011998 0)
  (0.0501946 -0.00376199 0)
  (0.0619232 -0.0197478 0)
  (0.0677105 -0.0333639 0)
  (0.0678701 -0.0434304 0)
  (0.0642725 -0.0496053 0)
  (0.0579673 -0.0523193 0)
  (0.0495178 -0.0522623 0)
  (0.0392975 -0.0500195 0)
  (0.0280095 -0.045734 0)
  (0.0172379 -0.0391915 0)
  (0.00891929 -0.0310611 0)
  (0.00372793 -0.0232856 0)
  (0.000748959 -0.0173114 0)
  (-0.00121412 -0.0134152 0)
  (-0.00289616 -0.0113031 0)
  (-0.00471584 -0.0104343 0)
  (-0.00679072 -0.0102175 0)
  (-0.00903351 -0.0101853 0)
  (-0.0113723 -0.0100838 0)
  (-0.0138438 -0.00962903 0)
  (-0.0165518 -0.00852444 0)
  (-0.0197408 -0.00653764 0)
  (-0.0238899 -0.00364679 0)
  (-0.0296684 -0.00016073 0)
  (-0.0388706 0.00278829 0)
  (-0.0540546 0.00293069 0)
  (-0.0768712 -0.00243454 0)
  (-0.107152 -0.0147823 0)
  (-0.141865 -0.0328506 0)
  (-0.177313 -0.0535017 0)
  (-0.211656 -0.0718302 0)
  (-0.265474 -0.0796479 0)
  (-0.487854 -0.0627923 0)
  (0.977277 0.410415 0)
  (0.464915 0.269084 0)
  (0.431517 0.191979 0)
  (0.397952 0.171709 0)
  (0.306949 0.13694 0)
  (0.245831 0.0924745 0)
  (0.216705 0.0548298 0)
  (0.200395 0.0256708 0)
  (0.183733 0.00156166 0)
  (0.165931 -0.0171808 0)
  (0.149333 -0.0297511 0)
  (0.133995 -0.0367922 0)
  (0.119571 -0.039508 0)
  (0.105825 -0.0390336 0)
  (0.0926104 -0.0362825 0)
  (0.0799322 -0.031972 0)
  (0.0682098 -0.0266769 0)
  (0.0582506 -0.0210433 0)
  (0.0505092 -0.0158683 0)
  (0.0446297 -0.0117427 0)
  (0.03995 -0.00886888 0)
  (0.0359485 -0.00712901 0)
  (0.0322808 -0.00625313 0)
  (0.0287644 -0.00590558 0)
  (0.0253436 -0.0057708 0)
  (0.0220137 -0.0055944 0)
  (0.0187853 -0.00510768 0)
  (0.0157118 -0.0040056 0)
  (0.0128754 -0.00197788 0)
  (0.0105206 0.00118737 0)
  (0.0088575 0.00568162 0)
  (0.0072816 0.0111943 0)
  (0.00555901 0.0164507 0)
  (0.00323179 0.0192413 0)
  (0.000768021 0.0173911 0)
  (-0.00378727 0.00942927 0)
  (-0.00834414 -0.00268282 0)
  (0.00232387 -0.0199565 0)
  (0.0371644 -0.0897474 0)
  (-0.397047 -0.193812 0)
  (-0.763719 0.112544 0)
  (0.195696 0.164832 0)
  (0.188884 0.130551 0)
  (0.189502 0.0920439 0)
  (0.201737 0.05917 0)
  (0.207349 0.0332856 0)
  (0.204667 0.014309 0)
  (0.196717 0.000715523 0)
  (0.185907 -0.00925256 0)
  (0.173326 -0.0157793 0)
  (0.159661 -0.0190866 0)
  (0.145648 -0.0194968 0)
  (0.131947 -0.0174904 0)
  (0.119089 -0.0137176 0)
  (0.10752 -0.00898452 0)
  (0.0976247 -0.00419183 0)
  (0.0895138 -6.46391e-05 0)
  (0.0829037 0.00296747 0)
  (0.0773832 0.00474267 0)
  (0.0726129 0.00540508 0)
  (0.0683342 0.00525661 0)
  (0.0643653 0.00464418 0)
  (0.0606022 0.00388957 0)
  (0.0570069 0.00325948 0)
  (0.0536073 0.00299516 0)
  (0.0505222 0.00333781 0)
  (0.0479662 0.00450417 0)
  (0.0464115 0.00641211 0)
  (0.0458372 0.00929727 0)
  (0.0468233 0.0129628 0)
  (0.0495113 0.0160882 0)
  (0.0535394 0.0163912 0)
  (0.0584559 0.011639 0)
  (0.0638959 0.000537485 0)
  (0.0674901 -0.0148156 0)
  (0.0737856 -0.0323267 0)
  (0.113455 -0.0700899 0)
  (-0.0870785 -0.134359 0)
  (-0.436961 0.14094 0)
  (0.1958 0.086548 0)
  (0.121654 0.0612444 0)
  (0.139876 0.0468195 0)
  (0.171271 0.0255098 0)
  (0.190747 0.00259016 0)
  (0.198383 -0.0183676 0)
  (0.198559 -0.0362322 0)
  (0.193314 -0.0484972 0)
  (0.184227 -0.056861 0)
  (0.172759 -0.062501 0)
  (0.160193 -0.0663002 0)
  (0.147564 -0.0688865 0)
  (0.135658 -0.0706047 0)
  (0.125017 -0.07155 0)
  (0.11595 -0.0716809 0)
  (0.108577 -0.07047 0)
  (0.102879 -0.0681246 0)
  (0.0986114 -0.065647 0)
  (0.0953447 -0.0635472 0)
  (0.0926203 -0.0619702 0)
  (0.0900927 -0.0608431 0)
  (0.0875742 -0.0599956 0)
  (0.0850217 -0.0592337 0)
  (0.0825118 -0.0583659 0)
  (0.0802363 -0.0572019 0)
  (0.0785345 -0.0555056 0)
  (0.0776435 -0.0526649 0)
  (0.0779306 -0.0485861 0)
  (0.0798535 -0.0438624 0)
  (0.083595 -0.0400964 0)
  (0.0885816 -0.0397721 0)
  (0.0935535 -0.0448521 0)
  (0.0964809 -0.0508125 0)
  (0.094656 -0.0570957 0)
  (0.0861442 -0.0635464 0)
  (0.11643 -0.0766664 0)
  (-0.144276 -0.0886961 0)
  (0.747543 0.147214 0)
  (0.00195077 -0.283184 0)
  (-0.334187 0.155756 0)
  (0.148334 0.0723187 0)
  (0.0585599 0.0837903 0)
  (0.0869734 0.0955536 0)
  (0.126596 0.0997196 0)
  (0.152414 0.104775 0)
  (0.163764 0.114052 0)
  (0.165035 0.127257 0)
  (0.160761 0.13963 0)
  (0.153424 0.151738 0)
  (0.144695 0.163942 0)
  (0.135864 0.176146 0)
  (0.127939 0.18778 0)
  (0.121578 0.197944 0)
  (0.117039 0.205714 0)
  (0.114229 0.210506 0)
  (0.112835 0.211424 0)
  (0.112442 0.209039 0)
  (0.112636 0.205328 0)
  (0.113036 0.201479 0)
  (0.113367 0.198037 0)
  (0.113481 0.19514 0)
  (0.113328 0.192717 0)
  (0.112939 0.190599 0)
  (0.112405 0.188586 0)
  (0.111872 0.186456 0)
  (0.111545 0.183936 0)
  (0.111712 0.180426 0)
  (0.112772 0.175701 0)
  (0.114999 0.169982 0)
  (0.118248 0.164145 0)
  (0.121565 0.159695 0)
  (0.123045 0.158314 0)
  (0.119646 0.154122 0)
  (0.109353 0.147592 0)
  (0.0877295 0.139538 0)
  (0.135593 0.121572 0)
  (-0.309714 0.160705 0)
)
;

boundaryField
{
  floor
  {
    type noSlip;
  }
  ceiling
  {
    type noSlip;
  }
  sWall
  {
    type noSlip;
  }
  nWall
  {
    type noSlip;
  }
  sideWalls
  {
    type empty;
  }
  glass1
  {
    type noSlip;
  }
  glass2
  {
    type noSlip;
  }
  sun
  {
    type noSlip;
  }
  heatsource1
  {
    type noSlip;
  }
  heatsource2
  {
    type noSlip;
  }
  Table_master
  {
    type noSlip;
  }
  Table_slave
  {
    type noSlip;
  }
  inlet
  {
    type fixedValue;
    value uniform (0.0707107 -0.0707107 0);
  }
  outlet
  {
    type zeroGradient;
  }
} 	// ************************************************************************* //

