/*--------------------------------*- C++ -*----------------------------------*\
  =========                 |
  \\      /  F ield         | OpenFOAM: The Open Source CFD Toolbox
   \\    /   O peration     | Website:  https://openfoam.org
    \\  /    A nd           | Version:  6
     \\/     M anipulation  |
\*---------------------------------------------------------------------------*/
FoamFile
{
    version     2.0;
    format      ascii;
    class       volScalarField;
    location    "200";
    object      epsilon;
}
// * * * * * * * * * * * * * * * * * * * * * * * * * * * * * * * * * * * * * //

dimensions      [0 2 -3 0 0 0 0];

internalField   nonuniform List<scalar> 
459
(
0.000120493
0.000130573
9.50361e-05
0.000104801
0.000117062
0.000130149
0.000144137
0.00015945
0.000176518
0.000192807
0.000206747
0.000216098
0.000218214
0.000210506
0.000189058
1.08448e-05
1.23821e-05
8.80479e-06
8.24571e-06
7.9655e-06
7.5399e-06
7.04674e-06
6.73903e-06
7.09666e-06
8.16051e-06
9.9929e-06
1.3736e-05
2.16545e-05
3.30909e-05
4.86612e-05
7.29348e-05
9.07941e-05
8.9016e-05
4.95333e-05
0.000675338
0.001622
0.00014386
7.71793e-05
7.8875e-05
8.55785e-05
9.37734e-05
0.000103664
0.000115773
0.000129355
0.000143955
0.000158469
0.000170275
0.000174771
0.000172876
0.000216534
7.57685e-05
3.35808e-05
7.65107e-05
1.68341e-05
1.17266e-05
1.01191e-05
8.06044e-06
6.18843e-06
5.54015e-06
6.96425e-06
9.80564e-06
1.38144e-05
1.99243e-05
2.9599e-05
4.51063e-05
6.83811e-05
9.01063e-05
0.000104822
0.000131852
0.000103436
0.00185638
0.00581431
0.000440033
0.000101125
8.5131e-05
9.13484e-05
0.000101135
0.000112916
0.000126728
0.000142348
0.000158744
0.000174613
0.000187579
0.000194032
0.000192641
0.000194111
0.000229797
9.14462e-05
0.000187377
5.51202e-05
4.32396e-05
4.39011e-05
4.40696e-05
7.62876e-06
6.48039e-06
1.06172e-05
1.76263e-05
2.66477e-05
3.89679e-05
5.96586e-05
0.00010133
0.000195014
0.00015854
0.000177134
0.000239434
0.000297572
0.00383951
0.013133
0.00124575
0.000170712
0.000104288
0.000107502
0.000119741
0.000134827
0.000151818
0.000170743
0.000189528
0.000206625
0.000219829
0.000226207
0.000225019
0.000224988
0.000251707
0.000340692
0.000213181
0.00011507
9.02005e-05
9.70839e-05
0.000113131
0.000139498
0.000188115
0.000195888
0.000201537
0.000205074
0.000208304
0.000214759
0.000231005
0.000271158
0.000371446
0.000253095
0.000298162
0.000361763
0.000588411
0.00663196
0.0224868
0.00302788
0.000376297
0.000154406
0.000139815
0.000152208
0.000171702
0.000194603
0.000220412
0.000245165
0.000267794
0.000286457
0.000296553
0.000291453
0.00026734
0.000229936
0.000187704
0.000132791
0.000101041
9.44314e-05
9.98216e-05
0.000110099
0.00012222
0.000133687
0.000143067
0.00015279
0.000163978
0.000178567
0.000199747
0.00023167
0.000278168
0.00033934
0.000404709
0.000499905
0.000611563
0.000693568
0.000926028
0.000615004
0.000412757
0.0102267
0.0304688
0.00645374
0.00117804
0.000389056
0.000255273
0.000238889
0.000250227
0.000272149
0.000300622
0.000326296
0.000351469
0.0003778
0.000401745
0.000413891
0.000402082
0.000358784
0.000290287
0.000217203
0.000168052
0.000148189
0.000147029
0.000154673
0.00016488
0.000175556
0.000186208
0.000197531
0.000210153
0.000225758
0.000248145
0.000283294
0.000337817
0.000416577
0.000521631
0.000653649
0.000799462
0.000909626
0.000955288
0.000586047
0.00044543
0.0142087
0.0333764
0.0125021
0.00440791
0.00179401
0.000906767
0.000629613
0.000525511
0.000483664
0.000469057
0.000457059
0.000453575
0.000464429
0.000487988
0.000513845
0.000524516
0.000503189
0.00044659
0.000370117
0.000300458
0.000256651
0.00023771
0.000233642
0.000238664
0.000249097
0.000263208
0.000280345
0.000299663
0.000320652
0.000344813
0.000377539
0.000428081
0.000505464
0.000617869
0.000765097
0.000933987
0.00108805
0.00116614
0.00109499
0.00044996
0.0146073
0.0357932
0.0216461
0.0148769
0.00837666
0.00446996
0.00256739
0.00164949
0.00116646
0.000902252
0.000735007
0.000626123
0.000565046
0.00054562
0.000557476
0.000580339
0.000583978
0.000555004
0.000498234
0.00043376
0.000380514
0.000345537
0.000327596
0.000323492
0.000330058
0.000345686
0.000369878
0.000402104
0.000441619
0.000488143
0.000542509
0.000608681
0.000698823
0.0008233
0.000987719
0.00119151
0.00145127
0.00178182
0.00217023
0.00119437
0.0128857
0.0203029
0.0513016
0.0379157
0.0218188
0.0121201
0.00688218
0.00410116
0.00259849
0.00173073
0.00121355
0.000901677
0.000714974
0.000611622
0.000567879
0.000563205
0.000571177
0.000569049
0.000546552
0.000509227
0.000469367
0.000435854
0.000412368
0.000399703
0.000397475
0.00040543
0.000423738
0.000452528
0.00049153
0.000539085
0.000592084
0.000652598
0.000725661
0.000820515
0.000939025
0.00105529
0.001202
0.00141947
0.00404699
0.00140555
0.166575
0.142198
0.033053
0.0143087
0.00766315
0.00455213
0.00291193
0.00197742
0.0014119
0.00105323
0.000820806
0.000670377
0.000577689
0.000528515
0.000510668
0.000510071
0.000512644
0.000509772
0.000500169
0.000486632
0.000472651
0.000461092
0.000454011
0.000452948
0.000459186
0.000473671
0.00049665
0.000526819
0.000561874
0.000596834
0.000624811
0.000638109
0.000623486
0.000591753
0.000548976
0.000521135
0.000743337
0.000887681
0.115681
0.078075
0.0245829
0.011297
0.00637079
0.00400469
0.00271174
0.00194628
0.00146674
0.00115414
0.000944273
0.000801546
0.000705792
0.000644859
0.000610527
0.000595386
0.000591613
0.000592161
0.000592314
0.000589945
0.000584835
0.000577823
0.000570148
0.000563092
0.000557823
0.000555397
0.000556249
0.000560173
0.000565787
0.000569455
0.000565557
0.000549389
0.00051943
0.000479819
0.000429172
0.000371199
0.000475369
0.00059953
0.00816842
0.0184938
0.0476769
0.0337841
0.0169265
0.00952002
0.00597133
0.00403944
0.00288108
0.00213842
0.00163985
0.00129526
0.00105218
0.000877214
0.000750723
0.000661257
0.000600351
0.000562061
0.000541171
0.000532357
0.000530533
0.00053164
0.000533058
0.000533581
0.000533133
0.000532415
0.000532622
0.000535275
0.000542182
0.000554538
0.000571614
0.000589121
0.000597737
0.000586683
0.000563679
0.000523963
0.000463419
0.0003844
0.000348359
0.000549584
)
;

boundaryField
{
    floor
    {
        Cmu             0.09;
        kappa           0.41;
        E               9.8;
        type            epsilonWallFunction;
        value           nonuniform List<scalar> 
29
(
0.000189058
1.08448e-05
1.23821e-05
8.80479e-06
8.24571e-06
7.9655e-06
7.5399e-06
7.04674e-06
6.73903e-06
7.09666e-06
8.16051e-06
9.9929e-06
1.3736e-05
2.16545e-05
3.30909e-05
4.86612e-05
7.29348e-05
9.07941e-05
8.9016e-05
4.95333e-05
4.95333e-05
0.000103436
0.000297572
0.000588411
0.000189058
1.08448e-05
3.35808e-05
9.14462e-05
0.000340692
)
;
    }
    ceiling
    {
        Cmu             0.09;
        kappa           0.41;
        E               9.8;
        type            epsilonWallFunction;
        value           nonuniform List<scalar> 
43
(
0.00816842
0.0184938
0.0476769
0.0337841
0.0169265
0.00952002
0.00597133
0.00403944
0.00288108
0.00213842
0.00163985
0.00129526
0.00105218
0.000877214
0.000750723
0.000661257
0.000600351
0.000562061
0.000541171
0.000532357
0.000530533
0.00053164
0.000533058
0.000533581
0.000533133
0.000532415
0.000532622
0.000535275
0.000542182
0.000554538
0.000571614
0.000589121
0.000597737
0.000586683
0.000563679
0.000523963
0.000463419
0.0003844
0.000348359
0.000549584
0.0128857
0.0203029
0.115681
)
;
    }
    sWall
    {
        Cmu             0.09;
        kappa           0.41;
        E               9.8;
        type            epsilonWallFunction;
        value           uniform 0.00816842;
    }
    nWall
    {
        Cmu             0.09;
        kappa           0.41;
        E               9.8;
        type            epsilonWallFunction;
        value           nonuniform List<scalar> 6(0.000412757 0.00044543 0.00044996 0.000887681 0.00059953 0.000549584);
    }
    sideWalls
    {
        type            empty;
    }
    glass1
    {
        Cmu             0.09;
        kappa           0.41;
        E               9.8;
        type            epsilonWallFunction;
        value           nonuniform List<scalar> 9(0.000120493 0.000675338 0.00185638 0.00383951 0.00663196 0.0102267 0.0142087 0.0146073 0.0128857);
    }
    glass2
    {
        Cmu             0.09;
        kappa           0.41;
        E               9.8;
        type            epsilonWallFunction;
        value           nonuniform List<scalar> 2(0.00119437 0.00140555);
    }
    sun
    {
        Cmu             0.09;
        kappa           0.41;
        E               9.8;
        type            epsilonWallFunction;
        value           nonuniform List<scalar> 
14
(
0.000120493
0.000130573
9.50361e-05
0.000104801
0.000117062
0.000130149
0.000144137
0.00015945
0.000176518
0.000192807
0.000206747
0.000216098
0.000218214
0.000210506
)
;
    }
    heatsource1
    {
        Cmu             0.09;
        kappa           0.41;
        E               9.8;
        type            epsilonWallFunction;
        value           nonuniform List<scalar> 3(0.000926028 0.000615004 0.000412757);
    }
    heatsource2
    {
        Cmu             0.09;
        kappa           0.41;
        E               9.8;
        type            epsilonWallFunction;
        value           nonuniform List<scalar> 4(0.000216534 7.57685e-05 7.57685e-05 0.000229797);
    }
    Table_master
    {
        Cmu             0.09;
        kappa           0.41;
        E               9.8;
        type            epsilonWallFunction;
        value           nonuniform List<scalar> 9(7.62876e-06 6.48039e-06 1.06172e-05 1.76263e-05 2.66477e-05 3.89679e-05 5.96586e-05 0.00010133 0.000195014);
    }
    Table_slave
    {
        Cmu             0.09;
        kappa           0.41;
        E               9.8;
        type            epsilonWallFunction;
        value           nonuniform List<scalar> 9(0.000188115 0.000195888 0.000201537 0.000205074 0.000208304 0.000214759 0.000231005 0.000271158 0.000371446);
    }
    inlet
    {
        type            turbulentMixingLengthDissipationRateInlet;
        mixingLength    0.01;
        phi             phi;
        k               k;
        value           uniform 0.166575;
    }
    outlet
    {
        type            zeroGradient;
    }
}


// ************************************************************************* //
