/*--------------------------------*- C++ -*----------------------------------*\
  =========                 |
  \\      /  F ield         | OpenFOAM: The Open Source CFD Toolbox
   \\    /   O peration     | Website:  https://openfoam.org
    \\  /    A nd           | Version:  6
     \\/     M anipulation  |
\*---------------------------------------------------------------------------*/
FoamFile
{
    version     2.0;
    format      ascii;
    class       surfaceScalarField;
    location    "630";
    object      phi;
}
// * * * * * * * * * * * * * * * * * * * * * * * * * * * * * * * * * * * * * //

dimensions      [1 0 -1 0 0 0 0];

internalField   nonuniform List<scalar> 
852
(
-0.0024894
0.00253268
-0.00331125
0.000821847
-0.00397567
0.000664415
-0.00452181
0.000546141
-0.0049188
0.000396978
-0.00514458
0.000225785
-0.0051759
3.13149e-05
-0.00498814
-0.000187763
-0.00457078
-0.000417367
-0.00394699
-0.000623788
-0.00317176
-0.000775236
-0.00231807
-0.000853689
-0.00146625
-0.000851825
-0.000696011
-0.000770245
-0.000699379
0.000157909
-0.000162814
0.00045539
-0.000297484
0.000863032
-0.000407645
0.00119903
-0.000336
0.00144378
-0.00024475
0.00160723
-0.000163457
0.00168844
-8.12095e-05
0.00171588
-2.74483e-05
0.00172232
-6.44398e-06
0.00171928
3.03663e-06
0.00170878
1.04958e-05
0.00168979
1.89893e-05
0.00165675
3.30339e-05
0.00159449
6.22599e-05
0.00146746
0.000127023
0.0012142
0.000253255
0.000778949
0.00043525
5.27396e-05
0.000726206
4.59649e-05
-0.00180573
0.00445558
-0.00264136
0.00165747
-0.00334271
0.00136576
-0.00388744
0.00109086
-0.00428023
0.000789766
-0.00451067
0.000456223
-0.00455559
7.62349e-05
-0.00439016
-0.000353195
-0.00401003
-0.000797498
-0.00345032
-0.0011835
-0.00277694
-0.00144862
-0.00207009
-0.00156054
-0.00141146
-0.00151046
-0.000871696
-0.00131001
-0.000608942
-0.000962136
-0.000127882
-0.000481114
-0.000127936
2.93775e-06
-0.000177911
0.000729171
-0.00102372
0.00108711
-0.00076559
0.00133993
-0.000588819
0.00153008
-0.000434902
0.00165527
-0.000288657
0.00168299
-0.000108927
0.00169096
-3.54232e-05
0.00169839
-1.388e-05
0.0017043
-2.87764e-06
0.00170794
6.8576e-06
0.00170921
1.77099e-05
0.00170694
3.53029e-05
0.00169603
7.31639e-05
0.00164042
0.000182626
0.00142375
0.000469928
0.00105092
0.000808074
0.00065152
0.0011256
0.000679207
-0.00129637
0.00593173
-0.00204079
0.00240188
-0.00267956
0.00200453
-0.00315722
0.00156852
-0.00351009
0.00114263
-0.00372803
0.000674158
-0.0037785
0.000126707
-0.00361963
-0.000512073
-0.00325048
-0.00116665
-0.00272595
-0.00170803
-0.00212007
-0.00205451
-0.00150386
-0.00217675
-0.000940042
-0.00207428
-0.000479898
-0.00177016
-0.000157466
-0.00128457
5.63061e-05
-0.00069489
-7.16332e-05
0.0010312
-0.00122633
0.00110392
-0.00109644
0.00131009
-0.000971763
0.00146648
-0.000745213
0.0015773
-0.000545731
0.00168501
-0.000396372
0.00157623
0.00154096
0.00152723
0.0015245
0.0015315
0.00154936
0.00158481
0.00165812
0.00184089
0.00162745
0.000683362
0.0013662
0.00106932
0.000975343
0.00151646
0.00162564
-0.000936869
0.00710196
-0.00155151
0.00301652
-0.00199942
0.00245244
-0.00233836
0.00190746
-0.00260136
0.00140563
-0.00277196
0.000844755
-0.00280417
0.000158912
-0.00262469
-0.00069156
-0.00225118
-0.00154016
-0.00176982
-0.00218939
-0.00125347
-0.00257086
-0.000752616
-0.0026776
-0.000300889
-0.00252601
9.45174e-05
-0.00216556
0.000454413
-0.00164447
0.000840298
-0.00108078
0.00141811
-0.000649447
0.00206681
-0.000665785
0.00184677
-0.00100629
0.00169266
-0.000942331
0.00155204
-0.000831154
0.00148438
-0.000677554
0.00146089
-0.00052224
0.00142779
-0.00036328
0.00160513
-0.000177492
0.00173099
-0.000126016
0.00184454
-0.000113708
0.0019509
-0.000106512
0.00204234
-9.15907e-05
0.00210195
-5.97732e-05
0.00209909
2.71037e-06
0.00198915
0.000109781
0.00170228
0.000286717
0.00169523
0.000690407
0.00159349
0.00117106
0.00138976
0.00172018
0.00297784
-0.000679069
0.0080602
-0.00116681
0.00350426
-0.00131088
0.0025965
-0.00144696
0.00204353
-0.00156687
0.00152554
-0.0016394
0.000917281
-0.00160208
0.000121595
-0.00135761
-0.000936038
-0.00098893
-0.00190884
-0.000594589
-0.00258373
-0.000221885
-0.00294357
0.000106521
-0.00300601
0.000385268
-0.00280476
0.00062863
-0.00240893
0.000877525
-0.00189337
0.00116395
-0.0013672
0.0014803
-0.000965803
0.0016661
-0.000851589
0.00151165
-0.00085184
0.00136629
-0.000796984
0.00123597
-0.000700828
0.00114635
-0.000587942
0.00109884
-0.000474738
0.00109847
-0.000362913
0.00118645
-0.000265469
0.0012844
-0.00022397
0.00138518
-0.000214494
0.00148722
-0.000208558
0.00158509
-0.000189468
0.00166895
-0.000143636
0.00172409
-5.2438e-05
0.00173366
0.00010021
0.00169905
0.000321323
0.00173762
0.000651834
0.00188842
0.00102026
0.00239731
0.00121128
0.00368475
0.0016904
0.00244479
0.00123976
0.00148436
0.000960219
0.00152522
-0.000600386
0.00897879
-0.000951203
0.00385507
-0.000663603
0.0023089
-0.000512816
0.00189274
-0.000444312
0.00145703
-0.00036267
0.000835636
-0.000144947
-9.61329e-05
0.000188083
-0.00126907
0.000496505
-0.00221726
0.000735657
-0.00282289
0.000897828
-0.00310574
0.000992665
-0.00310085
0.00104518
-0.00285727
0.00107865
-0.00244241
0.00111936
-0.00193408
0.00118206
-0.00142991
0.00124704
-0.00103078
0.00121288
-0.000817435
0.00107518
-0.000714141
0.00091802
-0.00063983
0.000780141
-0.000562952
0.000680633
-0.000488438
0.000627568
-0.000421677
0.000627805
-0.000363155
0.000682492
-0.00032016
0.000764448
-0.000305931
0.000857899
-0.000307949
0.000956677
-0.00030734
0.00105772
-0.000290514
0.00115981
-0.00024573
0.00126373
-0.000156368
0.00136075
3.19164e-06
0.00144752
0.000234546
0.00157888
0.000520464
0.00178671
0.00081243
0.00201278
0.000985199
0.00231936
0.00138382
0.00203347
0.00152564
0.00123905
0.00175464
0.00280757
-0.000722427
0.0100541
-0.000653808
0.00378645
0.000173651
0.00148144
0.000599145
0.00146724
0.000866296
0.00118987
0.00121185
0.000490078
0.00163395
-0.000518236
0.00194876
-0.00158388
0.00210354
-0.00237205
0.00211512
-0.00283447
0.00201094
-0.00300155
0.00182881
-0.00291872
0.00160904
-0.0026375
0.00138571
-0.00221908
0.00118331
-0.00173169
0.00101495
-0.00126155
0.000870519
-0.000886357
0.000711115
-0.000658034
0.000536259
-0.000539289
0.000367653
-0.000471229
0.000228258
-0.000423562
0.000129328
-0.000389512
7.50882e-05
-0.000367441
6.7265e-05
-0.000355336
0.000100976
-0.000353875
0.000159939
-0.000364899
0.000231061
-0.000379076
0.000308412
-0.000384696
0.000390849
-0.000372956
0.000482485
-0.000337371
0.000594934
-0.000268823
0.000743771
-0.00014565
0.000916104
6.22081e-05
0.00110617
0.000330388
0.00132111
0.000597489
0.00149351
0.000812795
0.00171692
0.00116041
0.00182884
0.00141371
0.00154891
0.00203457
0.00440197
0.0019925
0.00845564
0.00253139
0.00324756
0.00255517
0.00145765
0.00273395
0.00128847
0.00297197
0.000951849
0.00339312
6.89217e-05
0.00380352
-0.000928636
0.00392597
-0.00170634
0.0037746
-0.00222067
0.00342737
-0.00248724
0.00296018
-0.00253436
0.00243763
-0.00239618
0.00191279
-0.00211265
0.00142561
-0.00173191
0.000996879
-0.00130296
0.000642396
-0.000907077
0.000356301
-0.000600267
0.000123184
-0.000424922
-7.33225e-05
-0.000342787
-0.000235693
-0.000308862
-0.000362059
-0.0002972
-0.000453294
-0.000298282
-0.000511707
-0.000309032
-0.000539852
-0.000327195
-0.000542402
-0.00035133
-0.000528197
-0.000379109
-0.000504068
-0.00040321
-0.00047413
-0.000414638
-0.000441227
-0.000405865
-0.000404769
-0.000373833
-0.00035132
-0.000322277
-0.000246086
-0.000250889
-5.97817e-05
-0.000124101
0.000173741
9.68606e-05
0.000410841
0.000360384
0.000600112
0.000623519
0.000825599
0.000934915
0.00103041
0.0012089
0.000608543
0.00245643
0.0052023
0.00885952
0.0120775
0.0103021
0.00323301
0.00914458
0.00244597
0.00838535
0.00171108
0.00777461
0.000679652
0.00702254
-0.000176559
0.0061437
-0.000827503
0.00520878
-0.00128575
0.00426728
-0.00154573
0.00335129
-0.00161836
0.00248656
-0.00153145
0.00170149
-0.00132759
0.00102546
-0.00105588
0.000462396
-0.0007399
2.48439e-05
-0.000469531
-0.000290595
-0.000284833
-0.000513531
-0.000201991
-0.000680944
-0.000175378
-0.0008137
-0.000176111
-0.000923296
-0.000187608
-0.00101466
-0.000206918
-0.00109192
-0.000231781
-0.00115828
-0.000260845
-0.00121648
-0.000293128
-0.00126935
-0.00032625
-0.00131833
-0.000354226
-0.00136549
-0.000367488
-0.00141818
-0.000353175
-0.00149415
-0.000297872
-0.00161554
-0.000200893
-0.00179395
-7.24877e-05
-0.00202773
0.000109675
-0.00231382
0.000382947
-0.00271912
0.000765684
-0.00338419
0.00128858
-0.0044463
0.00199702
-0.00598321
0.0027458
-0.00630454
0.00277776
-0.000895754
0.00389661
0.00355963
0.00382766
0.00251493
0.00459163
0.000947114
0.00486842
0.000402877
0.00471832
-2.64504e-05
0.00432946
-0.000438635
0.00375024
-0.000706525
0.00303662
-0.00083211
0.00225404
-0.000835785
0.00146029
-0.000737705
0.000716223
-0.00058353
7.75407e-05
-0.000417207
-0.000409084
-0.000253282
-0.000732574
-0.000146046
-0.000937652
-7.97606e-05
-0.00108157
-5.80772e-05
-0.00119394
-6.30096e-05
-0.00129129
-7.87709e-05
-0.00138524
-9.36654e-05
-0.00148042
-0.000111735
-0.00158098
-0.000131227
-0.00169041
-0.000151427
-0.00181122
-0.000172323
-0.00194405
-0.000193424
-0.00208615
-0.000212133
-0.00223138
-0.000222261
-0.00237295
-0.000211609
-0.00251163
-0.000159199
-0.00265318
-5.93383e-05
-0.00279995
7.42759e-05
-0.00293942
0.000249132
-0.00305894
0.00050247
-0.00315752
0.000864259
-0.00322315
0.0013542
-0.00320963
0.00198349
-0.00299989
0.00253606
-0.00132786
0.00110572
-0.00217889
0.00051583
0.00302978
0.00200657
0.00102419
0.00250881
0.000444886
0.00264856
0.000263136
0.00254325
7.88732e-05
0.00221431
-0.000109703
0.0017452
-0.000237411
0.00117507
-0.000261986
0.000572847
-0.000233574
1.97407e-05
-0.000184609
-0.000447765
-0.000116034
-0.000819543
-4.54365e-05
-0.00107517
2.34229e-06
-0.00124597
2.47485e-05
-0.00135653
3.07866e-05
-0.00143911
2.45055e-05
-0.00151445
1.23178e-05
-0.00159105
-2.17012e-06
-0.00166827
-1.64531e-05
-0.00175045
-2.9561e-05
-0.00184023
-4.14476e-05
-0.0019407
-5.09641e-05
-0.00205642
-5.66088e-05
-0.00219306
-5.6786e-05
-0.0023551
-5.0095e-05
-0.00254186
-3.55123e-05
-0.00274088
-1.25884e-05
-0.00292118
2.10986e-05
-0.00304803
6.74995e-05
-0.00311134
0.000137581
-0.00310152
0.000239315
-0.00297859
0.000379534
-0.00269233
0.000577995
-0.00217761
0.00083948
-0.00124028
0.00104616
0.000329966
0.000965813
0.00141541
2.02687e-05
-0.000718287
-0.00363253
-0.00493285
-0.00192651
-0.000934965
-0.000528704
-0.000307304
-0.000272638
-0.000428581
-0.000713452
-0.00102368
-0.00130606
-0.00154008
-0.00170643
-0.00180334
-0.00185368
-0.0018825
-0.00190594
-0.00193613
-0.00197886
-0.00203637
-0.00210835
-0.00219359
-0.00229081
-0.00239761
-0.00251014
-0.00262305
-0.00272972
-0.00282263
-0.00289387
-0.00293299
-0.00292745
-0.0028537
-0.00268002
-0.00236776
-0.00185836
-0.00108843
-0.000112595
0.000782052
0.000732843
)
;

boundaryField
{
    floor
    {
        type            calculated;
        value           nonuniform List<scalar> 
29
(
0
0
0
0
0
0
0
0
0
0
0
0
0
0
0
0
0
0
0
0
6.77412e-06
1.82738e-05
2.89034e-05
3.75651e-05
3.36532e-06
4.90216e-06
1.2157e-05
1.72138e-05
1.70782e-05
)
;
    }
    ceiling
    {
        type            calculated;
        value           nonuniform List<scalar> 
43
(
2.8411e-05
2.51698e-05
2.34446e-05
3.26441e-05
3.8624e-05
4.17299e-05
4.41939e-05
4.62246e-05
4.74452e-05
4.82311e-05
4.87888e-05
4.94083e-05
5.03023e-05
5.14701e-05
5.26751e-05
5.35678e-05
5.42229e-05
5.46846e-05
5.50411e-05
5.53345e-05
5.55291e-05
5.56741e-05
5.57678e-05
5.58302e-05
5.59154e-05
5.6119e-05
5.65694e-05
5.7394e-05
5.865e-05
6.02076e-05
6.1963e-05
6.38191e-05
6.56317e-05
6.72689e-05
6.85907e-05
6.95469e-05
7.03172e-05
7.11619e-05
6.94726e-05
7.16687e-05
3.62531e-05
2.96294e-05
1.40278e-05
)
;
    }
    sWall
    {
        type            calculated;
        value           uniform -0.000218849;
    }
    nWall
    {
        type            calculated;
        value           nonuniform List<scalar> 6(-4.10623e-05 -4.33096e-05 -4.54928e-05 -4.47313e-05 -4.51921e-05 -5.71173e-05);
    }
    sideWalls
    {
        type            empty;
        value           nonuniform 0();
    }
    glass1
    {
        type            calculated;
        value           nonuniform List<scalar> 9(-4.32874e-05 -0.000117163 -0.00017978 -0.000233364 -0.000279176 -0.0003182 -0.000352861 -0.00039407 -0.000440138);
    }
    glass2
    {
        type            calculated;
        value           nonuniform List<scalar> 2(-0.000191793 -0.000206489);
    }
    sun
    {
        type            calculated;
        value           uniform 0;
    }
    heatsource1
    {
        type            calculated;
        value           nonuniform List<scalar> 3(2.00282e-07 2.00823e-07 2.01228e-07);
    }
    heatsource2
    {
        type            calculated;
        value           nonuniform List<scalar> 4(5.0372e-08 5.04793e-08 0 0);
    }
    Table_master
    {
        type            calculated;
        value           nonuniform List<scalar> 9(-1.50778e-07 -1.50864e-07 -1.50887e-07 -1.50901e-07 -1.50908e-07 -1.50909e-07 -1.50904e-07 -1.50886e-07 -1.50833e-07);
    }
    Table_slave
    {
        type            calculated;
        value           nonuniform List<scalar> 9(1.5071e-07 1.50722e-07 1.50687e-07 1.50652e-07 1.50622e-07 1.50603e-07 1.50606e-07 1.50614e-07 1.5066e-07);
    }
    inlet
    {
        type            calculated;
        value           uniform -0.00422322;
    }
    outlet
    {
        type            calculated;
        value           nonuniform List<scalar> 2(0.00382297 0.00127516);
    }
}


// ************************************************************************* //
