/*--------------------------------*- C++ -*----------------------------------*\
  =========                 |
  \\      /  F ield         | OpenFOAM: The Open Source CFD Toolbox
   \\    /   O peration     | Website:  https://openfoam.org
    \\  /    A nd           | Version:  6
     \\/     M anipulation  |
\*---------------------------------------------------------------------------*/
FoamFile
{
    version     2.0;
    format      ascii;
    class       surfaceScalarField;
    location    "100";
    object      phi;
}
// * * * * * * * * * * * * * * * * * * * * * * * * * * * * * * * * * * * * * //

dimensions      [1 0 -1 0 0 0 0];

internalField   nonuniform List<scalar> 
852
(
-0.0032685
0.00332414
-0.00462552
0.00135697
-0.00533155
0.000705974
-0.00547002
0.000138418
-0.00496305
-0.000507012
-0.00377314
-0.00118997
-0.00204114
-0.00173205
-7.10165e-05
-0.00197017
0.00151504
-0.00158611
0.00262326
-0.00110827
0.00326159
-0.00063837
0.00344789
-0.000186344
0.00315788
0.000289961
0.00222816
0.000929673
0.00222991
-0.00102042
0.00102202
-0.00123556
0.000214957
-0.000668925
-0.000566806
0.00016075
-0.000829835
0.000909107
-0.000748516
0.0014715
-0.000562553
0.00180373
-0.000332394
0.00196652
-0.000162953
0.00206286
-9.65014e-05
0.00213034
-6.76473e-05
0.00217798
-4.77951e-05
0.00220978
-3.19692e-05
0.00222388
-1.42585e-05
0.00220642
1.72949e-05
0.00212235
8.39096e-05
0.00191075
0.00021143
0.00153137
0.000379214
0.000951648
0.00057955
0.000953314
-0.00233153
0.00580727
-0.00353488
0.00256026
-0.00424826
0.00141929
-0.0044169
0.000307005
-0.00396063
-0.000963338
-0.00289533
-0.00225532
-0.00146781
-0.00315961
-2.6774e-05
-0.00341126
0.00124091
-0.00285385
0.00217325
-0.00204066
0.00275853
-0.00122371
0.00302111
-0.000448973
0.0030098
0.000301225
0.00288069
0.00105873
0.00332818
0.00178238
0.00163467
0.0016934
0.00163456
-0.000262675
0.00128988
0.000136454
-0.000184363
0.000740952
-0.00117146
0.00120752
-0.00129655
0.00159503
-0.00113618
0.00188462
-0.000852304
0.0019573
-0.00040523
0.00197541
-0.000181231
0.00199383
-0.000115089
0.00200914
-8.31198e-05
0.00202001
-5.88296e-05
0.00202777
-3.98953e-05
0.00203186
-1.8515e-05
0.00202589
2.31036e-05
0.00196976
0.000139865
0.00172943
0.000451592
0.00132513
0.000783349
0.000781642
0.00112286
0.00174004
-0.00163334
0.00767435
-0.00262285
0.00354971
-0.00325915
0.00205553
-0.00340806
0.000455853
-0.00294833
-0.00142312
-0.0019483
-0.0032554
-0.000750094
-0.00435786
0.000338632
-0.00450005
0.00128722
-0.00380252
0.00201504
-0.00276855
0.00248515
-0.00169388
0.0027304
-0.000694291
0.0028182
0.000213367
0.00283122
0.00104566
0.00278574
0.0018278
0.00206782
0.00241127
0.00370232
0.00109301
0.000205672
0.0018328
-0.000924313
0.00204312
-0.00138192
0.00218894
-0.00144251
0.0023133
-0.00126069
0.00247934
-0.0010185
0.0020741
0.00189285
0.00177775
0.00169461
0.00163576
0.00159585
0.00157732
0.00160041
0.00174025
0.00140324
0.000788428
0.00105214
0.00113427
0.000603474
0.00157135
0.00235187
-0.00113415
0.00911316
-0.00188548
0.00430097
-0.00231649
0.00248647
-0.00231601
0.000455311
-0.00173861
-0.00200058
-0.000797184
-0.00419686
0.000129405
-0.00528449
0.000896409
-0.00526713
0.00153611
-0.00444231
0.00201014
-0.00324268
0.00230187
-0.00198571
0.00245213
-0.000844633
0.00252786
0.000137563
0.00259878
0.000974661
0.00274604
0.00168048
0.0030396
0.00211765
0.00446401
0.00227785
0.00350077
0.000972343
0.00365241
5.39484e-05
0.00341558
-0.000687572
0.00313886
-0.00110531
0.0028964
-0.00120017
0.00270322
-0.00106767
0.00246193
-0.000777384
0.0027537
-0.000292112
0.00282121
-6.78662e-05
0.0027824
3.8454e-05
0.00267157
0.000110462
0.00250068
0.000170524
0.00227248
0.000227822
0.00197778
0.000294321
0.00158843
0.000388967
0.00103831
0.000549751
0.000924787
0.00090173
0.000733594
0.00132526
0.000488101
0.00181664
0.00285139
-0.000780701
0.0102596
-0.00132493
0.00484513
-0.0014228
0.00258427
-0.00101126
4.36968e-05
-0.000189774
-0.00282212
0.000584878
-0.00497152
0.00116336
-0.005863
0.00157137
-0.00567522
0.00185732
-0.00472837
0.00201317
-0.00339866
0.00205816
-0.00203082
0.0020516
-0.000838188
0.0020631
0.000125963
0.0021667
0.000870969
0.0024394
0.0014077
0.00288267
0.00167429
0.00351242
0.00164802
0.00359126
0.000893424
0.00357825
6.68561e-05
0.00337175
-0.000481179
0.00304999
-0.000783689
0.00270937
-0.000859712
0.00239857
-0.000757068
0.00214533
-0.000524357
0.00206075
-0.00020776
0.00195764
3.49895e-05
0.00181509
0.000180745
0.001656
0.000269296
0.00148884
0.000337409
0.00131243
0.000403968
0.00112202
0.000484472
0.000913651
0.000597072
0.000712435
0.000750717
0.000626125
0.000987797
0.000654061
0.00129709
0.000723272
0.00174722
0.00131018
0.00226427
-0.000267328
0.00157718
-0.000883528
0.00061529
-0.000849189
-0.000606804
0.0112849
-0.000847489
0.00508574
-0.000206932
0.00194363
0.0007846
-0.000947917
0.00164609
-0.00368364
0.00212611
-0.00545154
0.00231862
-0.00605554
0.0022922
-0.00564889
0.00212981
-0.00456613
0.00188422
-0.00315324
0.0016151
-0.00176188
0.00140239
-0.000625634
0.00131694
0.000211272
0.00140452
0.000783254
0.00166726
0.00114484
0.00205312
0.00128833
0.00252642
0.0011746
0.00276316
0.000656567
0.00272113
0.000108744
0.00251833
-0.000278551
0.00222057
-0.000486121
0.00188976
-0.000529127
0.00157135
-0.000438907
0.00129982
-0.000253103
0.0011022
-1.04364e-05
0.000946143
0.000190748
0.000812013
0.000314566
0.000689872
0.000391129
0.000579269
0.000447707
0.000483133
0.000499804
0.000408556
0.000558759
0.00036865
0.000636698
0.000379119
0.00073998
0.000493759
0.000872904
0.000747529
0.00104309
0.00112402
0.00137051
0.00166728
0.0017208
0.00193684
0.00130741
0.00167708
0.000874671
0.000873308
-0.000361419
0.0121167
6.88971e-05
0.00465535
0.00174358
0.00026887
0.00305184
-0.00225623
0.00372622
-0.00435801
0.00383473
-0.00556002
0.00349819
-0.00571903
0.00288405
-0.00503487
0.00216307
-0.00384536
0.00144514
-0.00243554
0.000842032
-0.001159
0.000451144
-0.000234953
0.000320944
0.000341283
0.000419011
0.000685008
0.000677987
0.000885692
0.00102559
0.000940552
0.00138425
0.00081577
0.00155561
0.000485009
0.00151837
0.000145768
0.00134035
-0.000100772
0.00107882
-0.00022486
0.000781851
-0.000232451
0.000489091
-0.000146469
0.000231103
4.54557e-06
4.50285e-05
0.000175286
-7.23068e-05
0.000307729
-0.000152389
0.000394296
-0.000210014
0.000448409
-0.000245783
0.000483141
-0.000251698
0.000505397
-0.000212003
0.000518758
-0.000103339
0.000527745
9.30167e-05
0.000543352
0.000379307
0.000586368
0.000754184
0.000667992
0.00122805
0.000896438
0.00185282
0.00109582
0.00235441
0.000805594
0.00238563
0.000843137
0.00331062
0.00329943
0.009347
0.00448955
0.00346516
0.00543062
-0.000672289
0.00622745
-0.00305309
0.00627989
-0.0044104
0.00558966
-0.00486974
0.00440122
-0.00453064
0.00299402
-0.00362784
0.00163819
-0.0024898
0.000459331
-0.00125698
-0.000332099
-0.00036785
-0.000706576
0.00013927
-0.000769408
0.000403869
-0.000647129
0.000562487
-0.000414026
0.000652349
-0.000134233
0.000660514
0.000112247
0.000569031
0.000214835
0.000382142
0.000169612
0.000190689
1.5315e-05
5.32005e-05
-0.000204804
-5.09055e-06
-0.000449502
1.18726e-05
-0.000677436
8.10723e-05
-0.000850235
0.000176942
-0.00095054
0.000275189
-0.000998806
0.000355599
-0.00101462
0.000409721
-0.0010064
0.000439826
-0.000972505
0.000448889
-0.000903615
0.000436175
-0.000782981
0.000397816
-0.000588025
0.000332508
-0.000302048
0.000257121
6.4779e-05
0.000219307
0.000455886
0.000276683
0.000880225
0.000471916
0.00133241
0.000643448
0.00148043
0.000657353
0.000589238
0.00173403
0.00410352
0.00993538
0.0133961
0.0119773
0.000746494
0.0104749
-0.00155065
0.00858533
-0.00252073
0.00639243
-0.00267682
0.00407837
-0.00221672
0.00185994
-0.00140969
3.15241e-05
-0.000661756
-0.00117
-5.58293e-05
-0.00172703
0.000188862
-0.00189722
0.000309149
-0.00187325
0.000379575
-0.00174456
0.00043348
-0.00156021
0.000467672
-0.00136705
0.000467023
-0.00121831
0.000419932
-0.00116695
0.000330417
-0.0012132
0.000236541
-0.00132916
0.000168741
-0.00147636
0.000141678
-0.00161855
0.00015362
-0.00173024
0.00019232
-0.00179802
0.000244276
-0.00182037
0.000297108
-0.00180646
0.000341265
-0.00176901
0.000371877
-0.00171861
0.000389038
-0.00166529
0.000395206
-0.00162369
0.000394239
-0.00161918
0.000392998
-0.00169149
0.00040453
-0.00188713
0.000452483
-0.00224279
0.000574687
-0.00278753
0.000821116
-0.00355338
0.00123745
-0.00468571
0.00177544
-0.00623111
0.0022024
-0.00634721
0.00184975
-0.00204354
0.0055812
0.00158846
0.00414564
-0.000115122
0.0028907
-0.00126593
0.00129865
-0.00108504
-0.000399614
-0.000518854
-0.00179217
-1.75177e-05
-0.00264349
0.000189196
-0.00298824
0.000288555
-0.00309033
0.000290566
-0.0030674
0.000285842
-0.00297937
0.000291159
-0.00285381
0.000307515
-0.00271235
0.000325802
-0.00257955
0.000333793
-0.00248229
0.00032224
-0.00244273
0.000290395
-0.00245818
0.00025152
-0.00250942
0.000219509
-0.00257108
0.000202854
-0.00262084
0.000202901
-0.00264495
0.00021596
-0.00263778
0.000236642
-0.00260035
0.000259233
-0.00253843
0.000278912
-0.00246027
0.000293303
-0.00237508
0.000303452
-0.00229379
0.000313538
-0.00223003
0.00033012
-0.00219849
0.000361109
-0.00220958
0.000415277
-0.00226336
0.000505903
-0.00234765
0.000658608
-0.00243493
0.000908021
-0.00247008
0.00127221
-0.00241172
0.00171668
-0.00200735
0.00179762
-0.000607761
0.000449724
-0.00261129
-0.000347981
0.0019909
-0.000999987
0.00053688
-0.00228882
2.27015e-05
-0.00339785
2.3688e-05
-0.00408195
0.00016487
-0.00435306
0.000253203
-0.00442291
0.000258629
-0.00437283
0.000238053
-0.00428481
0.000202119
-0.00417723
0.000177813
-0.00405659
0.000170069
-0.00392549
0.000175951
-0.00378894
0.000188773
-0.00365672
0.000201088
-0.00354171
0.000206732
-0.00345488
0.000203066
-0.00339694
0.000193071
-0.00335949
0.000181552
-0.0033298
0.000172669
-0.00329604
0.00016864
-0.00325042
0.000169866
-0.0031898
0.000175553
-0.00311504
0.000184016
-0.00302982
0.000193255
-0.00293889
0.000201938
-0.00284604
0.000210189
-0.00275261
0.000219695
-0.00265637
0.000233466
-0.00255105
0.000255377
-0.002426
0.000289809
-0.00226385
0.000343331
-0.00203532
0.00042964
-0.00169397
0.000566228
-0.0011427
0.000720497
-0.00017824
0.000751758
0.0011322
0.000486726
0.00186245
-0.000281011
-0.000706254
-0.00670607
-0.00910455
-0.00710433
-0.00657321
-0.00656352
-0.00655664
-0.00641126
-0.00617984
-0.00594474
-0.00573146
-0.00555495
-0.00540332
-0.00525988
-0.00511098
-0.00494973
-0.00477673
-0.00459879
-0.00442533
-0.00426274
-0.00411253
-0.00397199
-0.00383614
-0.00369963
-0.0035579
-0.00340813
-0.00324954
-0.00308271
-0.00290809
-0.00272445
-0.00252751
-0.00230906
-0.00205645
-0.00175038
-0.00135778
-0.000828116
-0.000143587
0.000572426
0.0010219
0.000700813
)
;

boundaryField
{
    floor
    {
        type            calculated;
        value           nonuniform List<scalar> 
29
(
0
0
0
0
0
0
0
0
0
0
0
0
0
0
0
0
0
0
0
0
-1.85384e-06
-5.2768e-06
-8.54816e-06
-1.16225e-05
-1.7992e-06
-1.80087e-06
-5.41387e-06
-9.03029e-06
-9.16887e-06
)
;
    }
    ceiling
    {
        type            calculated;
        value           nonuniform List<scalar> 
43
(
-9.85652e-06
-1.00831e-05
-9.86427e-06
5.39624e-06
1.26426e-05
1.63939e-05
1.90696e-05
2.13351e-05
2.30767e-05
2.42978e-05
2.51293e-05
2.5699e-05
2.61361e-05
2.65469e-05
2.70113e-05
2.75827e-05
2.82839e-05
2.91003e-05
2.99776e-05
3.08435e-05
3.16338e-05
3.23127e-05
3.28792e-05
3.33591e-05
3.37914e-05
3.42139e-05
3.46536e-05
3.51202e-05
3.56033e-05
3.60704e-05
3.64673e-05
3.67259e-05
3.67742e-05
3.65534e-05
3.60621e-05
3.54585e-05
3.52369e-05
3.67239e-05
3.94787e-05
4.30813e-05
6.50946e-06
4.36758e-06
-5.41508e-05
)
;
    }
    sWall
    {
        type            calculated;
        value           uniform -0.000207607;
    }
    nWall
    {
        type            calculated;
        value           nonuniform List<scalar> 6(-3.52072e-05 -4.58584e-05 -5.20845e-05 -4.05511e-05 -4.31181e-05 -4.90632e-05);
    }
    sideWalls
    {
        type            empty;
        value           nonuniform 0();
    }
    glass1
    {
        type            calculated;
        value           nonuniform List<scalar> 9(-5.56961e-05 -0.000151651 -0.000233798 -0.000304717 -0.000365809 -0.000418579 -0.000470371 -0.000529809 -0.000594949);
    }
    glass2
    {
        type            calculated;
        value           nonuniform List<scalar> 2(-0.000204056 -0.000200561);
    }
    sun
    {
        type            calculated;
        value           uniform 0;
    }
    heatsource1
    {
        type            calculated;
        value           nonuniform List<scalar> 3(2.03001e-07 2.02383e-07 2.02576e-07);
    }
    heatsource2
    {
        type            calculated;
        value           nonuniform List<scalar> 4(5.09649e-08 5.11831e-08 0 0);
    }
    Table_master
    {
        type            calculated;
        value           nonuniform List<scalar> 9(-1.52402e-07 -1.52612e-07 -1.52666e-07 -1.52692e-07 -1.52702e-07 -1.527e-07 -1.5269e-07 -1.52664e-07 -1.52592e-07);
    }
    Table_slave
    {
        type            calculated;
        value           nonuniform List<scalar> 9(1.52003e-07 1.52039e-07 1.52004e-07 1.51984e-07 1.51988e-07 1.52014e-07 1.52059e-07 1.52127e-07 1.52232e-07);
    }
    inlet
    {
        type            calculated;
        value           uniform -0.00642292;
    }
    outlet
    {
        type            calculated;
        value           nonuniform List<scalar> 2(0.00692303 0.00240803);
    }
}


// ************************************************************************* //
