/*--------------------------------*- C++ -*----------------------------------*\
  =========                 |
  \\      /  F ield         | OpenFOAM: The Open Source CFD Toolbox
   \\    /   O peration     | Website:  https://openfoam.org
    \\  /    A nd           | Version:  6
     \\/     M anipulation  |
\*---------------------------------------------------------------------------*/
FoamFile
{
    version     2.0;
    format      ascii;
    class       volScalarField;
    location    "800";
    object      epsilon;
}
// * * * * * * * * * * * * * * * * * * * * * * * * * * * * * * * * * * * * * //

dimensions      [0 2 -3 0 0 0 0];

internalField   nonuniform List<scalar> 
459
(
0.000440681
0.000574306
0.000606494
0.000697951
0.000790299
0.000883598
0.000981605
0.00108562
0.00116439
0.00120071
0.00117972
0.00109608
0.000958656
0.000793033
0.000635265
3.75685e-05
6.93791e-05
9.81122e-05
9.53482e-05
8.53848e-05
7.36725e-05
6.08569e-05
4.97906e-05
4.09937e-05
3.41044e-05
2.86835e-05
2.43725e-05
2.09192e-05
1.81072e-05
1.57454e-05
1.36656e-05
1.16996e-05
1.03945e-05
7.83213e-06
0.00111761
0.00160798
0.000544149
0.000527804
0.000552943
0.000593103
0.000651434
0.000729851
0.000805931
0.000856825
0.000862864
0.000816218
0.00072259
0.000604847
0.000526093
0.000669629
0.000143402
4.82303e-05
0.000119085
0.00012318
0.000110297
9.27957e-05
7.69051e-05
6.83835e-05
5.53383e-05
4.3928e-05
3.4892e-05
2.79141e-05
2.25453e-05
1.84191e-05
1.52556e-05
1.2936e-05
1.15439e-05
1.09505e-05
2.4702e-05
1.74281e-05
0.00203986
0.00394342
0.000680242
0.000505716
0.000528972
0.00059243
0.000685813
0.000804403
0.000916805
0.00099007
0.00100501
0.000959827
0.00086425
0.000738909
0.000630457
0.000569595
0.000643629
0.000390036
0.000270734
0.000200857
0.00015324
0.000119521
9.94617e-05
0.000178429
0.000123085
8.80018e-05
6.51208e-05
4.97152e-05
3.90219e-05
3.14076e-05
2.59003e-05
2.19362e-05
1.66332e-05
1.38154e-05
4.35997e-05
2.68459e-05
0.00330524
0.00818314
0.00109284
0.000519157
0.000521604
0.000612097
0.000756653
0.000939115
0.00108857
0.00116906
0.00117453
0.00111431
0.00100113
0.000852164
0.000715088
0.000614075
0.000585475
0.00112146
0.000617618
0.000368025
0.000244998
0.000175466
0.000132812
0.000112882
0.000255625
0.000192964
0.000154961
0.000129581
0.000110348
9.4534e-05
8.08652e-05
6.804e-05
5.4981e-05
3.23956e-05
2.10366e-05
6.72034e-05
3.61053e-05
0.00504784
0.0145621
0.00218744
0.000641318
0.000551798
0.000670623
0.000927401
0.00120409
0.0013675
0.00142429
0.00139659
0.00130238
0.00115359
0.000969049
0.000778886
0.000609044
0.000479613
0.000416619
0.000333394
0.000259456
0.000200987
0.000156914
0.000124777
0.000103993
0.000100212
9.29131e-05
8.56113e-05
7.8491e-05
7.11507e-05
6.353e-05
5.60581e-05
4.9031e-05
4.25949e-05
3.38205e-05
2.5684e-05
5.00675e-05
3.96916e-05
6.76367e-05
0.000120484
0.000170181
0.00746948
0.0215828
0.00492853
0.00129244
0.000878668
0.00100747
0.00148506
0.00174635
0.00182424
0.00179948
0.00171095
0.00156524
0.00136336
0.00112047
0.000867662
0.000639846
0.000465277
0.000353532
0.000280591
0.000224506
0.00017835
0.000142265
0.000116005
9.909e-05
9.10641e-05
8.73934e-05
8.49278e-05
8.19861e-05
7.75599e-05
7.08331e-05
6.18929e-05
5.26631e-05
4.4224e-05
3.66696e-05
3.15976e-05
3.96651e-05
4.10933e-05
5.14919e-05
0.00022182
0.000192849
0.0102565
0.0257717
0.0100813
0.00420985
0.00289984
0.00280602
0.00285233
0.00273148
0.00254632
0.00235318
0.00215228
0.00191809
0.00163227
0.00130614
0.000976144
0.00068548
0.000469785
0.000333697
0.000251681
0.000196594
0.000155503
0.000125843
0.000106444
9.59594e-05
9.26974e-05
9.35965e-05
9.5853e-05
9.80432e-05
9.9138e-05
9.76313e-05
9.05096e-05
7.9925e-05
6.94262e-05
6.04167e-05
5.66351e-05
6.23718e-05
7.83307e-05
0.000124116
0.000289179
0.000281915
0.0108678
0.0279408
0.0156288
0.0107342
0.00811805
0.00632314
0.00498765
0.00407898
0.00348069
0.00306658
0.00272238
0.00236232
0.00194645
0.00149566
0.00106079
0.000692259
0.000438065
0.000289686
0.000206137
0.000159519
0.000129077
0.000109804
9.93679e-05
9.59325e-05
9.77909e-05
0.000103186
0.000110907
0.000120681
0.000132637
0.000146696
0.000161858
0.000170738
0.000178956
0.000196749
0.000234298
0.000348161
0.000637677
0.00120694
0.00360319
0.00108262
0.0100251
0.0167225
0.0133217
0.0101143
0.00780244
0.00625962
0.00526647
0.00464184
0.00421817
0.00384275
0.00340733
0.00285939
0.00220932
0.00155946
0.000994202
0.000547876
0.000320634
0.000214086
0.000158602
0.000127035
0.000108133
9.77851e-05
9.37819e-05
9.46293e-05
9.92995e-05
0.000107187
0.00011827
0.000133225
0.000153339
0.000180448
0.00021699
0.000266662
0.000335158
0.00043918
0.000593291
0.000804865
0.00105101
0.00127069
0.00143983
0.000905594
0.00366813
0.00565859
0.00653185
0.00663635
0.00646003
0.00609002
0.00548774
0.00466849
0.00370934
0.00266311
0.00158835
0.000899638
0.000505372
0.000291385
0.000190292
0.000141301
0.000115578
0.000100995
9.26519e-05
8.84577e-05
8.71155e-05
8.79533e-05
9.07623e-05
9.57499e-05
0.000103437
0.000114745
0.000131071
0.00015444
0.000187774
0.000235275
0.000301891
0.000394415
0.000516663
0.000658831
0.000785546
0.000847166
0.000812788
0.000523326
0.00276863
0.00636263
0.00710249
0.00591488
0.00530664
0.00463123
0.00372218
0.00276616
0.0019231
0.00126113
0.000761224
0.000450045
0.000280124
0.000195351
0.000156709
0.00013945
0.00013156
0.000127546
0.000124978
0.000122898
0.000121068
0.000119638
0.000119146
0.000120395
0.000124031
0.000130889
0.000142186
0.000159722
0.000186148
0.00022479
0.000280058
0.000356498
0.000454842
0.000567301
0.000653218
0.000746867
0.000752637
0.000555271
0.0019799
0.00235649
0.00265029
0.0033109
0.00299947
0.00264209
0.00242843
0.00215157
0.00179194
0.00140155
0.00103303
0.000723634
0.000488756
0.00033169
0.00023767
0.000182978
0.000149998
0.000129024
0.000115175
0.000105964
0.000100032
9.65976e-05
9.53039e-05
9.62006e-05
9.95337e-05
0.000105174
0.000113417
0.000124817
0.000140234
0.000160925
0.000187417
0.000221038
0.000263827
0.000318361
0.000386948
0.000479824
0.000514937
0.000477313
0.000395947
0.000321071
)
;

boundaryField
{
    floor
    {
        Cmu             0.09;
        kappa           0.41;
        E               9.8;
        type            epsilonWallFunction;
        value           nonuniform List<scalar> 
29
(
0.000635265
3.75685e-05
6.93791e-05
9.81122e-05
9.53482e-05
8.53848e-05
7.36725e-05
6.08569e-05
4.97906e-05
4.09937e-05
3.41044e-05
2.86835e-05
2.43725e-05
2.09192e-05
1.81072e-05
1.57454e-05
1.36656e-05
1.16996e-05
1.03945e-05
7.83213e-06
7.83213e-06
1.74281e-05
2.68459e-05
3.61053e-05
0.000635265
3.75685e-05
4.82303e-05
0.000390036
0.00112146
)
;
    }
    ceiling
    {
        Cmu             0.09;
        kappa           0.41;
        E               9.8;
        type            epsilonWallFunction;
        value           nonuniform List<scalar> 
43
(
0.0019799
0.00235649
0.00265029
0.0033109
0.00299947
0.00264209
0.00242843
0.00215157
0.00179194
0.00140155
0.00103303
0.000723634
0.000488756
0.00033169
0.00023767
0.000182978
0.000149998
0.000129024
0.000115175
0.000105964
0.000100032
9.65976e-05
9.53039e-05
9.62006e-05
9.95337e-05
0.000105174
0.000113417
0.000124817
0.000140234
0.000160925
0.000187417
0.000221038
0.000263827
0.000318361
0.000386948
0.000479824
0.000514937
0.000477313
0.000395947
0.000321071
0.0100251
0.0167225
0.00276863
)
;
    }
    sWall
    {
        Cmu             0.09;
        kappa           0.41;
        E               9.8;
        type            epsilonWallFunction;
        value           uniform 0.0019799;
    }
    nWall
    {
        Cmu             0.09;
        kappa           0.41;
        E               9.8;
        type            epsilonWallFunction;
        value           nonuniform List<scalar> 6(0.000170181 0.000192849 0.000281915 0.000523326 0.000555271 0.000321071);
    }
    sideWalls
    {
        type            empty;
    }
    glass1
    {
        Cmu             0.09;
        kappa           0.41;
        E               9.8;
        type            epsilonWallFunction;
        value           nonuniform List<scalar> 9(0.000440681 0.00111761 0.00203986 0.00330524 0.00504784 0.00746948 0.0102565 0.0108678 0.0100251);
    }
    glass2
    {
        Cmu             0.09;
        kappa           0.41;
        E               9.8;
        type            epsilonWallFunction;
        value           nonuniform List<scalar> 2(0.00108262 0.000905594);
    }
    sun
    {
        Cmu             0.09;
        kappa           0.41;
        E               9.8;
        type            epsilonWallFunction;
        value           nonuniform List<scalar> 
14
(
0.000440681
0.000574306
0.000606494
0.000697951
0.000790299
0.000883598
0.000981605
0.00108562
0.00116439
0.00120071
0.00117972
0.00109608
0.000958656
0.000793033
)
;
    }
    heatsource1
    {
        Cmu             0.09;
        kappa           0.41;
        E               9.8;
        type            epsilonWallFunction;
        value           nonuniform List<scalar> 3(6.76367e-05 0.000120484 0.000170181);
    }
    heatsource2
    {
        Cmu             0.09;
        kappa           0.41;
        E               9.8;
        type            epsilonWallFunction;
        value           nonuniform List<scalar> 4(0.000669629 0.000143402 0.000143402 0.000643629);
    }
    Table_master
    {
        Cmu             0.09;
        kappa           0.41;
        E               9.8;
        type            epsilonWallFunction;
        value           nonuniform List<scalar> 9(0.000178429 0.000123085 8.80018e-05 6.51208e-05 4.97152e-05 3.90219e-05 3.14076e-05 2.59003e-05 2.19362e-05);
    }
    Table_slave
    {
        Cmu             0.09;
        kappa           0.41;
        E               9.8;
        type            epsilonWallFunction;
        value           nonuniform List<scalar> 9(0.000255625 0.000192964 0.000154961 0.000129581 0.000110348 9.4534e-05 8.08652e-05 6.804e-05 5.4981e-05);
    }
    inlet
    {
        type            turbulentMixingLengthDissipationRateInlet;
        mixingLength    0.01;
        phi             phi;
        k               k;
        value           uniform 0.000101881;
    }
    outlet
    {
        type            zeroGradient;
    }
}


// ************************************************************************* //
