// -*- C++ -*-
// File generated by PyFoam - sorry for the ugliness

FoamFile
{
 version 2.0;
 format ascii;
 class volVectorField;
 location "800";
 object U;
}

dimensions [ 0 1 -1 0 0 0 0 ];

internalField nonuniform List<vector> 459
(
  (0.0331575 0.0853114 0)
  (-0.165797 0.025599 0)
  (-0.190255 0.0178745 0)
  (-0.22088 0.0124363 0)
  (-0.243359 0.00649506 0)
  (-0.256901 0.00027223 0)
  (-0.260227 -0.00629685 0)
  (-0.252028 -0.0132247 0)
  (-0.232907 -0.0201148 0)
  (-0.204148 -0.0259431 0)
  (-0.168595 -0.0298655 0)
  (-0.129565 -0.0315967 0)
  (-0.0902493 -0.0316803 0)
  (-0.0554748 -0.0318166 0)
  (-0.0392073 -0.0337229 0)
  (-0.00215181 0.00719075 0)
  (-0.0214153 -0.01768 0)
  (0.00265831 -0.0262154 0)
  (0.0232174 -0.0193298 0)
  (0.0389225 -0.0129342 0)
  (0.050384 -0.00823857 0)
  (0.0570797 -0.00496245 0)
  (0.0603949 -0.0032553 0)
  (0.0619093 -0.0025085 0)
  (0.0627154 -0.00214083 0)
  (0.0632266 -0.00190122 0)
  (0.0634908 -0.00170481 0)
  (0.0634415 -0.00146182 0)
  (0.0628653 -0.000998816 0)
  (0.0611857 7.02274e-05 0)
  (0.0571859 0.00229416 0)
  (0.0495242 0.00472913 0)
  (0.0414493 0.00686824 0)
  (-0.010036 0.0204098 0)
  (0.205492 0.174275 0)
  (-0.154057 0.0669005 0)
  (-0.152191 0.0520859 0)
  (-0.18342 0.0407868 0)
  (-0.205326 0.0281692 0)
  (-0.218791 0.0142361 0)
  (-0.222537 -0.00129801 0)
  (-0.21503 -0.0180956 0)
  (-0.197376 -0.0341637 0)
  (-0.171235 -0.0470297 0)
  (-0.139703 -0.054861 0)
  (-0.106166 -0.0570926 0)
  (-0.0738725 -0.0543734 0)
  (-0.0466784 -0.0482843 0)
  (-0.0293766 -0.0398742 0)
  (-0.0155425 -0.0198658 0)
  (-0.00761479 0.0120397 0)
  (0.0599523 0.0307138 0)
  (0.0324738 -0.0202092 0)
  (0.0393725 -0.0305595 0)
  (0.0501032 -0.0256776 0)
  (0.0584805 -0.0175217 0)
  (0.0639298 -0.0101428 0)
  (0.0660342 -0.00415416 0)
  (0.0663089 -0.000862458 0)
  (0.0662153 0.000552469 0)
  (0.0662928 0.00121741 0)
  (0.0664497 0.00163961 0)
  (0.0665607 0.00201071 0)
  (0.066584 0.00249943 0)
  (0.0664648 0.00344846 0)
  (0.0656653 0.0057719 0)
  (0.0617488 0.0121595 0)
  (0.0519132 0.0176569 0)
  (0.0452469 0.0216451 0)
  (-0.0429789 0.0440704 0)
  (0.36338 0.260386 0)
  (-0.1699 0.106075 0)
  (-0.113612 0.0837808 0)
  (-0.143354 0.0636583 0)
  (-0.162348 0.0429635 0)
  (-0.174392 0.0204404 0)
  (-0.177449 -0.00474482 0)
  (-0.169066 -0.0315823 0)
  (-0.151354 -0.0565292 0)
  (-0.126738 -0.0755284 0)
  (-0.098632 -0.0860717 0)
  (-0.0700576 -0.0878491 0)
  (-0.0433688 -0.0819628 0)
  (-0.0208163 -0.0698958 0)
  (-0.00445358 -0.0527517 0)
  (0.0083923 -0.0268775 0)
  (0.0152785 0.00747191 0)
  (0.105141 -0.0409883 0)
  (0.0729165 -0.0440147 0)
  (0.06915 -0.0396863 0)
  (0.0714195 -0.0314901 0)
  (0.0729977 -0.0221521 0)
  (0.0737638 -0.0143588 0)
  (0.0719628 -0.0117227 0)
  (0.068041 -0.00841391 0)
  (0.0653609 -0.00662296 0)
  (0.0641473 -0.0056031 0)
  (0.0636127 -0.00495822 0)
  (0.0633551 -0.0045073 0)
  (0.0634168 -0.00405922 0)
  (0.0642749 -0.00325237 0)
  (0.0671561 -0.000107908 0)
  (0.0651488 0.0171788 0)
  (0.051892 0.0295409 0)
  (0.0508348 0.0384355 0)
  (-0.0718878 0.069326 0)
  (0.505374 0.329429 0)
  (-0.203386 0.140608 0)
  (-0.0734616 0.110238 0)
  (-0.100947 0.0825268 0)
  (-0.114034 0.0560344 0)
  (-0.122081 0.0266807 0)
  (-0.121602 -0.00772823 0)
  (-0.109926 -0.0449893 0)
  (-0.091253 -0.0781284 0)
  (-0.0688352 -0.10175 0)
  (-0.0458462 -0.113463 0)
  (-0.0242611 -0.11398 0)
  (-0.00494069 -0.105136 0)
  (0.0117042 -0.0884153 0)
  (0.0252039 -0.0668249 0)
  (0.0396366 -0.0408828 0)
  (0.0619871 -0.0146533 0)
  (0.0926426 -0.00196351 0)
  (0.100697 -0.0343044 0)
  (0.0871886 -0.0389831 0)
  (0.0786994 -0.0343356 0)
  (0.0746733 -0.0277617 0)
  (0.0721216 -0.0201793 0)
  (0.0710262 -0.0114818 0)
  (0.072882 -0.00671377 0)
  (0.0769458 -0.00534154 0)
  (0.0802876 -0.00457 0)
  (0.0825576 -0.00395765 0)
  (0.0839338 -0.00315105 0)
  (0.0838446 -0.0019039 0)
  (0.0812537 -6.10886e-06 0)
  (0.0749382 0.00282536 0)
  (0.0621018 0.00711988 0)
  (0.0513323 0.0275006 0)
  (0.0408727 0.0445018 0)
  (0.0536433 0.0583552 0)
  (-0.101415 0.0924454 0)
  (0.627248 0.382822 0)
  (-0.244214 0.16876 0)
  (-0.0345187 0.124799 0)
  (-0.0569968 0.0926457 0)
  (-0.0616619 0.0629529 0)
  (-0.0626219 0.0289949 0)
  (-0.0527648 -0.0136635 0)
  (-0.035355 -0.0602804 0)
  (-0.0165563 -0.0983298 0)
  (0.00117126 -0.122992 0)
  (0.0159473 -0.132785 0)
  (0.0275146 -0.130317 0)
  (0.0364689 -0.118745 0)
  (0.0434876 -0.100535 0)
  (0.0496769 -0.0783415 0)
  (0.0570434 -0.054779 0)
  (0.0681803 -0.0352914 0)
  (0.0787512 -0.0300918 0)
  (0.0804777 -0.0356622 0)
  (0.0739708 -0.0341582 0)
  (0.0660207 -0.0289064 0)
  (0.0600352 -0.0230979 0)
  (0.0558977 -0.0171965 0)
  (0.0538004 -0.0112413 0)
  (0.0540446 -0.00618524 0)
  (0.0562527 -0.00388007 0)
  (0.0586746 -0.00303489 0)
  (0.0610127 -0.00230486 0)
  (0.063161 -0.000776747 0)
  (0.064734 0.00207947 0)
  (0.0645828 0.00637704 0)
  (0.0621405 0.012283 0)
  (0.0567169 0.0204673 0)
  (0.0501856 0.0359444 0)
  (0.0413425 0.0546677 0)
  (0.0619394 0.0754415 0)
  (-0.015787 0.104895 0)
  (0.0453825 0.0347645 0)
  (-0.0612781 -0.0345255 0)
  (-0.268553 -0.056731 0)
  (0.71476 0.427297 0)
  (-0.283505 0.18756 0)
  (-0.00559628 0.119589 0)
  (-0.0118129 0.091671 0)
  (-0.00492223 0.0629625 0)
  (0.00478671 0.0228593 0)
  (0.0321431 -0.0301252 0)
  (0.0532862 -0.0786584 0)
  (0.0684226 -0.113931 0)
  (0.0773574 -0.134141 0)
  (0.080774 -0.140291 0)
  (0.0800853 -0.134964 0)
  (0.0766663 -0.121189 0)
  (0.0719016 -0.101914 0)
  (0.0672634 -0.0800447 0)
  (0.0641388 -0.0582866 0)
  (0.0634482 -0.0403611 0)
  (0.0629227 -0.0308385 0)
  (0.0588716 -0.0281703 0)
  (0.0512406 -0.0256879 0)
  (0.0430307 -0.0217801 0)
  (0.036534 -0.0175827 0)
  (0.0321611 -0.0135777 0)
  (0.0300529 -0.00982901 0)
  (0.0301363 -0.00699444 0)
  (0.0319085 -0.00605662 0)
  (0.0344519 -0.00601101 0)
  (0.0374353 -0.00568186 0)
  (0.0406977 -0.00412394 0)
  (0.0440318 -0.000503816 0)
  (0.0469133 0.00542542 0)
  (0.0483814 0.0133632 0)
  (0.0486532 0.0235599 0)
  (0.0491483 0.0378768 0)
  (0.0485106 0.0559796 0)
  (0.0702854 0.0790426 0)
  (0.052603 0.0979267 0)
  (0.0913601 0.0688522 0)
  (0.114356 0.0447784 0)
  (-0.128266 -0.00747114 0)
  (0.767296 0.46786 0)
  (-0.30206 0.173014 0)
  (0.0218269 0.0675875 0)
  (0.0490066 0.0633204 0)
  (0.0692899 0.0453847 0)
  (0.100046 -0.000144617 0)
  (0.132313 -0.0537541 0)
  (0.15132 -0.0955425 0)
  (0.15809 -0.122348 0)
  (0.154598 -0.134879 0)
  (0.143392 -0.135139 0)
  (0.127288 -0.1259 0)
  (0.108833 -0.110063 0)
  (0.0901896 -0.090524 0)
  (0.0731221 -0.0698904 0)
  (0.0587759 -0.0502856 0)
  (0.047695 -0.0343441 0)
  (0.0388431 -0.02447 0)
  (0.030257 -0.019844 0)
  (0.0216003 -0.0171991 0)
  (0.0139085 -0.0146987 0)
  (0.00815227 -0.0124065 0)
  (0.0044983 -0.0104762 0)
  (0.00290308 -0.00891569 0)
  (0.00315906 -0.00808058 0)
  (0.0047409 -0.00831536 0)
  (0.00704001 -0.00897093 0)
  (0.00984961 -0.0092022 0)
  (0.013225 -0.00817174 0)
  (0.0172967 -0.00489423 0)
  (0.0230103 0.00157516 0)
  (0.0285678 0.010265 0)
  (0.0338759 0.0205465 0)
  (0.0407588 0.0331677 0)
  (0.0485252 0.047943 0)
  (0.0701993 0.0665358 0)
  (0.0838337 0.0752282 0)
  (0.115561 0.0532596 0)
  (0.155108 0.0443191 0)
  (-0.0368158 0.0925433 0)
  (0.871897 0.469343 0)
  (-0.0649059 0.151739 0)
  (0.10942 -0.0136337 0)
  (0.180765 -0.0393559 0)
  (0.20895 -0.0501222 0)
  (0.240616 -0.0725858 0)
  (0.259344 -0.0952916 0)
  (0.261247 -0.111866 0)
  (0.247671 -0.120193 0)
  (0.22259 -0.120166 0)
  (0.190442 -0.112887 0)
  (0.155258 -0.10014 0)
  (0.120208 -0.0837061 0)
  (0.0877156 -0.065721 0)
  (0.0594282 -0.048126 0)
  (0.0360257 -0.0322125 0)
  (0.0182524 -0.0200735 0)
  (0.00535287 -0.0131119 0)
  (-0.00454972 -0.0102687 0)
  (-0.0120483 -0.00933956 0)
  (-0.0179113 -0.00882608 0)
  (-0.0221168 -0.00853167 0)
  (-0.0248111 -0.00846323 0)
  (-0.0261715 -0.00864769 0)
  (-0.026452 -0.00922869 0)
  (-0.0260696 -0.0102584 0)
  (-0.0254026 -0.0114216 0)
  (-0.0245504 -0.0122766 0)
  (-0.0233503 -0.0123381 0)
  (-0.021408 -0.0110273 0)
  (-0.0177469 -0.00760346 0)
  (-0.00905604 -0.00138402 0)
  (-0.00104592 0.00658339 0)
  (0.00936025 0.0146908 0)
  (0.0210067 0.0218315 0)
  (0.0408251 0.0292953 0)
  (0.0600898 0.0230605 0)
  (0.0804268 -0.00423284 0)
  (0.139389 0.0388222 0)
  (-0.403528 0.201852 0)
  (1.01855 0.422822 0)
  (0.484538 0.27952 0)
  (0.499357 0.18329 0)
  (0.525148 0.112751 0)
  (0.506348 0.062428 0)
  (0.4654 0.0157068 0)
  (0.417513 -0.0238977 0)
  (0.364768 -0.0515673 0)
  (0.307364 -0.0662204 0)
  (0.24816 -0.0696197 0)
  (0.190595 -0.0649914 0)
  (0.137312 -0.0555179 0)
  (0.0898473 -0.0431755 0)
  (0.0497406 -0.0300964 0)
  (0.0172298 -0.0181037 0)
  (-0.0085802 -0.00837137 0)
  (-0.0243734 -0.00369822 0)
  (-0.0340411 -0.00245066 0)
  (-0.0405734 -0.002858 0)
  (-0.045541 -0.00382357 0)
  (-0.0495581 -0.00481834 0)
  (-0.052787 -0.00578918 0)
  (-0.0553654 -0.00675702 0)
  (-0.0574665 -0.00775297 0)
  (-0.0593406 -0.00882673 0)
  (-0.0613372 -0.00996264 0)
  (-0.0637982 -0.0109555 0)
  (-0.0670173 -0.0114455 0)
  (-0.0713087 -0.0109105 0)
  (-0.0770986 -0.00865296 0)
  (-0.0849345 -0.00385771 0)
  (-0.0947305 0.00400196 0)
  (-0.104657 0.0144043 0)
  (-0.11933 0.0276268 0)
  (-0.14232 0.0438548 0)
  (-0.17615 0.062058 0)
  (-0.224221 0.078407 0)
  (-0.279791 0.0903735 0)
  (-0.348015 0.09785 0)
  (-0.608178 0.101226 0)
  (-0.15344 0.00258677 0)
  (0.122441 0.00405089 0)
  (0.203547 -0.0285264 0)
  (0.19028 -0.0397572 0)
  (0.17453 -0.0389143 0)
  (0.152831 -0.0349562 0)
  (0.123663 -0.029496 0)
  (0.0900473 -0.0226781 0)
  (0.0554503 -0.0149543 0)
  (0.0208357 -0.0069074 0)
  (-0.0129395 0.000880127 0)
  (-0.0366298 0.00566011 0)
  (-0.0528949 0.00832372 0)
  (-0.0629122 0.00911837 0)
  (-0.0683993 0.00843903 0)
  (-0.0721353 0.00755014 0)
  (-0.0750294 0.0067867 0)
  (-0.0776336 0.00618964 0)
  (-0.0802555 0.00565213 0)
  (-0.0829755 0.00500412 0)
  (-0.0857915 0.00428813 0)
  (-0.0887832 0.00351383 0)
  (-0.0920768 0.00272928 0)
  (-0.0958113 0.00204235 0)
  (-0.100059 0.00169032 0)
  (-0.104821 0.00197004 0)
  (-0.110033 0.00319654 0)
  (-0.115523 0.00565709 0)
  (-0.120665 0.00988659 0)
  (-0.124747 0.0168084 0)
  (-0.128123 0.0275353 0)
  (-0.131013 0.0424647 0)
  (-0.134051 0.0608448 0)
  (-0.13767 0.079326 0)
  (-0.138875 0.0883901 0)
  (-0.121716 0.0674659 0)
  (-0.0803753 -0.0224432 0)
  (-0.2734 -0.197439 0)
  (0.0133975 0.194717 0)
  (0.0423958 0.0709937 0)
  (0.00112741 0.00644369 0)
  (-0.0108496 -0.00170881 0)
  (-0.023042 -7.75528e-05 0)
  (-0.0372262 -0.000255094 0)
  (-0.0532649 0.00043316 0)
  (-0.0689943 0.00242114 0)
  (-0.0818675 0.00444634 0)
  (-0.0896099 0.00492931 0)
  (-0.0943914 0.00320085 0)
  (-0.0966366 -0.000673137 0)
  (-0.097231 -0.00528602 0)
  (-0.0969111 -0.0102993 0)
  (-0.0965694 -0.0156689 0)
  (-0.0968009 -0.020902 0)
  (-0.0976515 -0.0256743 0)
  (-0.099031 -0.0297175 0)
  (-0.100817 -0.0328431 0)
  (-0.102977 -0.0350299 0)
  (-0.105522 -0.0363823 0)
  (-0.108353 -0.0368581 0)
  (-0.111361 -0.036399 0)
  (-0.114461 -0.0352525 0)
  (-0.117521 -0.0333752 0)
  (-0.120296 -0.0305318 0)
  (-0.122407 -0.0262987 0)
  (-0.123392 -0.0200825 0)
  (-0.122841 -0.0119937 0)
  (-0.119892 -0.00174674 0)
  (-0.113189 0.0113658 0)
  (-0.101441 0.0279848 0)
  (-0.0841668 0.0476657 0)
  (-0.0621129 0.0666131 0)
  (-0.0380652 0.0778324 0)
  (0.00136018 0.0622888 0)
  (0.143148 -0.00820486 0)
  (-0.204581 -0.107741 0)
  (-0.0417161 -0.31903 0)
  (-0.412265 -0.122917 0)
  (-0.300476 0.0645826 0)
  (-0.248102 -0.0171489 0)
  (-0.20822 -0.0227131 0)
  (-0.19651 -0.0115969 0)
  (-0.191907 -0.00182049 0)
  (-0.188548 0.00630644 0)
  (-0.184325 0.0139599 0)
  (-0.178261 0.0215891 0)
  (-0.17012 0.0292921 0)
  (-0.160154 0.0370042 0)
  (-0.149374 0.0445504 0)
  (-0.138951 0.0518718 0)
  (-0.129717 0.0591882 0)
  (-0.122023 0.0664737 0)
  (-0.115949 0.0736698 0)
  (-0.111345 0.080537 0)
  (-0.107963 0.0866534 0)
  (-0.105581 0.0916402 0)
  (-0.103996 0.0952675 0)
  (-0.103048 0.0974823 0)
  (-0.102647 0.0983247 0)
  (-0.102743 0.0977394 0)
  (-0.103283 0.0956826 0)
  (-0.104184 0.0926309 0)
  (-0.105324 0.0887558 0)
  (-0.106491 0.0841373 0)
  (-0.107309 0.0788102 0)
  (-0.107106 0.0728988 0)
  (-0.104639 0.0676851 0)
  (-0.0981002 0.0640911 0)
  (-0.0851385 0.0630069 0)
  (-0.0639175 0.0654024 0)
  (-0.0347556 0.0718398 0)
  (0.0103366 0.0814357 0)
  (0.0537947 0.0826466 0)
  (0.0945933 0.0700561 0)
  (0.1607 0.0446402 0)
  (-0.234395 -0.00496059 0)
)
;

boundaryField
{
  floor
  {
    type noSlip;
  }
  ceiling
  {
    type noSlip;
  }
  sWall
  {
    type noSlip;
  }
  nWall
  {
    type noSlip;
  }
  sideWalls
  {
    type empty;
  }
  glass1
  {
    type noSlip;
  }
  glass2
  {
    type noSlip;
  }
  sun
  {
    type noSlip;
  }
  heatsource1
  {
    type noSlip;
  }
  heatsource2
  {
    type noSlip;
  }
  Table_master
  {
    type noSlip;
  }
  Table_slave
  {
    type noSlip;
  }
  inlet
  {
    type fixedValue;
    value uniform (0.277164 -0.114805 0);
  }
  outlet
  {
    type zeroGradient;
  }
} 	// ************************************************************************* //

