/*--------------------------------*- C++ -*----------------------------------*\
  =========                 |
  \\      /  F ield         | OpenFOAM: The Open Source CFD Toolbox
   \\    /   O peration     | Website:  https://openfoam.org
    \\  /    A nd           | Version:  6
     \\/     M anipulation  |
\*---------------------------------------------------------------------------*/
FoamFile
{
    version     2.0;
    format      ascii;
    class       volScalarField;
    location    "300";
    object      alphat;
}
// * * * * * * * * * * * * * * * * * * * * * * * * * * * * * * * * * * * * * //

dimensions      [1 -1 -1 0 0 0 0];

internalField   nonuniform List<scalar> 
459
(
0.0018797
0.002149
0.00239665
0.00244566
0.00233467
0.00222134
0.00210872
0.00200169
0.00190067
0.0018052
0.00171955
0.00163708
0.00155162
0.00145376
0.00133602
0.000697247
0.000810398
0.000919193
0.00102835
0.0011203
0.00114478
0.00108943
0.00101951
0.000955863
0.000900603
0.000852851
0.000811595
0.000775598
0.000743428
0.000713829
0.000684389
0.000651953
0.000609637
0.000551091
0.00208325
0.00419301
0.00486374
0.00506742
0.00508315
0.00498065
0.00479521
0.00458393
0.00437587
0.00416983
0.00389689
0.00357114
0.00318685
0.00271581
0.00209214
0.00137566
0.00123042
0.000680115
0.00140183
0.00222933
0.00299949
0.00372916
0.00399565
0.00275626
0.00229658
0.0019996
0.00178832
0.00162886
0.00150436
0.00141204
0.00134939
0.00125201
0.00113955
0.00103657
0.000883324
0.000560642
0.0021527
0.00394733
0.00462708
0.00485707
0.00496684
0.00494239
0.00485191
0.00474325
0.00463616
0.00453962
0.00442515
0.00424948
0.00396396
0.00352539
0.00291003
0.00219767
0.00128417
0.000672227
0.00156249
0.00208302
0.00306861
0.00418191
0.00456773
0.00138089
0.00121809
0.0010715
0.000945586
0.000838041
0.00074454
0.000661158
0.000592731
0.000566771
0.000712879
0.000862435
0.00086326
0.000554726
0.00212801
0.00371056
0.00443989
0.00476747
0.00488815
0.00489481
0.00487237
0.00485705
0.00484067
0.00484722
0.00481211
0.00468848
0.00444115
0.0040436
0.00348452
0.00279301
0.0018413
0.00128236
0.00115006
0.00140741
0.00230029
0.00375198
0.0052414
0.00575329
0.00160041
0.00148557
0.00138982
0.00131032
0.00123849
0.00116759
0.00109361
0.00101348
0.000922046
0.000795031
0.000790918
0.000846575
0.00056252
0.00229426
0.00461761
0.00504627
0.00505734
0.00509394
0.00515208
0.00528724
0.00548728
0.00567191
0.00568505
0.00554591
0.00529678
0.00495744
0.00452834
0.00401262
0.00342034
0.00272376
0.00237729
0.00236109
0.00297977
0.00435651
0.00607104
0.00756534
0.00837449
0.00773236
0.0071532
0.00673879
0.00623146
0.00559769
0.0048856
0.00412093
0.00330698
0.00244204
0.00160583
0.00111403
0.00096438
0.000677322
0.000563695
0.000491047
0.000381268
0.00352469
0.00668227
0.00587541
0.00537119
0.00549674
0.00578222
0.00645905
0.0072693
0.00719619
0.00677622
0.00637768
0.00599153
0.00559041
0.00516146
0.00472583
0.00431379
0.00395545
0.00403168
0.00479458
0.00628926
0.00804375
0.0095384
0.0104877
0.0108
0.0105218
0.0100466
0.00940402
0.00858436
0.00763062
0.00659227
0.00550191
0.00437332
0.00322241
0.00215216
0.00142589
0.00112271
0.000847583
0.000757884
0.000695868
0.000465002
0.00363252
0.00908806
0.00565539
0.00636578
0.00768914
0.00806465
0.00846049
0.00852712
0.0081338
0.00768439
0.00728636
0.00692994
0.00659374
0.00626625
0.0060223
0.00595242
0.00620652
0.0071912
0.0088308
0.0105081
0.0117685
0.0124892
0.0126503
0.0123449
0.0117556
0.0110171
0.0101319
0.00913573
0.00805183
0.00691206
0.00574476
0.0045736
0.00343209
0.0024113
0.00163026
0.00124396
0.00096768
0.000865818
0.000833948
0.000478579
0.00335785
0.00619055
0.00438232
0.00661294
0.00823737
0.00903643
0.00932289
0.00930894
0.00908542
0.00880178
0.00855057
0.00834953
0.00820689
0.00814978
0.00825192
0.00864509
0.00952517
0.0108993
0.0123544
0.013416
0.0138499
0.0137744
0.0132488
0.0124208
0.011462
0.0104933
0.0095071
0.00847937
0.00741166
0.00632323
0.00524041
0.00419371
0.00322315
0.00238974
0.00174851
0.00135836
0.00107567
0.000943351
0.000981343
0.000520397
0.00286027
0.00300702
0.00341275
0.00729869
0.00818066
0.00890568
0.0092818
0.00951745
0.00965361
0.00969819
0.00971413
0.00976961
0.00989788
0.0101393
0.0105494
0.0111851
0.0120582
0.0129967
0.0136892
0.013906
0.013602
0.0128763
0.0118804
0.0107765
0.00969607
0.0086938
0.00774667
0.00682142
0.00591147
0.00503129
0.0042026
0.00344615
0.00278052
0.00222433
0.00178793
0.0014777
0.00124881
0.00111088
0.00130067
0.000624055
0.00264124
0.00796034
0.00835623
0.00862676
0.00895111
0.00929971
0.00962968
0.00991287
0.0101373
0.010385
0.0106825
0.0110434
0.0114684
0.0119287
0.0123436
0.0125623
0.0124519
0.0119736
0.0112029
0.0102811
0.00934745
0.00849624
0.00776367
0.00713683
0.00658591
0.00609141
0.00564492
0.00523699
0.00484831
0.00445022
0.00401539
0.00353519
0.00303358
0.00256282
0.00217026
0.00194911
0.00218224
0.000776539
0.00278226
0.00866146
0.00889625
0.00851185
0.00837285
0.00840096
0.00849547
0.0086062
0.00871075
0.00885927
0.00905536
0.00928644
0.00952801
0.00973837
0.00985732
0.00981996
0.00959828
0.00922222
0.00876454
0.00830191
0.00788559
0.00753542
0.00725055
0.00702216
0.00684121
0.0066996
0.00658611
0.00648093
0.00635264
0.00616028
0.00586317
0.00543938
0.00490654
0.00433076
0.00381661
0.00348903
0.0031559
0.000990534
0.00175048
0.00194191
0.0020714
0.00202189
0.00191456
0.00187972
0.00187458
0.00188307
0.00189917
0.00192173
0.00195152
0.00198145
0.00200974
0.00203481
0.00205439
0.00206565
0.0020657
0.00205296
0.00202886
0.0019977
0.00196503
0.00193547
0.00191147
0.00189347
0.00188072
0.0018719
0.0018655
0.00185988
0.00185301
0.0018424
0.00182537
0.00179965
0.00176443
0.00172123
0.00167441
0.00163092
0.00159717
0.00157063
0.00150793
0.00123027
)
;

boundaryField
{
    floor
    {
        type            compressible::alphatWallFunction;
        Prt             0.85;
        value           nonuniform List<scalar> 
29
(
0.000188913
9.89408e-05
0.000115412
0.000130992
0.000146411
0.000159252
0.000162657
0.000154962
0.000145175
0.000136199
0.00012835
0.000121523
0.000115588
0.000110381
0.000105703
0.000101378
9.70537e-05
9.22629e-05
8.59683e-05
7.71696e-05
7.71686e-05
7.86108e-05
7.7719e-05
7.89037e-05
0.000188911
9.89397e-05
9.6423e-05
9.52657e-05
0.000181577
)
;
    }
    ceiling
    {
        type            compressible::alphatWallFunction;
        Prt             0.85;
        value           nonuniform List<scalar> 
43
(
0.000244874
0.000269939
0.000286781
0.000280361
0.000266354
0.000261785
0.00026111
0.000262222
0.000264333
0.000267286
0.000271183
0.000275092
0.000278783
0.000282049
0.0002846
0.000286068
0.000286082
0.000284433
0.000281305
0.000277252
0.000272993
0.000269132
0.000265991
0.000263634
0.000261961
0.000260803
0.000259963
0.000259226
0.000258324
0.000256932
0.000254694
0.000251311
0.000246667
0.000240953
0.000234744
0.000228957
0.000224457
0.000220912
0.000212506
0.000174761
0.000387049
0.000405332
0.000377493
)
;
    }
    sWall
    {
        type            compressible::alphatWallFunction;
        Prt             0.85;
        value           uniform 0.000243992;
    }
    nWall
    {
        type            compressible::alphatWallFunction;
        Prt             0.85;
        value           nonuniform List<scalar> 6(5.08834e-05 6.39589e-05 6.60657e-05 0.000110643 0.000141201 0.000174536);
    }
    sideWalls
    {
        type            empty;
    }
    glass1
    {
        type            compressible::alphatWallFunction;
        Prt             0.85;
        value           nonuniform List<scalar> 9(0.000256347 0.000282649 0.000291602 0.000288607 0.000310194 0.000462153 0.00047481 0.000440991 0.000379421);
    }
    glass2
    {
        type            compressible::alphatWallFunction;
        Prt             0.85;
        value           nonuniform List<scalar> 2(7.25325e-05 8.82328e-05);
    }
    sun
    {
        type            compressible::alphatWallFunction;
        Prt             0.85;
        value           nonuniform List<scalar> 
14
(
0.000261487
0.000296531
0.000328376
0.0003346
0.00032042
0.000305865
0.000291324
0.000277427
0.000264236
0.000251701
0.000240392
0.000229443
0.000218031
0.000204876
)
;
    }
    heatsource1
    {
        type            compressible::alphatWallFunction;
        Prt             0.85;
        value           nonuniform List<scalar> 3(7.90266e-05 6.79827e-05 5.08825e-05);
    }
    heatsource2
    {
        type            compressible::alphatWallFunction;
        Prt             0.85;
        value           nonuniform List<scalar> 4(0.000194345 0.000174497 0.000174495 0.000181867);
    }
    Table_master
    {
        type            compressible::alphatWallFunction;
        Prt             0.85;
        value           nonuniform List<scalar> 9(0.000195001 0.000172749 0.000152421 0.0001347 0.000119343 0.000105797 9.35413e-05 8.33471e-05 7.94551e-05);
    }
    Table_slave
    {
        type            compressible::alphatWallFunction;
        Prt             0.85;
        value           nonuniform List<scalar> 9(0.000224551 0.000209158 0.000196222 0.000185406 0.000175569 0.000165797 0.000155528 0.000144312 0.000131387);
    }
    inlet
    {
        type            fixedValue;
        value           uniform 1.94e-05;
    }
    outlet
    {
        type            zeroGradient;
    }
}


// ************************************************************************* //
