// -*- C++ -*-
// File generated by PyFoam - sorry for the ugliness

FoamFile
{
 version 2.0;
 format ascii;
 class volScalarField;
 location "300";
 object T;
}

dimensions [ 0 0 0 1 0 0 0 ];

internalField nonuniform List<scalar> 459
(
  303.598
  303.338
  303.326
  303.322
  303.319
  303.315
  303.311
  303.306
  303.299
  303.289
  303.277
  303.264
  303.254
  303.246
  303.244
  303.31
  303.29
  303.283
  303.284
  303.286
  303.288
  303.291
  303.293
  303.295
  303.298
  303.3
  303.302
  303.304
  303.306
  303.307
  303.309
  303.311
  303.314
  303.329
  303.776
  303.381
  303.358
  303.362
  303.366
  303.367
  303.366
  303.362
  303.351
  303.332
  303.307
  303.28
  303.257
  303.241
  303.23
  303.225
  303.22
  303.309
  303.279
  303.272
  303.273
  303.275
  303.276
  303.277
  303.277
  303.277
  303.276
  303.276
  303.276
  303.276
  303.276
  303.276
  303.278
  303.282
  303.287
  303.313
  303.961
  303.431
  303.393
  303.404
  303.418
  303.43
  303.437
  303.437
  303.423
  303.391
  303.348
  303.303
  303.267
  303.241
  303.229
  303.224
  303.224
  303.259
  303.26
  303.265
  303.272
  303.278
  303.282
  303.281
  303.279
  303.278
  303.277
  303.276
  303.275
  303.273
  303.272
  303.271
  303.272
  303.273
  303.278
  303.306
  304.146
  303.493
  303.427
  303.443
  303.47
  303.497
  303.518
  303.527
  303.508
  303.459
  303.392
  303.325
  303.273
  303.239
  303.225
  303.222
  303.226
  303.234
  303.244
  303.257
  303.271
  303.284
  303.294
  303.301
  303.307
  303.312
  303.317
  303.321
  303.324
  303.326
  303.327
  303.328
  303.327
  303.307
  303.291
  303.282
  303.304
  304.325
  303.571
  303.466
  303.475
  303.51
  303.553
  303.594
  303.613
  303.586
  303.516
  303.422
  303.335
  303.271
  303.232
  303.217
  303.218
  303.227
  303.241
  303.257
  303.276
  303.294
  303.309
  303.322
  303.331
  303.339
  303.346
  303.351
  303.355
  303.357
  303.357
  303.355
  303.351
  303.344
  303.329
  303.308
  303.291
  303.3
  303.363
  303.404
  303.411
  304.486
  303.673
  303.536
  303.52
  303.549
  303.598
  303.659
  303.676
  303.629
  303.536
  303.426
  303.326
  303.255
  303.216
  303.205
  303.214
  303.233
  303.255
  303.28
  303.304
  303.325
  303.342
  303.355
  303.364
  303.372
  303.377
  303.382
  303.384
  303.385
  303.382
  303.377
  303.369
  303.359
  303.344
  303.324
  303.303
  303.3
  303.327
  303.341
  303.374
  304.631
  303.834
  303.697
  303.657
  303.662
  303.692
  303.737
  303.717
  303.632
  303.509
  303.381
  303.277
  303.211
  303.184
  303.189
  303.214
  303.247
  303.282
  303.314
  303.342
  303.363
  303.378
  303.389
  303.397
  303.403
  303.406
  303.409
  303.41
  303.408
  303.404
  303.396
  303.385
  303.373
  303.358
  303.34
  303.32
  303.31
  303.317
  303.326
  303.354
  304.844
  304.248
  304.097
  303.997
  303.937
  303.914
  303.849
  303.723
  303.557
  303.391
  303.256
  303.17
  303.135
  303.144
  303.179
  303.229
  303.281
  303.325
  303.361
  303.385
  303.401
  303.413
  303.42
  303.425
  303.429
  303.431
  303.432
  303.431
  303.428
  303.423
  303.416
  303.405
  303.393
  303.379
  303.365
  303.351
  303.346
  303.358
  303.376
  303.502
  305.148
  304.87
  304.61
  304.377
  304.18
  303.996
  303.739
  303.46
  303.227
  303.075
  303.007
  303.006
  303.052
  303.126
  303.204
  303.281
  303.343
  303.381
  303.406
  303.422
  303.433
  303.441
  303.446
  303.449
  303.451
  303.452
  303.452
  303.451
  303.449
  303.447
  303.446
  303.447
  303.45
  303.458
  303.473
  303.496
  303.528
  303.56
  303.582
  303.635
  296.615
  298.87
  300.204
  300.786
  301.251
  301.69
  302.084
  302.419
  302.689
  302.902
  303.074
  303.224
  303.312
  303.369
  303.406
  303.428
  303.442
  303.452
  303.459
  303.463
  303.467
  303.469
  303.471
  303.473
  303.474
  303.475
  303.477
  303.478
  303.481
  303.484
  303.489
  303.498
  303.512
  303.531
  303.554
  303.576
  303.593
  303.61
  297.27
  299.23
  300.465
  301.257
  301.806
  302.219
  302.549
  302.812
  303.014
  303.163
  303.27
  303.346
  303.395
  303.426
  303.446
  303.458
  303.467
  303.472
  303.477
  303.48
  303.483
  303.485
  303.488
  303.49
  303.492
  303.494
  303.496
  303.498
  303.5
  303.503
  303.507
  303.514
  303.523
  303.536
  303.552
  303.569
  303.565
  303.593
  299.7
  299.622
  299.618
  301.362
  302.141
  302.539
  302.795
  302.981
  303.118
  303.222
  303.299
  303.356
  303.396
  303.424
  303.442
  303.453
  303.46
  303.465
  303.469
  303.472
  303.475
  303.478
  303.481
  303.484
  303.487
  303.49
  303.493
  303.496
  303.499
  303.502
  303.504
  303.507
  303.511
  303.515
  303.521
  303.531
  303.54
  303.545
  303.546
  303.584
)
;

boundaryField
{
  floor
  {
    type wallHeatTransfer;
    Tinf uniform 305.2;
    alphaWall uniform 0.24;
    value nonuniform List<scalar> 29
(
  303.433
  303.678
  303.614
  303.585
  303.591
  303.602
  303.615
  303.631
  303.648
  303.665
  303.681
  303.697
  303.712
  303.726
  303.74
  303.753
  303.767
  303.782
  303.793
  303.829
  303.829
  303.738
  303.693
  303.667
  303.433
  303.678
  303.653
  303.471
  303.403
)
;
  }
  ceiling
  {
    type wallHeatTransfer;
    Tinf uniform 303.2;
    alphaWall uniform 0.24;
    value nonuniform List<scalar> 43
(
  299.947
  299.864
  299.852
  301.477
  302.209
  302.583
  302.823
  302.997
  303.124
  303.22
  303.291
  303.341
  303.376
  303.397
  303.41
  303.417
  303.421
  303.424
  303.426
  303.428
  303.431
  303.433
  303.436
  303.439
  303.443
  303.446
  303.449
  303.453
  303.457
  303.46
  303.464
  303.469
  303.473
  303.479
  303.486
  303.497
  303.506
  303.51
  303.509
  303.54
  305.058
  304.803
  297.647
)
;
  }
  sWall
  {
    type wallHeatTransfer;
    Tinf uniform 315.2;
    alphaWall uniform 0.36;
    value uniform 301.294;
  }
  nWall
  {
    type wallHeatTransfer;
    Tinf uniform 307.2;
    alphaWall uniform 0.36;
    value nonuniform List<scalar> 6
(
  304.123
  304.074
  304.001
  304.131
  304.109
  304.171
)
;
  }
  sideWalls
  {
    type empty;
  }
  glass1
  {
    type wallHeatTransfer;
    Tinf uniform 315.2;
    alphaWall uniform 4.3;
    value nonuniform List<scalar> 9
(
  311.607
  310.967
  310.56
  310.248
  309.987
  309.751
  309.572
  309.64
  309.862
)
;
  }
  glass2
  {
    type wallHeatTransfer;
    Tinf uniform 307.2;
    alphaWall uniform 4.3;
    value nonuniform List<scalar> 2
(
  305.805
  305.898
)
;
  }
  sun
  {
    type wallHeatTransfer;
    Tinf uniform 305.2;
    alphaWall uniform 0.24;
    value nonuniform List<scalar> 14
(
  303.772
  303.528
  303.514
  303.505
  303.496
  303.488
  303.479
  303.471
  303.461
  303.45
  303.439
  303.43
  303.426
  303.426
)
;
  }
  heatsource1
  {
    type fixedGradient;
    gradient uniform 0;
  }
  heatsource2
  {
    type fixedGradient;
    gradient uniform 0;
  }
  Table_master
  {
    type zeroGradient;
  }
  Table_slave
  {
    type zeroGradient;
  }
  inlet
  {
    type fixedValue;
    value uniform 293.15;
  }
  outlet
  {
    type zeroGradient;
  }
} 	// ************************************************************************* //

