// -*- C++ -*-
// File generated by PyFoam - sorry for the ugliness

FoamFile
{
 version 2.0;
 format ascii;
 class volVectorField;
 location "370";
 object U;
}

dimensions [ 0 1 -1 0 0 0 0 ];

internalField nonuniform List<vector> 459
(
  (0.0173764 0.0688713 0)
  (-0.134765 0.0226117 0)
  (-0.159509 0.0148165 0)
  (-0.185695 0.00888166 0)
  (-0.203205 0.00247998 0)
  (-0.210643 -0.00441358 0)
  (-0.205959 -0.0118944 0)
  (-0.188751 -0.0199683 0)
  (-0.159889 -0.0274024 0)
  (-0.122522 -0.0326562 0)
  (-0.0816242 -0.0344912 0)
  (-0.0427454 -0.0320726 0)
  (-0.00967411 -0.0238188 0)
  (0.0103017 -0.00607632 0)
  (0.0495103 0.0131215 0)
  (-0.106454 0.00684737 0)
  (0.0322436 -0.00384723 0)
  (0.0140849 -0.00928839 0)
  (0.0264789 -0.0119778 0)
  (0.0415384 -0.0111518 0)
  (0.0544108 -0.00863959 0)
  (0.062935 -0.005023 0)
  (0.0672937 -0.0029181 0)
  (0.0688913 -0.00215553 0)
  (0.0693527 -0.0018854 0)
  (0.0694541 -0.00169859 0)
  (0.0692657 -0.00147224 0)
  (0.0686197 -0.00110924 0)
  (0.0671486 -0.000378887 0)
  (0.0640168 0.0012576 0)
  (0.0575391 0.00471236 0)
  (0.0468299 0.0099137 0)
  (-0.000462764 0.0200113 0)
  (0.0925506 -0.000883809 0)
  (0.147386 0.140918 0)
  (-0.124476 0.0596543 0)
  (-0.130186 0.0458986 0)
  (-0.157211 0.034018 0)
  (-0.174937 0.0204274 0)
  (-0.183084 0.00477541 0)
  (-0.179493 -0.0131789 0)
  (-0.163951 -0.031971 0)
  (-0.137931 -0.0482315 0)
  (-0.104939 -0.0585851 0)
  (-0.0697554 -0.0609945 0)
  (-0.0369463 -0.0550585 0)
  (-0.00960294 -0.0408032 0)
  (0.011323 -0.0191307 0)
  (0.0301432 0.00481489 0)
  (0.0331198 0.0147988 0)
  (0.0245874 0.024378 0)
  (-0.12063 0.00225445 0)
  (0.0299245 -0.0228127 0)
  (0.029978 -0.0239465 0)
  (0.0410517 -0.0235926 0)
  (0.0527883 -0.0203403 0)
  (0.0621471 -0.0150572 0)
  (0.0669493 -0.00625959 0)
  (0.0680354 -0.000959453 0)
  (0.067938 0.00109619 0)
  (0.0680289 0.00189865 0)
  (0.0683 0.00240925 0)
  (0.0684926 0.00288341 0)
  (0.0685184 0.00355804 0)
  (0.0683304 0.00492421 0)
  (0.0673388 0.00812857 0)
  (0.0628699 0.0164209 0)
  (0.0544182 0.0254842 0)
  (0.00824459 0.0369916 0)
  (0.138545 0.0226876 0)
  (0.268253 0.211157 0)
  (-0.13397 0.0937818 0)
  (-0.0995321 0.073775 0)
  (-0.125742 0.0532957 0)
  (-0.142297 0.0309438 0)
  (-0.150604 0.00547721 0)
  (-0.147198 -0.0234206 0)
  (-0.131892 -0.0531015 0)
  (-0.10749 -0.0774893 0)
  (-0.0781155 -0.0914634 0)
  (-0.0483477 -0.0928018 0)
  (-0.0214533 -0.0821972 0)
  (0.000999654 -0.0611608 0)
  (0.0180038 -0.0343943 0)
  (0.030717 -0.00731124 0)
  (0.0362327 0.0159215 0)
  (0.0328127 0.047446 0)
  (-0.0459211 -0.021212 0)
  (0.0385167 -0.0366383 0)
  (0.0513051 -0.0384571 0)
  (0.0570846 -0.0346507 0)
  (0.0631767 -0.029169 0)
  (0.0686937 -0.0243425 0)
  (0.0707365 -0.0181568 0)
  (0.065599 -0.0118364 0)
  (0.0614668 -0.00852779 0)
  (0.0600089 -0.0067268 0)
  (0.0598169 -0.00557389 0)
  (0.0600474 -0.00469927 0)
  (0.0607392 -0.00380788 0)
  (0.0626074 -0.00239859 0)
  (0.0673579 0.00195842 0)
  (0.0680439 0.02164 0)
  (0.0623199 0.0370515 0)
  (0.0149011 0.0536607 0)
  (0.165043 0.0529444 0)
  (0.380265 0.267982 0)
  (-0.157591 0.12318 0)
  (-0.0664826 0.0980805 0)
  (-0.0910961 0.0707773 0)
  (-0.1042 0.0419942 0)
  (-0.111089 0.00803575 0)
  (-0.105526 -0.0322357 0)
  (-0.0889347 -0.0730718 0)
  (-0.0663564 -0.104444 0)
  (-0.0417848 -0.120571 0)
  (-0.0188912 -0.120035 0)
  (0.00127665 -0.104888 0)
  (0.0177224 -0.0794262 0)
  (0.0314001 -0.0494042 0)
  (0.0440605 -0.0187405 0)
  (0.0572819 0.00997354 0)
  (0.0739244 0.0370911 0)
  (0.101782 -0.0184885 0)
  (0.0988385 -0.0271939 0)
  (0.0889733 -0.0359303 0)
  (0.0783944 -0.0381452 0)
  (0.0712841 -0.034883 0)
  (0.0672059 -0.0295133 0)
  (0.0639422 -0.0228498 0)
  (0.064675 -0.013807 0)
  (0.0719184 -0.00956073 0)
  (0.0779671 -0.00731584 0)
  (0.0818791 -0.00600768 0)
  (0.0847077 -0.00498019 0)
  (0.0866843 -0.00383036 0)
  (0.0869567 -0.00214745 0)
  (0.0838017 0.00064117 0)
  (0.0748775 0.00513987 0)
  (0.0663302 0.0263761 0)
  (0.0666703 0.0452624 0)
  (0.0267382 0.0664092 0)
  (0.180879 0.0983637 0)
  (0.481087 0.311768 0)
  (-0.189539 0.14601 0)
  (-0.0323938 0.112963 0)
  (-0.0537206 0.0816972 0)
  (-0.0609803 0.0492184 0)
  (-0.0641036 0.00891291 0)
  (-0.0511647 -0.0423529 0)
  (-0.0330598 -0.0922577 0)
  (-0.0144113 -0.126928 0)
  (0.00279169 -0.142173 0)
  (0.0165228 -0.138046 0)
  (0.0273379 -0.119795 0)
  (0.0362186 -0.0923828 0)
  (0.0442322 -0.0610974 0)
  (0.0528022 -0.030626 0)
  (0.0638846 -0.00514736 0)
  (0.0789549 0.00957403 0)
  (0.0905032 -0.0042773 0)
  (0.0895259 -0.0164353 0)
  (0.0804164 -0.0247948 0)
  (0.0707934 -0.0280308 0)
  (0.0627766 -0.0271791 0)
  (0.0566117 -0.0238674 0)
  (0.0522593 -0.0184838 0)
  (0.0513365 -0.010461 0)
  (0.0537897 -0.00613393 0)
  (0.0567075 -0.00455027 0)
  (0.05939 -0.00390713 0)
  (0.062084 -0.00313244 0)
  (0.0647134 -0.00147958 0)
  (0.0670161 0.00182111 0)
  (0.067952 0.00727847 0)
  (0.0670415 0.015606 0)
  (0.0662014 0.0301761 0)
  (0.0731839 0.0460993 0)
  (0.0608481 0.0616761 0)
  (0.133804 0.0963701 0)
  (0.125745 0.0771785 0)
  (0.111276 0.0564335 0)
  (-0.138891 0.0581049 0)
  (0.558987 0.347654 0)
  (-0.223834 0.160182 0)
  (-0.00412726 0.112086 0)
  (-0.0150151 0.0849576 0)
  (-0.0142409 0.0536198 0)
  (-0.00943321 0.00835133 0)
  (0.0173694 -0.0588968 0)
  (0.0336283 -0.110296 0)
  (0.0449901 -0.141742 0)
  (0.0515529 -0.152784 0)
  (0.0541186 -0.145796 0)
  (0.0541554 -0.125307 0)
  (0.053053 -0.0967348 0)
  (0.0521979 -0.0655871 0)
  (0.0529989 -0.0366954 0)
  (0.0567267 -0.0142365 0)
  (0.0636403 -0.00232573 0)
  (0.0676149 -0.00531618 0)
  (0.0650886 -0.0127595 0)
  (0.058034 -0.0181026 0)
  (0.0499896 -0.0204704 0)
  (0.0425299 -0.0203527 0)
  (0.036313 -0.0184169 0)
  (0.031873 -0.0149775 0)
  (0.0300419 -0.010602 0)
  (0.0307611 -0.00821801 0)
  (0.0327128 -0.00755676 0)
  (0.035249 -0.00742783 0)
  (0.0382405 -0.00695936 0)
  (0.0416316 -0.00542649 0)
  (0.0453621 -0.00189923 0)
  (0.0497816 0.0045234 0)
  (0.0536564 0.0138053 0)
  (0.0580033 0.0259937 0)
  (0.0666045 0.0384343 0)
  (0.0672531 0.0452398 0)
  (0.091904 0.0617121 0)
  (0.0900522 0.0503582 0)
  (0.106573 0.0497716 0)
  (-0.140338 0.0866468 0)
  (0.606853 0.379126 0)
  (-0.244439 0.147378 0)
  (0.019769 0.0753967 0)
  (0.0326758 0.0690684 0)
  (0.0429104 0.0428526 0)
  (0.0697006 -0.0141455 0)
  (0.0942051 -0.0770061 0)
  (0.106076 -0.122246 0)
  (0.107589 -0.146777 0)
  (0.101402 -0.152038 0)
  (0.0902046 -0.141187 0)
  (0.0766704 -0.118727 0)
  (0.0631036 -0.0899892 0)
  (0.0513531 -0.0602345 0)
  (0.0429341 -0.0339668 0)
  (0.0386821 -0.0146567 0)
  (0.0380801 -0.00441047 0)
  (0.0375519 -0.00390736 0)
  (0.0343516 -0.00777192 0)
  (0.0287452 -0.0113907 0)
  (0.0221796 -0.0134606 0)
  (0.0157284 -0.0140016 0)
  (0.0101481 -0.0133601 0)
  (0.00611146 -0.0118877 0)
  (0.00424495 -0.0102071 0)
  (0.00445702 -0.00961034 0)
  (0.00592138 -0.00994671 0)
  (0.00807513 -0.0104657 0)
  (0.010728 -0.0105427 0)
  (0.0139311 -0.00963345 0)
  (0.0179551 -0.00698487 0)
  (0.0236683 -0.00143484 0)
  (0.0314584 0.00758327 0)
  (0.03951 0.0182722 0)
  (0.0492363 0.028594 0)
  (0.0552554 0.0350239 0)
  (0.0678632 0.0472034 0)
  (0.0729535 0.0536459 0)
  (0.117179 0.0720624 0)
  (-0.111423 0.140988 0)
  (0.698 0.381003 0)
  (-0.0670126 0.120169 0)
  (0.0819953 0.00534645 0)
  (0.129454 -0.0125019 0)
  (0.13978 -0.0377461 0)
  (0.171675 -0.0718048 0)
  (0.187457 -0.10409 0)
  (0.185223 -0.127345 0)
  (0.169133 -0.13779 0)
  (0.144152 -0.134842 0)
  (0.115089 -0.120283 0)
  (0.0857388 -0.0973178 0)
  (0.0589126 -0.0703851 0)
  (0.0365868 -0.0441692 0)
  (0.0204331 -0.0226334 0)
  (0.0108231 -0.00830037 0)
  (0.006401 -0.0013949 0)
  (0.00396174 -0.000832206 0)
  (0.00087364 -0.00322166 0)
  (-0.00368618 -0.00578171 0)
  (-0.00898414 -0.00752921 0)
  (-0.0142779 -0.00850716 0)
  (-0.0188725 -0.00901356 0)
  (-0.0221998 -0.00931592 0)
  (-0.0239564 -0.00974979 0)
  (-0.024346 -0.0106833 0)
  (-0.0238909 -0.0119324 0)
  (-0.0229945 -0.0130802 0)
  (-0.0218731 -0.0137746 0)
  (-0.0205558 -0.0137915 0)
  (-0.018763 -0.0128951 0)
  (-0.0157132 -0.0105865 0)
  (-0.0092817 -0.00582354 0)
  (0.00268247 0.00184483 0)
  (0.013075 0.00900363 0)
  (0.0206739 0.0127706 0)
  (0.0307695 0.0185568 0)
  (0.0392801 0.0222863 0)
  (0.11585 0.0757917 0)
  (-0.360549 0.207552 0)
  (0.820621 0.370941 0)
  (0.394342 0.258241 0)
  (0.401315 0.189902 0)
  (0.404412 0.119576 0)
  (0.386974 0.0636488 0)
  (0.351288 0.00678274 0)
  (0.307881 -0.0430656 0)
  (0.260631 -0.0767478 0)
  (0.209888 -0.0920787 0)
  (0.158292 -0.0915784 0)
  (0.109717 -0.0796861 0)
  (0.0665791 -0.0605412 0)
  (0.0306993 -0.038821 0)
  (0.00303087 -0.0191117 0)
  (-0.0146275 -0.00530436 0)
  (-0.0238366 0.00160037 0)
  (-0.0282188 0.00401007 0)
  (-0.0305349 0.00354581 0)
  (-0.0330125 0.00192357 0)
  (-0.0362123 0.000231848 0)
  (-0.040077 -0.00118332 0)
  (-0.044028 -0.00242551 0)
  (-0.0475945 -0.0036479 0)
  (-0.0504742 -0.00490497 0)
  (-0.052667 -0.00627843 0)
  (-0.0543733 -0.00784854 0)
  (-0.0558442 -0.00946271 0)
  (-0.0573299 -0.010874 0)
  (-0.0591648 -0.0118581 0)
  (-0.0618637 -0.0122264 0)
  (-0.0660853 -0.0115524 0)
  (-0.0724989 -0.00880483 0)
  (-0.0816992 -0.00209361 0)
  (-0.0926594 0.00918409 0)
  (-0.106384 0.0247528 0)
  (-0.129341 0.0459072 0)
  (-0.1609 0.0741935 0)
  (-0.201122 0.106786 0)
  (-0.266519 0.136955 0)
  (-0.526687 0.154334 0)
  (0.127779 0.0315662 0)
  (0.207811 0.0420191 0)
  (0.230228 0.00780499 0)
  (0.215727 -0.0242603 0)
  (0.192208 -0.0435749 0)
  (0.161332 -0.0530047 0)
  (0.122232 -0.0539753 0)
  (0.079236 -0.0477399 0)
  (0.0379664 -0.0361266 0)
  (0.000514624 -0.0200734 0)
  (-0.0274335 -0.00470114 0)
  (-0.0445075 0.00455414 0)
  (-0.0537703 0.00936242 0)
  (-0.0577716 0.0112515 0)
  (-0.0595502 0.0116655 0)
  (-0.0607528 0.0112615 0)
  (-0.0622148 0.0105943 0)
  (-0.0640801 0.00996469 0)
  (-0.0661518 0.00935822 0)
  (-0.0684219 0.00864565 0)
  (-0.0709467 0.00754863 0)
  (-0.0737372 0.00656305 0)
  (-0.0769153 0.00589695 0)
  (-0.0805849 0.00563986 0)
  (-0.0847444 0.00613692 0)
  (-0.0893071 0.00782047 0)
  (-0.094163 0.0110816 0)
  (-0.0992769 0.0158397 0)
  (-0.104795 0.0213844 0)
  (-0.110968 0.0259382 0)
  (-0.116873 0.0305665 0)
  (-0.121988 0.0373948 0)
  (-0.12619 0.048573 0)
  (-0.129143 0.0654081 0)
  (-0.128303 0.086555 0)
  (-0.119649 0.098803 0)
  (-0.106726 0.0610874 0)
  (-0.173032 -0.166715 0)
  (0.019079 0.138227 0)
  (0.0566892 0.0659848 0)
  (0.0564064 -0.00229352 0)
  (0.0509397 -0.0419276 0)
  (0.0451168 -0.0555106 0)
  (0.0265432 -0.0579402 0)
  (0.00124916 -0.0576426 0)
  (-0.0247301 -0.0571172 0)
  (-0.0471018 -0.0564303 0)
  (-0.0641182 -0.0564194 0)
  (-0.0740433 -0.0582622 0)
  (-0.0785441 -0.0605083 0)
  (-0.0803572 -0.0628469 0)
  (-0.0806226 -0.0652571 0)
  (-0.0802599 -0.0675872 0)
  (-0.0798185 -0.0700367 0)
  (-0.0795994 -0.0726527 0)
  (-0.0796968 -0.0753637 0)
  (-0.0801236 -0.0780983 0)
  (-0.0809157 -0.0807628 0)
  (-0.0822016 -0.0831661 0)
  (-0.0841472 -0.0856006 0)
  (-0.0867954 -0.0881694 0)
  (-0.09029 -0.0916588 0)
  (-0.0948257 -0.0961253 0)
  (-0.100381 -0.101147 0)
  (-0.106553 -0.105503 0)
  (-0.11258 -0.108118 0)
  (-0.117583 -0.107464 0)
  (-0.120914 -0.100978 0)
  (-0.121916 -0.088315 0)
  (-0.118976 -0.0693601 0)
  (-0.109747 -0.0446282 0)
  (-0.0917726 -0.0158931 0)
  (-0.06431 0.0118438 0)
  (-0.0305529 0.0235915 0)
  (0.0833058 -0.0761545 0)
  (-0.128514 -0.135269 0)
  (-0.0304019 -0.249925 0)
  (-0.304164 -0.047961 0)
  (-0.21803 0.176002 0)
  (-0.162347 0.162108 0)
  (-0.118905 0.170624 0)
  (-0.102273 0.190083 0)
  (-0.100305 0.194967 0)
  (-0.105779 0.19402 0)
  (-0.113157 0.197474 0)
  (-0.118271 0.203847 0)
  (-0.119625 0.211215 0)
  (-0.117904 0.2199 0)
  (-0.114357 0.229249 0)
  (-0.110039 0.236642 0)
  (-0.105843 0.242191 0)
  (-0.102185 0.246424 0)
  (-0.0992277 0.249801 0)
  (-0.0969945 0.252792 0)
  (-0.0954915 0.255612 0)
  (-0.0947073 0.258289 0)
  (-0.0946382 0.260804 0)
  (-0.0952797 0.263087 0)
  (-0.0965566 0.265015 0)
  (-0.0983793 0.266944 0)
  (-0.100606 0.269144 0)
  (-0.103099 0.273034 0)
  (-0.105674 0.278886 0)
  (-0.108104 0.286329 0)
  (-0.110079 0.293872 0)
  (-0.111263 0.300499 0)
  (-0.111227 0.304872 0)
  (-0.109136 0.304955 0)
  (-0.103661 0.301056 0)
  (-0.0930013 0.294097 0)
  (-0.0754571 0.286066 0)
  (-0.0512213 0.280301 0)
  (-0.0228135 0.281073 0)
  (0.0170068 0.28922 0)
  (0.1255 0.347832 0)
  (-0.281549 0.350827 0)
)
;

boundaryField
{
  floor
  {
    type noSlip;
  }
  ceiling
  {
    type noSlip;
  }
  sWall
  {
    type noSlip;
  }
  nWall
  {
    type noSlip;
  }
  sideWalls
  {
    type empty;
  }
  glass1
  {
    type noSlip;
  }
  glass2
  {
    type noSlip;
  }
  sun
  {
    type noSlip;
  }
  heatsource1
  {
    type noSlip;
  }
  heatsource2
  {
    type noSlip;
  }
  Table_master
  {
    type noSlip;
  }
  Table_slave
  {
    type noSlip;
  }
  inlet
  {
    type fixedValue;
    value uniform (0.277164 -0.114805 0);
  }
  outlet
  {
    type zeroGradient;
  }
} 	// ************************************************************************* //

