/*--------------------------------*- C++ -*----------------------------------*\
  =========                 |
  \\      /  F ield         | OpenFOAM: The Open Source CFD Toolbox
   \\    /   O peration     | Website:  https://openfoam.org
    \\  /    A nd           | Version:  6
     \\/     M anipulation  |
\*---------------------------------------------------------------------------*/
FoamFile
{
    version     2.0;
    format      ascii;
    class       volScalarField;
    location    "340";
    object      nut;
}
// * * * * * * * * * * * * * * * * * * * * * * * * * * * * * * * * * * * * * //

dimensions      [0 2 -1 0 0 0 0];

internalField   nonuniform List<scalar> 
459
(
0.00101095
0.00125001
0.00127557
0.00122949
0.00117444
0.00112302
0.00107607
0.00103347
0.000994284
0.000956717
0.000919165
0.000879848
0.000836289
0.00078371
0.000722662
0.000547313
0.00071849
0.000758825
0.000759043
0.000730901
0.000696424
0.000653455
0.000611486
0.000574026
0.000541196
0.000512406
0.000486983
0.000464201
0.000443706
0.000424426
0.00040506
0.000384483
0.000353237
0.00034119
0.001196
0.00370242
0.00316111
0.00295641
0.00279297
0.00267174
0.00258845
0.00250599
0.00240155
0.00227231
0.00211085
0.00190806
0.00165758
0.0013555
0.00103094
0.000707835
0.000630865
0.000839209
0.00255852
0.00216697
0.00223466
0.00235246
0.00230892
0.0017823
0.00151298
0.00132878
0.00119215
0.00108681
0.00100387
0.000938626
0.000870091
0.000792849
0.000719566
0.000703884
0.000643577
0.000426864
0.00125126
0.00409806
0.00299086
0.00295965
0.00290733
0.00290937
0.00297552
0.00304525
0.00305863
0.00298751
0.0028218
0.00256413
0.00222804
0.0018355
0.00142694
0.00104968
0.000642124
0.000837423
0.00244128
0.00224396
0.00252053
0.00283606
0.00276421
0.000858702
0.000759962
0.000678215
0.00061104
0.000555687
0.00050982
0.000471717
0.00044148
0.000419674
0.000471383
0.000620316
0.00078722
0.000489125
0.00126447
0.00374095
0.0025443
0.00294921
0.00302633
0.00314277
0.00335883
0.00351244
0.00354539
0.0034575
0.00326104
0.00297249
0.00261263
0.00220612
0.00178117
0.00137038
0.000927808
0.000658958
0.00127254
0.00177496
0.00252544
0.00324708
0.00372518
0.00355058
0.000936359
0.000860133
0.000799748
0.000747218
0.000697875
0.000648944
0.000598495
0.000544714
0.000483304
0.000459864
0.000583451
0.000944425
0.000568202
0.00128633
0.00311445
0.00222401
0.00309563
0.00334937
0.00360447
0.00390717
0.00395992
0.0039096
0.00377928
0.00357184
0.00329436
0.00296455
0.00260591
0.00224262
0.00191207
0.00164837
0.0017649
0.00242887
0.00332703
0.00414516
0.0047359
0.00505965
0.00505089
0.00433205
0.00390038
0.00347213
0.00305341
0.00263595
0.00221677
0.00179401
0.00136886
0.000941303
0.000648177
0.000632763
0.000947223
0.000807539
0.000629622
0.000684868
0.000999618
0.00129352
0.00267522
0.00206573
0.00321729
0.00371965
0.00403093
0.00432427
0.00433033
0.00425281
0.00413542
0.00397414
0.00376179
0.00352184
0.00328351
0.00308371
0.00299683
0.00311296
0.00374796
0.00458127
0.00529135
0.00579334
0.00606809
0.00614049
0.00603047
0.00569866
0.00523214
0.00467179
0.00406857
0.00344915
0.00282851
0.00221601
0.00162218
0.00113378
0.000869275
0.000834704
0.000961477
0.000942161
0.00100525
0.0014821
0.0013302
0.00129574
0.00238175
0.00181403
0.00338164
0.00414183
0.00429082
0.00453484
0.00456614
0.00453297
0.00448557
0.00442225
0.00434531
0.00427225
0.00422844
0.00427616
0.00449052
0.00494107
0.00565841
0.00625474
0.0066307
0.00679456
0.00676802
0.0065988
0.00631334
0.00589312
0.00537546
0.00478992
0.00416347
0.00352526
0.00290642
0.00234233
0.001875
0.00155709
0.00141177
0.00136102
0.00130598
0.00112843
0.00141736
0.00268902
0.00181214
0.00129097
0.00206199
0.00139714
0.00345356
0.00471661
0.00468728
0.00466464
0.00461034
0.00460918
0.00463889
0.00468205
0.00474141
0.00483298
0.00498325
0.00522996
0.00562057
0.00612742
0.00664195
0.00694835
0.00701849
0.00688671
0.00658214
0.00615239
0.00568366
0.00521025
0.00473239
0.00424197
0.00374896
0.00328246
0.00288102
0.00258143
0.00240601
0.00234715
0.00234494
0.00228544
0.00210794
0.00168059
0.00195635
0.00488468
0.00250552
0.00137393
0.00112028
0.000975536
0.00322942
0.00525858
0.00526012
0.00509661
0.00503966
0.00507864
0.00514966
0.00523361
0.00533473
0.00546571
0.00564205
0.00587697
0.00616965
0.0064685
0.00667184
0.00668031
0.0064808
0.00611548
0.0056696
0.00522153
0.00481257
0.0044589
0.00415732
0.00390127
0.00369692
0.0035603
0.00350716
0.00354305
0.00365458
0.00379978
0.00389992
0.00385716
0.00361654
0.00308232
0.00317203
0.00657915
0.00282569
0.000785248
0.0027761
0.00559815
0.00587958
0.00596411
0.00609254
0.0062222
0.00632697
0.00640784
0.00647413
0.00653511
0.0065971
0.0066607
0.00671565
0.00673473
0.00668197
0.00654015
0.00632763
0.00607967
0.00583017
0.00560127
0.00540451
0.00524469
0.0051251
0.00505089
0.0050302
0.00507153
0.00517938
0.00534868
0.00555804
0.00576203
0.00588744
0.00583898
0.00558182
0.00507731
0.00497024
0.00691454
0.00240258
0.00217642
0.0062506
0.00666063
0.00672116
0.00689517
0.00709971
0.0072619
0.00736858
0.00743016
0.00745943
0.00746609
0.00745672
0.00743591
0.00740612
0.00736607
0.00731009
0.00723131
0.00713005
0.00701525
0.00689785
0.00678544
0.00668354
0.00659815
0.00653692
0.00650853
0.00652199
0.00658525
0.00670309
0.00687362
0.00708217
0.00729132
0.00742773
0.00737488
0.00706357
0.00651109
0.00599008
0.0054426
0.00201403
0.00131152
0.00139175
0.00160289
0.00173132
0.00176217
0.00177338
0.00178123
0.00178728
0.00179095
0.00179267
0.00179323
0.0017933
0.00179347
0.00179412
0.00179533
0.00179662
0.00179687
0.0017948
0.00178996
0.00178296
0.00177488
0.00176674
0.00175936
0.00175342
0.00174947
0.00174806
0.00174972
0.00175486
0.00176372
0.00177606
0.0017908
0.0018055
0.00181553
0.00181434
0.00180018
0.00178237
0.00179294
0.00184893
0.0018866
0.00168934
)
;

boundaryField
{
    floor
    {
        type            nutkWallFunction;
        Cmu             0.09;
        kappa           0.41;
        E               9.8;
        value           nonuniform List<scalar> 
29
(
8.75099e-05
6.57495e-05
8.69978e-05
9.19118e-05
9.19388e-05
8.85141e-05
8.42971e-05
7.90064e-05
7.37984e-05
6.91134e-05
6.49769e-05
6.13241e-05
5.80774e-05
5.51502e-05
5.25017e-05
4.9996e-05
4.74648e-05
4.47585e-05
4.06132e-05
3.90018e-05
3.90017e-05
5.0311e-05
5.83486e-05
6.83783e-05
8.75099e-05
6.57494e-05
0.000101613
0.000101401
7.96878e-05
)
;
    }
    ceiling
    {
        type            nutkWallFunction;
        Cmu             0.09;
        kappa           0.41;
        E               9.8;
        value           nonuniform List<scalar> 
43
(
0.000156775
0.000165898
0.00018964
0.000203912
0.000207323
0.000208561
0.000209429
0.000210096
0.000210501
0.000210692
0.000210753
0.000210762
0.00021078
0.000210852
0.000210987
0.000211129
0.000211156
0.000210928
0.000210396
0.000209623
0.000208731
0.000207832
0.000207017
0.00020636
0.000205923
0.000205768
0.00020595
0.000206518
0.000207496
0.000208857
0.000210483
0.000212102
0.000213206
0.000213074
0.000211514
0.000209549
0.000210714
0.000216876
0.000221012
0.000199258
0.000163818
0.00013472
0.000252525
)
;
    }
    sWall
    {
        type            nutkWallFunction;
        Cmu             0.09;
        kappa           0.41;
        E               9.8;
        value           uniform 0.000156777;
    }
    nWall
    {
        type            nutkWallFunction;
        Cmu             0.09;
        kappa           0.41;
        E               9.8;
        value           nonuniform List<scalar> 6(0.00012067 0.000158903 0.000212826 0.000276829 0.000234931 0.000199257);
    }
    sideWalls
    {
        type            empty;
    }
    glass1
    {
        type            nutkWallFunction;
        Cmu             0.09;
        kappa           0.41;
        E               9.8;
        value           nonuniform List<scalar> 9(0.000121988 0.0001435 0.000149848 0.000151357 0.000153854 0.000154668 0.000154913 0.000154361 0.000163811);
    }
    glass2
    {
        type            nutkWallFunction;
        Cmu             0.09;
        kappa           0.41;
        E               9.8;
        value           nonuniform List<scalar> 2(0.000287697 0.000321535);
    }
    sun
    {
        type            nutkWallFunction;
        Cmu             0.09;
        kappa           0.41;
        E               9.8;
        value           nonuniform List<scalar> 
14
(
0.000121993
0.000149715
0.000152643
0.000147362
0.000141023
0.000135072
0.000129611
0.000124633
0.000120033
0.000115603
0.000111156
0.000106476
0.000101263
9.49283e-05
)
;
    }
    heatsource1
    {
        type            nutkWallFunction;
        Cmu             0.09;
        kappa           0.41;
        E               9.8;
        value           nonuniform List<scalar> 3(7.6046e-05 8.28726e-05 0.000120676);
    }
    heatsource2
    {
        type            nutkWallFunction;
        Cmu             0.09;
        kappa           0.41;
        E               9.8;
        value           nonuniform List<scalar> 4(8.56953e-05 7.62071e-05 7.62071e-05 7.7603e-05);
    }
    Table_master
    {
        type            nutkWallFunction;
        Cmu             0.09;
        kappa           0.41;
        E               9.8;
        value           nonuniform List<scalar> 9(0.000103953 9.20496e-05 8.20566e-05 7.37368e-05 6.67978e-05 6.09837e-05 5.61044e-05 5.21974e-05 4.9359e-05);
    }
    Table_slave
    {
        type            nutkWallFunction;
        Cmu             0.09;
        kappa           0.41;
        E               9.8;
        value           nonuniform List<scalar> 9(0.000113202 0.000104124 9.68664e-05 9.05001e-05 8.44715e-05 7.84426e-05 7.2169e-05 6.54096e-05 5.75896e-05);
    }
    inlet
    {
        type            calculated;
        value           uniform 0.000100623;
    }
    outlet
    {
        type            calculated;
        value           nonuniform List<scalar> 2(0.00131152 0.00139175);
    }
}


// ************************************************************************* //
