// -*- C++ -*-
// File generated by PyFoam - sorry for the ugliness

FoamFile
{
 version 2.0;
 format ascii;
 class volVectorField;
 location "100";
 object U;
}

dimensions [ 0 1 -1 0 0 0 0 ];

internalField nonuniform List<vector> 459
(
  (0.103436 0.0671336 0)
  (-0.137196 0.000463845 0)
  (-0.113879 0.00392806 0)
  (-0.124756 0.00556185 0)
  (-0.135961 0.00504798 0)
  (-0.145975 0.00358633 0)
  (-0.153608 0.00151594 0)
  (-0.157965 -0.00107972 0)
  (-0.158222 -0.00420797 0)
  (-0.153525 -0.00798775 0)
  (-0.142775 -0.0124918 0)
  (-0.124571 -0.0178294 0)
  (-0.0985766 -0.0247199 0)
  (-0.0714887 -0.0345438 0)
  (-0.0679895 -0.0457852 0)
  (0.0265605 0.00971095 0)
  (-0.0260478 -0.00964228 0)
  (-0.0143251 -0.0137023 0)
  (0.00226785 -0.00998417 0)
  (0.0104339 -0.00434557 0)
  (0.0101617 0.00156313 0)
  (0.00229125 0.0023347 0)
  (-0.00192436 -0.00185948 0)
  (0.00101631 -0.00255118 0)
  (0.00415618 -0.00211707 0)
  (0.00690999 -0.00179387 0)
  (0.00963809 -0.00158053 0)
  (0.012193 -0.000641605 0)
  (0.0114228 0.00160788 0)
  (0.0066085 0.00173625 0)
  (0.0123755 -0.00682749 0)
  (0.0194135 -0.0185886 0)
  (0.0353593 -0.0129125 0)
  (-0.0135002 0.0118521 0)
  (0.307314 0.147029 0)
  (-0.161746 0.0152217 0)
  (-0.105015 0.0156826 0)
  (-0.122017 0.0177085 0)
  (-0.134686 0.0168552 0)
  (-0.145567 0.0141397 0)
  (-0.153955 0.0100456 0)
  (-0.15923 0.00470275 0)
  (-0.160689 -0.00190275 0)
  (-0.157683 -0.00980559 0)
  (-0.149601 -0.0188189 0)
  (-0.135741 -0.0287235 0)
  (-0.116069 -0.039941 0)
  (-0.0925806 -0.0534266 0)
  (-0.0695271 -0.067306 0)
  (-0.0489587 -0.0733724 0)
  (0.0384495 0.00897404 0)
  (0.119551 0.0114367 0)
  (0.0289436 0.00465482 0)
  (-0.0017267 -0.00354009 0)
  (-0.00770136 -0.00618269 0)
  (-0.00595981 -0.0031496 0)
  (0.0053697 0.00951301 0)
  (0.00269612 0.00871417 0)
  (-0.00235958 -0.000544746 0)
  (-0.00200453 -0.00177187 0)
  (-0.00170762 -0.00140403 0)
  (-0.00140618 -0.00177605 0)
  (-0.000741007 -0.00256408 0)
  (0.000631335 -0.00167737 0)
  (-0.000549345 0.0019428 0)
  (-0.00716926 0.0027077 0)
  (0.0106808 -0.0117425 0)
  (0.00967373 -0.0204506 0)
  (0.0242942 -0.00899056 0)
  (-0.0783401 0.0381256 0)
  (0.475857 0.224858 0)
  (-0.207307 0.0421321 0)
  (-0.0884187 0.0334236 0)
  (-0.113539 0.0311812 0)
  (-0.127155 0.0282656 0)
  (-0.138738 0.0232558 0)
  (-0.148036 0.0162983 0)
  (-0.154638 0.00749448 0)
  (-0.157975 -0.00308253 0)
  (-0.157378 -0.01527 0)
  (-0.152989 -0.0288186 0)
  (-0.144963 -0.0431352 0)
  (-0.134053 -0.0578327 0)
  (-0.121612 -0.0720951 0)
  (-0.109412 -0.0826407 0)
  (-0.101092 -0.083544 0)
  (-0.105611 -0.0729711 0)
  (0.0378543 0.0253698 0)
  (-0.0546975 0.012128 0)
  (-0.0550924 0.00452739 0)
  (-0.0539762 -0.00604591 0)
  (-0.0500681 -0.012987 0)
  (-0.0412813 -0.0143308 0)
  (0.00989305 0.00447896 0)
  (-0.00357766 -0.00724762 0)
  (-0.00699623 -0.00822529 0)
  (-0.00978365 -0.00818932 0)
  (-0.0126231 -0.00803958 0)
  (-0.015655 -0.0069957 0)
  (-0.0195285 -0.00426135 0)
  (-0.024718 -0.000659545 0)
  (-0.0261577 -2.83912e-05 0)
  (0.0164554 -0.0120052 0)
  (-0.0115498 0.00053688 0)
  (-0.0538637 0.0129613 0)
  (-0.154395 0.024998 0)
  (0.611395 0.289655 0)
  (-0.253023 0.0746285 0)
  (-0.0670074 0.0531257 0)
  (-0.100862 0.0458099 0)
  (-0.114547 0.0408514 0)
  (-0.125654 0.0339616 0)
  (-0.134876 0.0248322 0)
  (-0.141913 0.0133808 0)
  (-0.146326 -0.000329472 0)
  (-0.14732 -0.0158146 0)
  (-0.145773 -0.0321461 0)
  (-0.142889 -0.0481816 0)
  (-0.140262 -0.0629245 0)
  (-0.139666 -0.0748484 0)
  (-0.143313 -0.0805756 0)
  (-0.15511 -0.0737065 0)
  (-0.174852 -0.0424974 0)
  (-0.170134 0.0250098 0)
  (-0.123261 0.0230561 0)
  (-0.121778 0.0116152 0)
  (-0.112336 0.000439827 0)
  (-0.110656 -0.00965417 0)
  (-0.112778 -0.0169953 0)
  (-0.116557 -0.0199473 0)
  (-0.112693 -0.0136722 0)
  (-0.0987264 -0.0136045 0)
  (-0.0832977 -0.015946 0)
  (-0.0649246 -0.0190999 0)
  (-0.0435585 -0.0228501 0)
  (-0.0206954 -0.0267687 0)
  (0.0103811 -0.0290331 0)
  (0.03586 -0.0264757 0)
  (0.0589781 -0.0228248 0)
  (0.0682452 -0.0161585 0)
  (0.0665109 0.00500823 0)
  (0.0576331 0.0181186 0)
  (-0.0393739 0.0204444 0)
  (0.718549 0.34329 0)
  (-0.292111 0.109428 0)
  (-0.0445496 0.0712292 0)
  (-0.0843061 0.0593847 0)
  (-0.0972742 0.0522062 0)
  (-0.106242 0.0434526 0)
  (-0.11348 0.0324427 0)
  (-0.118859 0.0188498 0)
  (-0.122 0.00266787 0)
  (-0.122115 -0.0152869 0)
  (-0.120511 -0.0330006 0)
  (-0.119053 -0.0487435 0)
  (-0.119365 -0.0616682 0)
  (-0.122644 -0.0710711 0)
  (-0.129559 -0.0757718 0)
  (-0.139565 -0.073636 0)
  (-0.147872 -0.0601068 0)
  (-0.147424 -0.0306686 0)
  (-0.135687 -0.00598275 0)
  (-0.120794 0.00112879 0)
  (-0.109254 -0.00320102 0)
  (-0.103713 -0.00947148 0)
  (-0.101934 -0.0149993 0)
  (-0.101079 -0.0177335 0)
  (-0.097264 -0.0169092 0)
  (-0.0895708 -0.019058 0)
  (-0.079503 -0.0229949 0)
  (-0.0672105 -0.028018 0)
  (-0.0529282 -0.0334298 0)
  (-0.0374332 -0.038293 0)
  (-0.0209805 -0.0403211 0)
  (-0.00387023 -0.037734 0)
  (0.012854 -0.0306006 0)
  (0.0268852 -0.0195354 0)
  (0.0463274 0.00192735 0)
  (0.0696922 0.0214366 0)
  (0.0680866 0.0357968 0)
  (0.0982574 0.0400681 0)
  (0.120001 0.0589475 0)
  (-0.3934 -0.0260247 0)
  (0.788239 0.391532 0)
  (-0.324371 0.141457 0)
  (-0.0275807 0.0817519 0)
  (-0.0625215 0.0711483 0)
  (-0.0748967 0.0614908 0)
  (-0.080926 0.0501957 0)
  (-0.0845238 0.0372349 0)
  (-0.0863205 0.021808 0)
  (-0.0860254 0.00346281 0)
  (-0.0824652 -0.0165935 0)
  (-0.0791303 -0.0347067 0)
  (-0.077481 -0.0488622 0)
  (-0.078672 -0.058901 0)
  (-0.0831543 -0.0648773 0)
  (-0.0906553 -0.0661843 0)
  (-0.0996175 -0.061386 0)
  (-0.106185 -0.0491732 0)
  (-0.106511 -0.0321269 0)
  (-0.100398 -0.0176481 0)
  (-0.0916888 -0.0110593 0)
  (-0.0846407 -0.0108527 0)
  (-0.0808827 -0.0135514 0)
  (-0.0797604 -0.0169702 0)
  (-0.0796852 -0.0196918 0)
  (-0.0788248 -0.0218549 0)
  (-0.0765299 -0.0256631 0)
  (-0.0730639 -0.0311139 0)
  (-0.068651 -0.0374801 0)
  (-0.0636906 -0.0437415 0)
  (-0.0587797 -0.0486903 0)
  (-0.054228 -0.0507892 0)
  (-0.0498071 -0.0488907 0)
  (-0.0449596 -0.0429658 0)
  (-0.0381307 -0.0336441 0)
  (-0.0247075 -0.0213213 0)
  (0.00693482 -0.00898273 0)
  (0.0384593 -0.00390207 0)
  (0.0865374 0.0183225 0)
  (0.132742 0.0649397 0)
  (-0.0448328 0.0771507 0)
  (0.808446 0.436212 0)
  (-0.339625 0.144956 0)
  (-0.010266 0.0608212 0)
  (-0.0202312 0.0804494 0)
  (-0.0378078 0.0718988 0)
  (-0.0441805 0.0531733 0)
  (-0.0437672 0.0366727 0)
  (-0.0407339 0.019388 0)
  (-0.0343875 -0.00120894 0)
  (-0.026366 -0.0224211 0)
  (-0.0222535 -0.0387082 0)
  (-0.021515 -0.0495382 0)
  (-0.0243188 -0.0559512 0)
  (-0.0304454 -0.0588934 0)
  (-0.0390678 -0.0584505 0)
  (-0.0484253 -0.0537988 0)
  (-0.0557801 -0.044427 0)
  (-0.0587306 -0.0325959 0)
  (-0.0572877 -0.0223135 0)
  (-0.0537295 -0.0163517 0)
  (-0.0505875 -0.0143987 0)
  (-0.0491663 -0.0148346 0)
  (-0.049565 -0.0163795 0)
  (-0.0512651 -0.0182955 0)
  (-0.0536646 -0.0208449 0)
  (-0.056642 -0.0249128 0)
  (-0.0603986 -0.0305047 0)
  (-0.0652642 -0.0367675 0)
  (-0.0717519 -0.0424138 0)
  (-0.0804304 -0.0463512 0)
  (-0.0913539 -0.0477292 0)
  (-0.103619 -0.0462152 0)
  (-0.115368 -0.0423452 0)
  (-0.124402 -0.037674 0)
  (-0.128361 -0.0351699 0)
  (-0.125545 -0.0394633 0)
  (-0.118106 -0.0525223 0)
  (-0.102374 -0.0588563 0)
  (0.0713768 0.0253216 0)
  (-0.113321 0.180852 0)
  (0.910271 0.460128 0)
  (-0.142333 0.126173 0)
  (0.0645615 0.00215037 0)
  (0.0954717 0.0458819 0)
  (0.0587047 0.0568409 0)
  (0.0355503 0.0360381 0)
  (0.0326168 0.0166284 0)
  (0.0357478 -0.000481347 0)
  (0.0457638 -0.01789 0)
  (0.0512334 -0.0319648 0)
  (0.0510455 -0.0420235 0)
  (0.0471673 -0.0480802 0)
  (0.0404847 -0.0507716 0)
  (0.0315007 -0.0508673 0)
  (0.0208164 -0.04886 0)
  (0.00960995 -0.0446577 0)
  (-0.000271526 -0.037909 0)
  (-0.00666535 -0.0297842 0)
  (-0.00950726 -0.0225723 0)
  (-0.0102994 -0.0176618 0)
  (-0.0106282 -0.0151411 0)
  (-0.0115269 -0.0143001 0)
  (-0.013393 -0.0144027 0)
  (-0.0163103 -0.0149909 0)
  (-0.0204535 -0.0161706 0)
  (-0.0264218 -0.0183708 0)
  (-0.0350356 -0.021593 0)
  (-0.0471988 -0.0249242 0)
  (-0.0636182 -0.0267546 0)
  (-0.0855054 -0.026147 0)
  (-0.113746 -0.0231495 0)
  (-0.14759 -0.0185534 0)
  (-0.183708 -0.0133702 0)
  (-0.21986 -0.00954662 0)
  (-0.254997 -0.00964588 0)
  (-0.286853 -0.0155783 0)
  (-0.310408 -0.0261052 0)
  (-0.329384 -0.0324104 0)
  (-0.380711 -0.0172403 0)
  (-0.597513 0.0321133 0)
  (1.04902 0.427343 0)
  (0.501851 0.276583 0)
  (0.466774 0.207402 0)
  (0.422138 0.186329 0)
  (0.322842 0.151666 0)
  (0.253226 0.105333 0)
  (0.217434 0.0642356 0)
  (0.196769 0.0318251 0)
  (0.17833 0.00561812 0)
  (0.158441 -0.0147337 0)
  (0.140602 -0.0283458 0)
  (0.124588 -0.03604 0)
  (0.109758 -0.0391982 0)
  (0.0956756 -0.0391276 0)
  (0.0821223 -0.0368573 0)
  (0.069205 -0.0331284 0)
  (0.0575638 -0.0284871 0)
  (0.0481908 -0.0235093 0)
  (0.0414282 -0.0189847 0)
  (0.0366963 -0.0155799 0)
  (0.0330729 -0.0134565 0)
  (0.0298023 -0.0123457 0)
  (0.0264547 -0.0118375 0)
  (0.022807 -0.0115669 0)
  (0.0186137 -0.0113753 0)
  (0.0133808 -0.0113076 0)
  (0.00642258 -0.0113696 0)
  (-0.00358578 -0.011084 0)
  (-0.0155682 -0.00918382 0)
  (-0.0284141 -0.00501191 0)
  (-0.0403491 0.00116256 0)
  (-0.0509381 0.0080744 0)
  (-0.0624518 0.0139949 0)
  (-0.0761408 0.0174294 0)
  (-0.0917495 0.0155746 0)
  (-0.109217 0.00366338 0)
  (-0.126145 -0.0240166 0)
  (-0.123215 -0.074125 0)
  (-0.147294 -0.155321 0)
  (-0.534182 -0.262486 0)
  (-0.739307 0.149412 0)
  (0.186827 0.187595 0)
  (0.198201 0.151295 0)
  (0.196697 0.109653 0)
  (0.206041 0.0717358 0)
  (0.210311 0.0405183 0)
  (0.207175 0.0169418 0)
  (0.198806 3.69126e-05 0)
  (0.186944 -0.0116781 0)
  (0.173356 -0.0190455 0)
  (0.159094 -0.0228429 0)
  (0.144977 -0.0238329 0)
  (0.13157 -0.0227735 0)
  (0.119189 -0.0204075 0)
  (0.108034 -0.0174411 0)
  (0.0983041 -0.0144937 0)
  (0.090107 -0.0120363 0)
  (0.0832964 -0.010319 0)
  (0.0775216 -0.00933417 0)
  (0.0724111 -0.00887838 0)
  (0.0677043 -0.00867572 0)
  (0.063262 -0.00845901 0)
  (0.058998 -0.0080185 0)
  (0.0547905 -0.00721461 0)
  (0.0504805 -0.0059729 0)
  (0.045765 -0.004343 0)
  (0.0407569 -0.00216878 0)
  (0.0364538 0.000960294 0)
  (0.032985 0.00513011 0)
  (0.0306834 0.0104392 0)
  (0.0300582 0.0163873 0)
  (0.0308423 0.0213908 0)
  (0.0326663 0.0235441 0)
  (0.0350676 0.0220652 0)
  (0.0405512 0.0176362 0)
  (0.0622036 0.00257647 0)
  (0.120275 -0.0723429 0)
  (-0.154746 -0.222266 0)
  (-0.405009 0.190542 0)
  (0.16868 0.118985 0)
  (0.109633 0.0902822 0)
  (0.134974 0.0753296 0)
  (0.168507 0.0529146 0)
  (0.189774 0.0309906 0)
  (0.198781 0.0141115 0)
  (0.199553 0.00255231 0)
  (0.195004 -0.00491097 0)
  (0.187046 -0.00930606 0)
  (0.177204 -0.01132 0)
  (0.166672 -0.0114674 0)
  (0.156367 -0.0101996 0)
  (0.146912 -0.00794127 0)
  (0.138624 -0.00511152 0)
  (0.131547 -0.00211263 0)
  (0.125514 0.00072421 0)
  (0.120248 0.00319106 0)
  (0.115467 0.00521327 0)
  (0.11097 0.00682543 0)
  (0.106668 0.00813706 0)
  (0.102579 0.00931047 0)
  (0.0987966 0.0105398 0)
  (0.0954644 0.012024 0)
  (0.0927543 0.0139149 0)
  (0.0907944 0.0161583 0)
  (0.089821 0.0183565 0)
  (0.0897048 0.0205209 0)
  (0.0909795 0.0229416 0)
  (0.0940864 0.0257041 0)
  (0.0993616 0.0285025 0)
  (0.106608 0.0303576 0)
  (0.114827 0.0296665 0)
  (0.122049 0.024457 0)
  (0.126734 0.0115219 0)
  (0.124678 -0.0144673 0)
  (0.147996 -0.0671846 0)
  (-0.160125 -0.160067 0)
  (0.0672884 -0.214148 0)
  (-0.250193 -0.0416479 0)
  (-0.2596 0.165352 0)
  (0.0854041 0.031636 0)
  (0.0172066 0.0369039 0)
  (0.0772222 0.0416294 0)
  (0.126841 0.032248 0)
  (0.160491 0.0212041 0)
  (0.178924 0.0123877 0)
  (0.18611 0.00598891 0)
  (0.186148 0.00131036 0)
  (0.181931 -0.00224396 0)
  (0.175341 -0.00499958 0)
  (0.167772 -0.00721924 0)
  (0.160289 -0.00915956 0)
  (0.153668 -0.0110746 0)
  (0.148376 -0.0132003 0)
  (0.144574 -0.015727 0)
  (0.142143 -0.0187643 0)
  (0.140762 -0.022322 0)
  (0.140028 -0.0263261 0)
  (0.139562 -0.0306557 0)
  (0.139086 -0.0351784 0)
  (0.138451 -0.0397648 0)
  (0.137649 -0.0442792 0)
  (0.1368 -0.0485529 0)
  (0.136144 -0.0523612 0)
  (0.136052 -0.0554544 0)
  (0.136763 -0.0571559 0)
  (0.138685 -0.0571383 0)
  (0.142276 -0.0553312 0)
  (0.148008 -0.0520193 0)
  (0.156147 -0.0478942 0)
  (0.16638 -0.0441127 0)
  (0.177369 -0.0422623 0)
  (0.186545 -0.0442589 0)
  (0.1901 -0.0515271 0)
  (0.181075 -0.0628434 0)
  (0.181337 -0.0833997 0)
  (-0.156469 -0.131289 0)
)
;

boundaryField
{
  floor
  {
    type noSlip;
  }
  ceiling
  {
    type noSlip;
  }
  sWall
  {
    type noSlip;
  }
  nWall
  {
    type noSlip;
  }
  sideWalls
  {
    type empty;
  }
  glass1
  {
    type noSlip;
  }
  glass2
  {
    type noSlip;
  }
  sun
  {
    type noSlip;
  }
  heatsource1
  {
    type noSlip;
  }
  heatsource2
  {
    type noSlip;
  }
  Table_master
  {
    type noSlip;
  }
  Table_slave
  {
    type noSlip;
  }
  inlet
  {
    type fixedValue;
    value uniform (0.277164 -0.114805 0);
  }
  outlet
  {
    type zeroGradient;
  }
} 	// ************************************************************************* //

