// -*- C++ -*-
// File generated by PyFoam - sorry for the ugliness

FoamFile
{
 version 2.0;
 format ascii;
 class volVectorField;
 location "1100";
 object U;
}

dimensions [ 0 1 -1 0 0 0 0 ];

internalField nonuniform List<vector> 459
(
  (0.0325881 0.0854695 0)
  (-0.166144 0.0257661 0)
  (-0.190892 0.0178801 0)
  (-0.221534 0.0123294 0)
  (-0.243851 0.00627597 0)
  (-0.257007 -6.50467e-05 0)
  (-0.259673 -0.00674911 0)
  (-0.250659 -0.0137794 0)
  (-0.230645 -0.0206745 0)
  (-0.201103 -0.0263825 0)
  (-0.165039 -0.0300633 0)
  (-0.125885 -0.0314559 0)
  (-0.0868949 -0.0310793 0)
  (-0.0528001 -0.0305643 0)
  (-0.0371361 -0.031642 0)
  (-0.00313797 0.00743362 0)
  (-0.0222881 -0.0174555 0)
  (0.0014472 -0.0262658 0)
  (0.0223882 -0.0195332 0)
  (0.0381916 -0.0131516 0)
  (0.0499018 -0.0084152 0)
  (0.0568396 -0.00505357 0)
  (0.0603179 -0.00329634 0)
  (0.0619145 -0.00253581 0)
  (0.0627629 -0.00216678 0)
  (0.0633058 -0.00192674 0)
  (0.0635991 -0.0017295 0)
  (0.0635753 -0.00148713 0)
  (0.0630218 -0.00102494 0)
  (0.0613631 4.2775e-05 0)
  (0.0573816 0.00226481 0)
  (0.0497326 0.00471223 0)
  (0.0415518 0.00691949 0)
  (-0.00952399 0.020478 0)
  (0.20455 0.174566 0)
  (-0.154142 0.0673457 0)
  (-0.152677 0.0522399 0)
  (-0.183919 0.0406918 0)
  (-0.205692 0.0277867 0)
  (-0.218805 0.0135179 0)
  (-0.221905 -0.00236815 0)
  (-0.21361 -0.0194126 0)
  (-0.195127 -0.0354861 0)
  (-0.168301 -0.0480922 0)
  (-0.136359 -0.0554551 0)
  (-0.102713 -0.0571366 0)
  (-0.070579 -0.0538162 0)
  (-0.0436835 -0.0470672 0)
  (-0.0265826 -0.0380618 0)
  (-0.0130361 -0.0186169 0)
  (-0.00710888 0.0137246 0)
  (0.0585432 0.0314398 0)
  (0.0315128 -0.0201376 0)
  (0.0387204 -0.0308044 0)
  (0.0495379 -0.0261127 0)
  (0.0580416 -0.017998 0)
  (0.0636823 -0.0105767 0)
  (0.0659128 -0.00438603 0)
  (0.0662368 -0.000957504 0)
  (0.0661525 0.000507655 0)
  (0.0662363 0.00118828 0)
  (0.066402 0.00161752 0)
  (0.0665202 0.00199182 0)
  (0.0665496 0.00248363 0)
  (0.0664345 0.00343299 0)
  (0.0656396 0.00575349 0)
  (0.0617335 0.012128 0)
  (0.0519222 0.0176418 0)
  (0.0451462 0.0217315 0)
  (-0.0424252 0.0441727 0)
  (0.362144 0.260793 0)
  (-0.169631 0.106688 0)
  (-0.113974 0.0839969 0)
  (-0.143703 0.0635019 0)
  (-0.162614 0.0423476 0)
  (-0.174336 0.0192793 0)
  (-0.17668 -0.0064659 0)
  (-0.16747 -0.0336707 0)
  (-0.148987 -0.0585375 0)
  (-0.123828 -0.0770403 0)
  (-0.0955056 -0.086803 0)
  (-0.0669518 -0.0877693 0)
  (-0.0404422 -0.0810915 0)
  (-0.0181896 -0.0683451 0)
  (-0.00194149 -0.0504806 0)
  (0.0103752 -0.0248497 0)
  (0.0169525 0.00977773 0)
  (0.105115 -0.039067 0)
  (0.0731963 -0.0433135 0)
  (0.0693944 -0.0397016 0)
  (0.0715845 -0.0318621 0)
  (0.0731418 -0.0226746 0)
  (0.0739851 -0.0149672 0)
  (0.0722402 -0.012174 0)
  (0.0681686 -0.00869637 0)
  (0.06535 -0.00681078 0)
  (0.0640639 -0.00573596 0)
  (0.06349 -0.00505448 0)
  (0.0632012 -0.00457862 0)
  (0.0632325 -0.00411632 0)
  (0.064062 -0.00329926 0)
  (0.0669135 -0.000142698 0)
  (0.0649061 0.0171304 0)
  (0.0517021 0.0294962 0)
  (0.0505645 0.0384819 0)
  (-0.0714022 0.0694153 0)
  (0.503994 0.329916 0)
  (-0.202795 0.141305 0)
  (-0.0737192 0.11052 0)
  (-0.101124 0.0823461 0)
  (-0.114178 0.0552172 0)
  (-0.121896 0.0250472 0)
  (-0.120468 -0.0102245 0)
  (-0.107909 -0.0479496 0)
  (-0.0886415 -0.080792 0)
  (-0.0659175 -0.103609 0)
  (-0.0430006 -0.114222 0)
  (-0.0215853 -0.113749 0)
  (-0.00242156 -0.103925 0)
  (0.0138495 -0.0866001 0)
  (0.0272479 -0.064554 0)
  (0.04161 -0.0384736 0)
  (0.0637471 -0.0116494 0)
  (0.0944995 -4.44891e-05 0)
  (0.102108 -0.0330422 0)
  (0.088541 -0.0384821 0)
  (0.0798724 -0.0343602 0)
  (0.0755804 -0.0280645 0)
  (0.072758 -0.0206173 0)
  (0.0713727 -0.0119911 0)
  (0.0730411 -0.00699715 0)
  (0.0771009 -0.00547838 0)
  (0.0804184 -0.00462773 0)
  (0.0826066 -0.00397509 0)
  (0.0838892 -0.0031498 0)
  (0.0837146 -0.00189542 0)
  (0.0810723 8.45859e-07 0)
  (0.0747314 0.00282926 0)
  (0.0618887 0.00712329 0)
  (0.0511028 0.0274482 0)
  (0.0406744 0.0444104 0)
  (0.0533401 0.0582923 0)
  (-0.100875 0.0924721 0)
  (0.625871 0.383334 0)
  (-0.243433 0.16945 0)
  (-0.0346902 0.125133 0)
  (-0.0569801 0.092468 0)
  (-0.0616505 0.0619903 0)
  (-0.0622036 0.0268328 0)
  (-0.0508201 -0.0171845 0)
  (-0.0327185 -0.0640902 0)
  (-0.0137418 -0.101377 0)
  (0.00396344 -0.124881 0)
  (0.0182957 -0.133252 0)
  (0.0295711 -0.129767 0)
  (0.0382513 -0.117352 0)
  (0.0450694 -0.0985423 0)
  (0.051182 -0.0759852 0)
  (0.0585707 -0.0523431 0)
  (0.0698493 -0.0331069 0)
  (0.0803718 -0.0287418 0)
  (0.0819196 -0.0346804 0)
  (0.0753125 -0.0335712 0)
  (0.067214 -0.028677 0)
  (0.0609992 -0.0231078 0)
  (0.0565964 -0.0173273 0)
  (0.054219 -0.0113787 0)
  (0.0542389 -0.00614935 0)
  (0.0562974 -0.00373245 0)
  (0.0585884 -0.00285084 0)
  (0.0607975 -0.00212586 0)
  (0.0628372 -0.000624342 0)
  (0.0643323 0.00218426 0)
  (0.0641539 0.00643073 0)
  (0.0617271 0.0122975 0)
  (0.0563494 0.0204564 0)
  (0.0498748 0.035882 0)
  (0.0411167 0.0545277 0)
  (0.0616688 0.0752443 0)
  (-0.0155897 0.104763 0)
  (0.045547 0.035047 0)
  (-0.0609298 -0.0343054 0)
  (-0.268248 -0.0565097 0)
  (0.713556 0.427773 0)
  (-0.282682 0.188157 0)
  (-0.00562306 0.119913 0)
  (-0.0114927 0.0914821 0)
  (-0.00453983 0.0618125 0)
  (0.0060589 0.0197464 0)
  (0.0352809 -0.0348915 0)
  (0.056394 -0.0827831 0)
  (0.0711585 -0.116749 0)
  (0.0795727 -0.135549 0)
  (0.0824528 -0.140409 0)
  (0.0813326 -0.134073 0)
  (0.0775797 -0.119541 0)
  (0.0726169 -0.0997839 0)
  (0.06793 -0.0776772 0)
  (0.0648833 -0.0559097 0)
  (0.0643591 -0.0382268 0)
  (0.0639232 -0.0292535 0)
  (0.0598694 -0.0270373 0)
  (0.0522119 -0.0249487 0)
  (0.0439226 -0.0213646 0)
  (0.0372682 -0.0173753 0)
  (0.0326805 -0.0134639 0)
  (0.0303292 -0.0097125 0)
  (0.0301915 -0.00678729 0)
  (0.0317941 -0.00577918 0)
  (0.0342035 -0.00571699 0)
  (0.0370776 -0.00541307 0)
  (0.0402572 -0.00391003 0)
  (0.0435538 -0.000369432 0)
  (0.0464132 0.00546682 0)
  (0.0479154 0.0133323 0)
  (0.0482531 0.0234829 0)
  (0.0488196 0.0377497 0)
  (0.0482716 0.0557732 0)
  (0.0700133 0.0787421 0)
  (0.0525531 0.0976269 0)
  (0.0912884 0.0687234 0)
  (0.114198 0.044744 0)
  (-0.127822 -0.00721482 0)
  (0.766651 0.468288 0)
  (-0.301241 0.173463 0)
  (0.0222017 0.0676376 0)
  (0.0499289 0.0624972 0)
  (0.0709686 0.0430846 0)
  (0.104943 -0.0052811 0)
  (0.13649 -0.058663 0)
  (0.154612 -0.0991913 0)
  (0.160416 -0.124481 0)
  (0.155993 -0.135588 0)
  (0.144003 -0.134664 0)
  (0.127322 -0.124546 0)
  (0.108498 -0.108118 0)
  (0.0896868 -0.0882704 0)
  (0.0726415 -0.0675607 0)
  (0.0584607 -0.0480452 0)
  (0.0476431 -0.0323914 0)
  (0.0390383 -0.0229833 0)
  (0.030641 -0.0187942 0)
  (0.0220969 -0.0164845 0)
  (0.0144188 -0.0142167 0)
  (0.00857531 -0.0120544 0)
  (0.00476718 -0.0101685 0)
  (0.00299252 -0.00859215 0)
  (0.00308943 -0.0077031 0)
  (0.00455671 -0.00790254 0)
  (0.006776 -0.00856721 0)
  (0.0095278 -0.00884698 0)
  (0.012861 -0.00789768 0)
  (0.016907 -0.00473081 0)
  (0.0226002 0.00160528 0)
  (0.0281718 0.0101862 0)
  (0.0335358 0.0204 0)
  (0.0404752 0.032967 0)
  (0.048303 0.0476726 0)
  (0.0699425 0.0661749 0)
  (0.0836494 0.0748541 0)
  (0.11536 0.0530294 0)
  (0.154845 0.0442636 0)
  (-0.0366963 0.0924638 0)
  (0.871432 0.469468 0)
  (-0.0638114 0.151997 0)
  (0.110234 -0.014301 0)
  (0.182267 -0.042381 0)
  (0.2144 -0.0543243 0)
  (0.245732 -0.0766073 0)
  (0.263087 -0.0984689 0)
  (0.263452 -0.113881 0)
  (0.248467 -0.12096 0)
  (0.222223 -0.119808 0)
  (0.189223 -0.111661 0)
  (0.153497 -0.0983103 0)
  (0.118194 -0.0815104 0)
  (0.0856967 -0.0634205 0)
  (0.0576084 -0.0459262 0)
  (0.0345332 -0.0302193 0)
  (0.0172675 -0.0184684 0)
  (0.00484631 -0.0119657 0)
  (-0.0046685 -0.00947576 0)
  (-0.0119626 -0.00874659 0)
  (-0.0177609 -0.0083378 0)
  (-0.0219937 -0.00808763 0)
  (-0.0247588 -0.00802381 0)
  (-0.0261954 -0.00819329 0)
  (-0.0265284 -0.00875696 0)
  (-0.026167 -0.00978768 0)
  (-0.0255037 -0.0109822 0)
  (-0.0246495 -0.0118958 0)
  (-0.0234492 -0.0120397 0)
  (-0.0215117 -0.0108324 0)
  (-0.0178697 -0.00752622 0)
  (-0.0093049 -0.00144414 0)
  (-0.00127851 0.00640176 0)
  (0.00914175 0.0144705 0)
  (0.020787 0.0215662 0)
  (0.0405296 0.0289737 0)
  (0.0597386 0.022769 0)
  (0.0800153 -0.00430217 0)
  (0.138853 0.0388954 0)
  (-0.402979 0.201618 0)
  (1.01838 0.422666 0)
  (0.48437 0.279362 0)
  (0.499365 0.182475 0)
  (0.526502 0.110809 0)
  (0.507638 0.059046 0)
  (0.465394 0.0118538 0)
  (0.416419 -0.0270634 0)
  (0.362645 -0.0534371 0)
  (0.304385 -0.0666775 0)
  (0.244567 -0.068902 0)
  (0.186661 -0.0634985 0)
  (0.133253 -0.0535684 0)
  (0.0859543 -0.0409893 0)
  (0.0462745 -0.0279434 0)
  (0.0142986 -0.0162121 0)
  (-0.0110202 -0.00687056 0)
  (-0.0257571 -0.00278489 0)
  (-0.0348671 -0.00183082 0)
  (-0.041 -0.00237665 0)
  (-0.0457687 -0.00338529 0)
  (-0.0496815 -0.00439172 0)
  (-0.0528656 -0.00536596 0)
  (-0.055419 -0.00633373 0)
  (-0.0574915 -0.00733314 0)
  (-0.0593182 -0.00841642 0)
  (-0.0612536 -0.00956749 0)
  (-0.0636601 -0.0105929 0)
  (-0.0668367 -0.0111344 0)
  (-0.0711013 -0.0106704 0)
  (-0.0768775 -0.00850391 0)
  (-0.0847123 -0.00381091 0)
  (-0.094514 0.00393796 0)
  (-0.104524 0.0142572 0)
  (-0.119208 0.0274177 0)
  (-0.142173 0.0435915 0)
  (-0.17594 0.0617521 0)
  (-0.223883 0.0780912 0)
  (-0.279289 0.090069 0)
  (-0.347377 0.0975687 0)
  (-0.607154 0.100992 0)
  (-0.149429 0.000726135 0)
  (0.120372 -0.000528499 0)
  (0.198466 -0.0339735 0)
  (0.185906 -0.0430614 0)
  (0.16985 -0.0404073 0)
  (0.147716 -0.0350554 0)
  (0.118242 -0.0285416 0)
  (0.0845451 -0.0209837 0)
  (0.0500043 -0.0128278 0)
  (0.0151188 -0.00469813 0)
  (-0.0178828 0.00264556 0)
  (-0.0399784 0.00681512 0)
  (-0.0551848 0.00907798 0)
  (-0.0642427 0.00952237 0)
  (-0.069283 0.0086751 0)
  (-0.072803 0.00775817 0)
  (-0.075599 0.00703282 0)
  (-0.0780957 0.00651039 0)
  (-0.0806011 0.0061037 0)
  (-0.0832304 0.00555186 0)
  (-0.085954 0.00491595 0)
  (-0.0888443 0.00420015 0)
  (-0.0920202 0.0034431 0)
  (-0.0956323 0.00275838 0)
  (-0.0997764 0.00236109 0)
  (-0.104454 0.00255647 0)
  (-0.109603 0.00366635 0)
  (-0.115053 0.00597618 0)
  (-0.120161 0.010067 0)
  (-0.12426 0.0168554 0)
  (-0.127669 0.0274535 0)
  (-0.130592 0.0422686 0)
  (-0.133649 0.0605504 0)
  (-0.137261 0.0789645 0)
  (-0.138433 0.088051 0)
  (-0.121223 0.0673153 0)
  (-0.0796634 -0.022211 0)
  (-0.272789 -0.197042 0)
  (0.0183303 0.193463 0)
  (0.0413774 0.0690836 0)
  (0.000966929 0.004937 0)
  (-0.0131342 -0.00310737 0)
  (-0.0272378 -0.000800481 0)
  (-0.0425516 -0.000231763 0)
  (-0.0588938 0.00100283 0)
  (-0.0742069 0.00326156 0)
  (-0.0860295 0.00525355 0)
  (-0.0925321 0.00541812 0)
  (-0.096684 0.00330673 0)
  (-0.0983557 -0.000807324 0)
  (-0.0985695 -0.00542699 0)
  (-0.0979709 -0.010397 0)
  (-0.0974624 -0.0157169 0)
  (-0.0975646 -0.0209102 0)
  (-0.098301 -0.0256953 0)
  (-0.099575 -0.0298231 0)
  (-0.101262 -0.0331107 0)
  (-0.103289 -0.0354566 0)
  (-0.105716 -0.0370039 0)
  (-0.10845 -0.0376987 0)
  (-0.111385 -0.0374717 0)
  (-0.114401 -0.0363399 0)
  (-0.117362 -0.0344255 0)
  (-0.12003 -0.0315021 0)
  (-0.122038 -0.0271458 0)
  (-0.122951 -0.0208506 0)
  (-0.122361 -0.0126884 0)
  (-0.119397 -0.00236551 0)
  (-0.112709 0.0108081 0)
  (-0.101011 0.027462 0)
  (-0.0838076 0.0471366 0)
  (-0.0618226 0.0660276 0)
  (-0.0378533 0.0771884 0)
  (0.00161469 0.0615869 0)
  (0.142962 -0.0086929 0)
  (-0.204192 -0.107251 0)
  (-0.040122 -0.318431 0)
  (-0.411922 -0.123269 0)
  (-0.30028 0.0634215 0)
  (-0.250468 -0.0167049 0)
  (-0.211108 -0.0212284 0)
  (-0.200343 -0.00990459 0)
  (-0.196049 -0.000131023 0)
  (-0.192565 0.00795116 0)
  (-0.187923 0.0155557 0)
  (-0.181277 0.0231523 0)
  (-0.172494 0.0308179 0)
  (-0.161951 0.0384405 0)
  (-0.150816 0.0458572 0)
  (-0.140232 0.0530656 0)
  (-0.130964 0.0603116 0)
  (-0.123266 0.0675544 0)
  (-0.117171 0.074751 0)
  (-0.112503 0.0816773 0)
  (-0.109016 0.0879345 0)
  (-0.106496 0.0931565 0)
  (-0.104754 0.0971034 0)
  (-0.103627 0.0996618 0)
  (-0.103025 0.100889 0)
  (-0.102907 0.100712 0)
  (-0.103236 0.0990565 0)
  (-0.103947 0.0960579 0)
  (-0.104912 0.0921327 0)
  (-0.105929 0.0873626 0)
  (-0.106628 0.0817853 0)
  (-0.106331 0.0756594 0)
  (-0.103817 0.0701835 0)
  (-0.0972846 0.0662919 0)
  (-0.0843873 0.0648996 0)
  (-0.0632993 0.0669959 0)
  (-0.0343484 0.0731511 0)
  (0.0105284 0.0824222 0)
  (0.053623 0.0835384 0)
  (0.0941673 0.071175 0)
  (0.160402 0.046121 0)
  (-0.235423 -0.00293238 0)
)
;

boundaryField
{
  floor
  {
    type noSlip;
  }
  ceiling
  {
    type noSlip;
  }
  sWall
  {
    type noSlip;
  }
  nWall
  {
    type noSlip;
  }
  sideWalls
  {
    type empty;
  }
  glass1
  {
    type noSlip;
  }
  glass2
  {
    type noSlip;
  }
  sun
  {
    type noSlip;
  }
  heatsource1
  {
    type noSlip;
  }
  heatsource2
  {
    type noSlip;
  }
  Table_master
  {
    type noSlip;
  }
  Table_slave
  {
    type noSlip;
  }
  inlet
  {
    type fixedValue;
    value uniform (0.277164 -0.114805 0);
  }
  outlet
  {
    type zeroGradient;
  }
} 	// ************************************************************************* //

