// -*- C++ -*-
// File generated by PyFoam - sorry for the ugliness

FoamFile
{
 version 2.0;
 format ascii;
 class volScalarField;
 location "1100";
 object T;
}

dimensions [ 0 0 0 1 0 0 0 ];

internalField nonuniform List<scalar> 459
(
  308.636
  308.623
  308.619
  308.45
  308.209
  307.865
  307.62
  307.572
  307.555
  307.551
  307.548
  307.545
  307.54
  307.532
  307.518
  306.73
  306.707
  306.675
  306.65
  306.655
  306.673
  306.692
  306.703
  306.71
  306.716
  306.72
  306.719
  306.725
  306.747
  306.794
  306.868
  306.92
  307.007
  307.069
  308.77
  308.772
  308.747
  308.696
  308.56
  308.313
  308.055
  307.823
  307.669
  307.622
  307.606
  307.595
  307.583
  307.565
  307.543
  307.519
  307.452
  306.851
  306.87
  306.877
  306.889
  306.896
  306.906
  306.912
  306.917
  306.926
  306.942
  306.967
  307.001
  307.038
  307.087
  307.153
  307.221
  307.208
  307.182
  307.23
  308.94
  308.819
  308.772
  308.754
  308.69
  308.541
  308.323
  308.081
  307.863
  307.704
  307.659
  307.639
  307.623
  307.599
  307.565
  307.522
  307.482
  307.103
  307.119
  307.136
  307.152
  307.153
  307.139
  307.099
  307.123
  307.151
  307.181
  307.214
  307.25
  307.294
  307.349
  307.419
  307.481
  307.468
  307.435
  307.401
  308.864
  308.681
  308.641
  308.651
  308.654
  308.582
  308.422
  308.207
  307.986
  307.797
  307.719
  307.696
  307.681
  307.659
  307.622
  307.565
  307.485
  307.399
  307.354
  307.437
  307.496
  307.547
  307.586
  307.611
  307.628
  307.629
  307.628
  307.628
  307.628
  307.627
  307.626
  307.624
  307.62
  307.605
  307.6
  307.588
  307.544
  308.793
  308.538
  308.511
  308.554
  308.599
  308.571
  308.449
  308.257
  308.047
  307.865
  307.776
  307.759
  307.755
  307.749
  307.735
  307.709
  307.674
  307.639
  307.615
  307.63
  307.649
  307.667
  307.679
  307.685
  307.686
  307.684
  307.681
  307.679
  307.677
  307.676
  307.675
  307.673
  307.67
  307.665
  307.661
  307.658
  307.66
  307.671
  307.676
  307.681
  308.725
  308.439
  308.448
  308.505
  308.568
  308.552
  308.442
  308.266
  308.073
  307.911
  307.827
  307.813
  307.82
  307.825
  307.824
  307.814
  307.796
  307.775
  307.76
  307.753
  307.751
  307.751
  307.751
  307.749
  307.744
  307.739
  307.734
  307.729
  307.725
  307.721
  307.718
  307.715
  307.711
  307.706
  307.7
  307.694
  307.691
  307.692
  307.693
  307.695
  308.649
  308.401
  308.437
  308.504
  308.539
  308.517
  308.418
  308.258
  308.08
  307.944
  307.875
  307.861
  307.871
  307.886
  307.894
  307.895
  307.889
  307.878
  307.866
  307.856
  307.847
  307.839
  307.832
  307.823
  307.814
  307.805
  307.796
  307.787
  307.779
  307.772
  307.765
  307.758
  307.751
  307.744
  307.734
  307.725
  307.717
  307.712
  307.709
  307.706
  308.57
  308.377
  308.415
  308.486
  308.495
  308.465
  308.379
  308.242
  308.088
  307.975
  307.923
  307.911
  307.919
  307.934
  307.947
  307.957
  307.961
  307.959
  307.954
  307.946
  307.937
  307.928
  307.917
  307.905
  307.892
  307.879
  307.866
  307.852
  307.84
  307.828
  307.816
  307.805
  307.795
  307.783
  307.77
  307.757
  307.744
  307.733
  307.725
  307.714
  308.491
  308.332
  308.327
  308.453
  308.434
  308.401
  308.334
  308.226
  308.098
  308.011
  307.973
  307.963
  307.968
  307.98
  307.993
  308.005
  308.014
  308.019
  308.021
  308.019
  308.014
  308.006
  307.996
  307.984
  307.97
  307.954
  307.937
  307.919
  307.902
  307.885
  307.868
  307.852
  307.837
  307.821
  307.804
  307.787
  307.769
  307.752
  307.737
  307.721
  308.167
  308.538
  308.407
  308.342
  308.291
  308.214
  308.113
  308.054
  308.026
  308.017
  308.019
  308.026
  308.036
  308.046
  308.055
  308.062
  308.067
  308.07
  308.069
  308.065
  308.058
  308.047
  308.033
  308.017
  307.998
  307.978
  307.957
  307.936
  307.914
  307.894
  307.873
  307.853
  307.833
  307.811
  307.789
  307.767
  307.744
  307.726
  308.696
  308.941
  308.52
  308.323
  308.263
  308.207
  308.136
  308.097
  308.076
  308.067
  308.064
  308.066
  308.071
  308.077
  308.083
  308.09
  308.095
  308.099
  308.101
  308.1
  308.096
  308.087
  308.075
  308.06
  308.041
  308.019
  307.996
  307.972
  307.947
  307.923
  307.899
  307.875
  307.851
  307.826
  307.801
  307.774
  307.749
  307.732
  313.783
  313.595
  310.323
  309.934
  308.894
  308.333
  308.247
  308.202
  308.16
  308.133
  308.116
  308.105
  308.098
  308.095
  308.093
  308.095
  308.097
  308.101
  308.106
  308.11
  308.113
  308.114
  308.112
  308.107
  308.098
  308.084
  308.067
  308.046
  308.021
  307.995
  307.967
  307.939
  307.911
  307.883
  307.855
  307.826
  307.796
  307.762
  307.718
  307.652
)
;

boundaryField
{
  floor
  {
    type wallHeatTransfer;
    Tinf uniform 305.2;
    alphaWall uniform 0.24;
    value nonuniform List<scalar> 29
(
  307.141
  306.393
  306.355
  306.275
  306.199
  306.185
  306.199
  306.223
  306.245
  306.262
  306.276
  306.284
  306.284
  306.296
  306.33
  306.396
  306.49
  306.562
  306.686
  306.718
  306.718
  306.929
  307.119
  307.248
  307.141
  306.393
  306.544
  306.789
  307.088
)
;
  }
  ceiling
  {
    type wallHeatTransfer;
    Tinf uniform 303.2;
    alphaWall uniform 0.24;
    value nonuniform List<scalar> 43
(
  312.57
  312.484
  309.953
  309.523
  308.498
  307.945
  307.86
  307.807
  307.764
  307.739
  307.725
  307.718
  307.717
  307.719
  307.724
  307.73
  307.737
  307.744
  307.75
  307.756
  307.76
  307.762
  307.761
  307.756
  307.748
  307.735
  307.719
  307.699
  307.676
  307.651
  307.625
  307.598
  307.571
  307.545
  307.518
  307.49
  307.46
  307.424
  307.375
  307.278
  308.304
  308.176
  308.508
)
;
  }
  sWall
  {
    type wallHeatTransfer;
    Tinf uniform 315.2;
    alphaWall uniform 0.36;
    value uniform 314.014;
  }
  nWall
  {
    type wallHeatTransfer;
    Tinf uniform 307.2;
    alphaWall uniform 0.36;
    value nonuniform List<scalar> 6
(
  307.591
  307.617
  307.634
  307.664
  307.681
  307.597
)
;
  }
  sideWalls
  {
    type empty;
  }
  glass1
  {
    type wallHeatTransfer;
    Tinf uniform 315.2;
    alphaWall uniform 4.3;
    value nonuniform List<scalar> 9
(
  312.953
  312.935
  312.127
  311.909
  311.778
  311.66
  311.529
  311.371
  311.161
)
;
  }
  glass2
  {
    type wallHeatTransfer;
    Tinf uniform 307.2;
    alphaWall uniform 4.3;
    value nonuniform List<scalar> 2
(
  307.387
  307.391
)
;
  }
  sun
  {
    type wallHeatTransfer;
    Tinf uniform 305.2;
    alphaWall uniform 0.24;
    value nonuniform List<scalar> 14
(
  308.307
  308.342
  308.349
  308.164
  307.91
  307.559
  307.293
  307.222
  307.178
  307.164
  307.158
  307.157
  307.156
  307.152
)
;
  }
  heatsource1
  {
    type fixedGradient;
    gradient uniform 0;
  }
  heatsource2
  {
    type fixedGradient;
    gradient uniform 0;
  }
  Table_master
  {
    type zeroGradient;
  }
  Table_slave
  {
    type zeroGradient;
  }
  inlet
  {
    type fixedValue;
    value uniform 299.15;
  }
  outlet
  {
    type zeroGradient;
  }
} 	// ************************************************************************* //

