/*--------------------------------*- C++ -*----------------------------------*\
  =========                 |
  \\      /  F ield         | OpenFOAM: The Open Source CFD Toolbox
   \\    /   O peration     | Website:  https://openfoam.org
    \\  /    A nd           | Version:  6
     \\/     M anipulation  |
\*---------------------------------------------------------------------------*/
FoamFile
{
    version     2.0;
    format      ascii;
    class       volScalarField;
    location    "70";
    object      alphat;
}
// * * * * * * * * * * * * * * * * * * * * * * * * * * * * * * * * * * * * * //

dimensions      [1 -1 -1 0 0 0 0];

internalField   nonuniform List<scalar> 
459
(
0.00125021
0.00140055
0.00147734
0.00156981
0.00166549
0.00176309
0.00184208
0.00189068
0.00189414
0.00180024
0.00169537
0.00157295
0.00143364
0.00130343
0.00116335
0.00070082
0.000829718
0.00088763
0.000876779
0.000829293
0.000759964
0.000676215
0.00059528
0.000524491
0.000461244
0.000405486
0.000358293
0.000320674
0.000292895
0.00027503
0.000271069
0.000305571
0.000431157
0.000598881
0.00153697
0.004056
0.00423916
0.00499232
0.00568626
0.0062025
0.00667705
0.00711561
0.00748211
0.0075486
0.00726049
0.00675524
0.00593997
0.00460929
0.00299542
0.00131348
0.00112169
0.00101185
0.00294955
0.00249662
0.00258054
0.00263526
0.00244121
0.00180918
0.00154962
0.00131437
0.00110959
0.000943231
0.000810336
0.000705803
0.000627217
0.000579922
0.000563628
0.000652399
0.000874082
0.000709169
0.0017736
0.0056289
0.00540566
0.00599557
0.00634514
0.00659662
0.00689603
0.00739623
0.0080551
0.00847879
0.00855153
0.00834264
0.00787407
0.00686403
0.0052937
0.00327364
0.00124127
0.00106395
0.00314747
0.00269164
0.00288093
0.00310863
0.002913
0.000918982
0.00073895
0.00061133
0.000520393
0.000450206
0.000393576
0.000349007
0.000317431
0.000302154
0.00039743
0.000683593
0.00110448
0.000773971
0.00200097
0.00686634
0.00583735
0.00623941
0.00623986
0.00619974
0.00632112
0.00688851
0.00770629
0.00834031
0.00863241
0.00862009
0.00838333
0.00780654
0.00671258
0.00498732
0.0025441
0.00130044
0.00157693
0.00202355
0.00272654
0.00340632
0.00378352
0.00357248
0.00107838
0.000960918
0.000857723
0.000754398
0.000651432
0.000575025
0.00055194
0.000562181
0.000569515
0.000820289
0.00107689
0.00159857
0.000880774
0.00223745
0.00830422
0.00651249
0.00666253
0.00636999
0.00598983
0.00599253
0.00661326
0.00751821
0.00826755
0.00863093
0.00864531
0.00845829
0.00810223
0.0074323
0.0062755
0.00457339
0.00353219
0.00357501
0.00406199
0.00465959
0.00506938
0.00514337
0.00485294
0.00403878
0.00328734
0.00252845
0.00203132
0.00194231
0.0022616
0.00273158
0.00306737
0.00310873
0.00273981
0.00231371
0.00225805
0.00154607
0.000972617
0.000888081
0.000762474
0.00249191
0.00992321
0.00819707
0.00759261
0.00667385
0.00594433
0.00590724
0.00661046
0.00763752
0.00847017
0.00883325
0.00878184
0.00855139
0.00830422
0.00796121
0.00735743
0.0064941
0.00611093
0.00638892
0.00674352
0.00693678
0.00687262
0.00654124
0.00598489
0.00524145
0.00430392
0.00348881
0.00317296
0.00343396
0.00393824
0.00432355
0.00446103
0.00434206
0.00401239
0.00357533
0.00309015
0.00236881
0.00169087
0.00135171
0.000754595
0.00269988
0.0109162
0.0102283
0.00842649
0.00673701
0.00579723
0.00590486
0.00684168
0.00805536
0.00896009
0.00928183
0.00914903
0.00893089
0.00883782
0.0087155
0.00847212
0.00818372
0.00821705
0.00847573
0.00856324
0.00837557
0.00792432
0.00727286
0.00647661
0.00550603
0.00471825
0.0042827
0.00427495
0.00454044
0.00480121
0.00490855
0.00482901
0.00457235
0.00421401
0.00380734
0.00323791
0.00263802
0.00197369
0.00163373
0.000740455
0.00273908
0.0090465
0.00846244
0.00683661
0.00555097
0.0052315
0.00596981
0.00737934
0.00881875
0.00971788
0.00993103
0.00975136
0.00964282
0.00946079
0.00931893
0.00923583
0.00920582
0.00929412
0.00932983
0.00911456
0.00860254
0.0078185
0.00690531
0.00603848
0.00534119
0.00490136
0.00472035
0.00474442
0.00485108
0.00491555
0.00486191
0.00463738
0.00420542
0.00358974
0.00289695
0.00226548
0.0018257
0.00145038
0.00121395
0.000853238
0.00267227
0.00313224
0.00324055
0.00317875
0.0034934
0.00468601
0.00658312
0.00855101
0.0099942
0.0105686
0.0105889
0.0100941
0.00952251
0.00913832
0.00898589
0.00898282
0.00901616
0.00895669
0.008682
0.00814171
0.00739058
0.00656286
0.0058311
0.00529466
0.00496756
0.00482644
0.00482658
0.00491605
0.00502461
0.00507611
0.00500318
0.00475418
0.00430771
0.00369036
0.00297934
0.0022908
0.00175642
0.00143774
0.00135626
0.00148591
0.000690576
0.00174385
0.00443656
0.00730758
0.0095286
0.0107375
0.0111418
0.010628
0.00987858
0.00920831
0.00877195
0.00854629
0.0084456
0.00837705
0.00825045
0.00799009
0.00758942
0.00710798
0.00663124
0.0062308
0.00594694
0.00578531
0.00573503
0.00578059
0.00589862
0.00605359
0.00619539
0.00626782
0.00622093
0.00602131
0.00566036
0.00516031
0.00457471
0.00397931
0.00346319
0.00313168
0.00310719
0.00177948
0.00184453
0.007816
0.0104886
0.0116072
0.0118729
0.0113984
0.0105078
0.00961422
0.00895135
0.00855993
0.00834385
0.008215
0.00812206
0.00803922
0.00794622
0.00782474
0.00766919
0.00749125
0.0073106
0.00714788
0.00702229
0.00695058
0.00694932
0.00702982
0.00718755
0.00739681
0.00761166
0.00777701
0.0078435
0.00777652
0.0075592
0.00719371
0.00670272
0.00613206
0.00558174
0.00534494
0.00545675
0.00221917
0.00190512
0.00207412
0.00225523
0.00255771
0.00257135
0.00253213
0.00243431
0.00231736
0.00219019
0.00209157
0.00203251
0.00200094
0.00198646
0.00198216
0.0019831
0.00198528
0.00198523
0.00198081
0.00197226
0.00196186
0.00195268
0.00194749
0.00194833
0.00195636
0.00197181
0.00199365
0.00201942
0.00204545
0.00206769
0.00208265
0.002088
0.00208248
0.00206562
0.0020375
0.00199803
0.00194531
0.00188284
0.00184177
0.00183505
0.00170269
)
;

boundaryField
{
    floor
    {
        type            compressible::alphatWallFunction;
        Prt             0.85;
        value           nonuniform List<scalar> 
29
(
0.000165442
9.96942e-05
0.000118449
0.000126698
0.000125114
0.000118283
0.000108226
9.5943e-05
8.39061e-05
7.32163e-05
6.35124e-05
5.48189e-05
4.73433e-05
4.12963e-05
3.67756e-05
3.3845e-05
3.32126e-05
3.89426e-05
5.90444e-05
8.46249e-05
8.46239e-05
0.000101032
0.000110522
0.000125919
0.00016544
9.9693e-05
0.000144408
0.000151665
0.00018429
)
;
    }
    ceiling
    {
        type            compressible::alphatWallFunction;
        Prt             0.85;
        value           nonuniform List<scalar> 
43
(
0.000265065
0.000287096
0.000310494
0.000349164
0.000350913
0.000345945
0.0003335
0.000318544
0.000302188
0.000289434
0.000281763
0.000277654
0.000275767
0.000275206
0.00027533
0.000275615
0.000275612
0.000275039
0.000273928
0.000272576
0.000271383
0.000270712
0.000270828
0.000271884
0.000273909
0.000276763
0.000280124
0.000283514
0.000286403
0.000288345
0.00028904
0.000288324
0.000286136
0.000282483
0.000277346
0.000270465
0.000262285
0.000256888
0.000255982
0.0002385
0.000363691
0.000421293
0.000256974
)
;
    }
    sWall
    {
        type            compressible::alphatWallFunction;
        Prt             0.85;
        value           uniform 0.000264298;
    }
    nWall
    {
        type            compressible::alphatWallFunction;
        Prt             0.85;
        value           nonuniform List<scalar> 6(0.000108434 0.000107275 0.000105206 0.000248351 0.000305675 0.000238151);
    }
    sideWalls
    {
        type            empty;
    }
    glass1
    {
        type            compressible::alphatWallFunction;
        Prt             0.85;
        value           nonuniform List<scalar> 9(0.000174957 0.000213579 0.000244875 0.000274541 0.000305028 0.000337468 0.00036374 0.000368721 0.000360418);
    }
    glass2
    {
        type            compressible::alphatWallFunction;
        Prt             0.85;
        value           nonuniform List<scalar> 2(0.000121531 0.000209094);
    }
    sun
    {
        type            compressible::alphatWallFunction;
        Prt             0.85;
        value           nonuniform List<scalar> 
14
(
0.000177416
0.000197915
0.000208292
0.000220707
0.000233467
0.000246401
0.00025681
0.00026319
0.000263643
0.000251304
0.000237438
0.00022113
0.000202398
0.000184704
)
;
    }
    heatsource1
    {
        type            compressible::alphatWallFunction;
        Prt             0.85;
        value           nonuniform List<scalar> 3(0.000138629 0.00012659 0.00010847);
    }
    heatsource2
    {
        type            compressible::alphatWallFunction;
        Prt             0.85;
        value           nonuniform List<scalar> 4(0.000185859 0.000159448 0.000159446 0.000175965);
    }
    Table_master
    {
        type            compressible::alphatWallFunction;
        Prt             0.85;
        value           nonuniform List<scalar> 9(0.000130829 0.000104917 8.60983e-05 7.23875e-05 6.1594e-05 5.27291e-05 4.56423e-05 4.05589e-05 3.80903e-05);
    }
    Table_slave
    {
        type            compressible::alphatWallFunction;
        Prt             0.85;
        value           nonuniform List<scalar> 9(0.000153317 0.000136815 0.00012211 0.000107169 9.20513e-05 8.06936e-05 7.72706e-05 7.88422e-05 7.996e-05);
    }
    inlet
    {
        type            fixedValue;
        value           uniform 1.94e-05;
    }
    outlet
    {
        type            zeroGradient;
    }
}


// ************************************************************************* //
