// -*- C++ -*-
// File generated by PyFoam - sorry for the ugliness

FoamFile
{
 version 2.0;
 format ascii;
 class volScalarField;
 location "70";
 object T;
}

dimensions [ 0 0 0 1 0 0 0 ];

internalField nonuniform List<scalar> 459
(
  304.277
  304.156
  304.141
  304.132
  304.123
  304.115
  304.106
  304.104
  304.119
  304.163
  304.192
  304.214
  304.232
  304.249
  304.262
  305.397
  305.302
  305.151
  305.144
  305.219
  305.315
  305.412
  305.487
  305.536
  305.564
  305.575
  305.576
  305.573
  305.569
  305.564
  305.56
  305.556
  305.55
  305.528
  304.347
  304.181
  304.158
  304.144
  304.13
  304.111
  304.087
  304.074
  304.096
  304.15
  304.196
  304.232
  304.257
  304.273
  304.282
  304.302
  304.335
  305.308
  305.132
  304.912
  304.912
  304.994
  305.127
  305.296
  305.443
  305.546
  305.61
  305.647
  305.667
  305.677
  305.678
  305.672
  305.657
  305.633
  305.609
  305.616
  304.421
  304.21
  304.183
  304.171
  304.155
  304.124
  304.072
  304.042
  304.07
  304.136
  304.201
  304.252
  304.284
  304.302
  304.312
  304.324
  304.344
  305.128
  304.766
  304.722
  304.748
  304.829
  304.958
  305.174
  305.396
  305.547
  305.633
  305.68
  305.706
  305.719
  305.724
  305.721
  305.707
  305.681
  305.654
  305.651
  304.499
  304.248
  304.219
  304.217
  304.207
  304.155
  304.063
  304.011
  304.044
  304.126
  304.215
  304.284
  304.326
  304.345
  304.351
  304.354
  304.359
  304.379
  304.524
  304.552
  304.595
  304.663
  304.752
  304.853
  304.949
  305.062
  305.203
  305.373
  305.55
  305.683
  305.742
  305.756
  305.755
  305.724
  305.703
  305.682
  305.674
  304.579
  304.295
  304.265
  304.275
  304.275
  304.185
  304.048
  303.984
  304.021
  304.126
  304.244
  304.336
  304.389
  304.408
  304.409
  304.403
  304.401
  304.417
  304.457
  304.513
  304.593
  304.69
  304.795
  304.902
  305.015
  305.155
  305.32
  305.496
  305.64
  305.721
  305.749
  305.755
  305.754
  305.741
  305.724
  305.709
  305.694
  305.702
  305.711
  305.724
  304.658
  304.353
  304.323
  304.339
  304.32
  304.182
  304.022
  303.95
  304.003
  304.141
  304.297
  304.415
  304.479
  304.499
  304.491
  304.478
  304.473
  304.494
  304.542
  304.617
  304.715
  304.826
  304.941
  305.058
  305.195
  305.336
  305.483
  305.615
  305.701
  305.74
  305.752
  305.755
  305.755
  305.75
  305.741
  305.733
  305.72
  305.719
  305.723
  305.729
  304.739
  304.435
  304.41
  304.424
  304.334
  304.135
  303.951
  303.896
  303.995
  304.187
  304.387
  304.531
  304.602
  304.616
  304.599
  304.582
  304.584
  304.622
  304.695
  304.794
  304.91
  305.032
  305.152
  305.284
  305.405
  305.51
  305.607
  305.683
  305.728
  305.746
  305.752
  305.754
  305.755
  305.753
  305.75
  305.744
  305.734
  305.731
  305.731
  305.734
  304.843
  304.614
  304.576
  304.508
  304.275
  303.987
  303.808
  303.825
  304.021
  304.289
  304.537
  304.692
  304.752
  304.751
  304.734
  304.726
  304.75
  304.816
  304.918
  305.035
  305.16
  305.29
  305.396
  305.477
  305.552
  305.619
  305.677
  305.717
  305.739
  305.748
  305.751
  305.753
  305.754
  305.753
  305.751
  305.747
  305.743
  305.742
  305.744
  305.749
  304.992
  304.876
  304.784
  304.432
  303.927
  303.599
  303.564
  303.785
  304.153
  304.502
  304.775
  304.881
  304.915
  304.915
  304.917
  304.936
  304.987
  305.075
  305.187
  305.302
  305.403
  305.485
  305.548
  305.599
  305.644
  305.682
  305.712
  305.731
  305.741
  305.745
  305.748
  305.75
  305.751
  305.752
  305.752
  305.751
  305.751
  305.753
  305.759
  305.768
  300.911
  301.173
  301.819
  302.612
  303.37
  304.031
  304.612
  304.882
  305.019
  305.077
  305.101
  305.12
  305.147
  305.189
  305.253
  305.334
  305.419
  305.496
  305.557
  305.604
  305.64
  305.669
  305.693
  305.712
  305.726
  305.734
  305.738
  305.74
  305.742
  305.744
  305.747
  305.749
  305.75
  305.751
  305.752
  305.753
  305.756
  305.758
  301.591
  302.485
  303.274
  303.942
  304.422
  304.779
  305.02
  305.146
  305.213
  305.253
  305.285
  305.317
  305.355
  305.4
  305.453
  305.509
  305.562
  305.606
  305.64
  305.666
  305.685
  305.7
  305.712
  305.721
  305.727
  305.73
  305.732
  305.734
  305.735
  305.738
  305.741
  305.743
  305.746
  305.748
  305.75
  305.751
  305.751
  305.753
  303.944
  303.912
  303.905
  304.376
  304.736
  304.95
  305.103
  305.212
  305.29
  305.344
  305.383
  305.416
  305.448
  305.48
  305.513
  305.546
  305.579
  305.61
  305.636
  305.657
  305.673
  305.685
  305.694
  305.701
  305.705
  305.708
  305.709
  305.71
  305.71
  305.711
  305.713
  305.716
  305.719
  305.723
  305.726
  305.729
  305.731
  305.729
  305.719
  305.708
)
;

boundaryField
{
  floor
  {
    type wallHeatTransfer;
    Tinf uniform 300.653;
    alphaWall uniform 0.24;
    value nonuniform List<scalar> 29
(
  303.859
  304.635
  304.638
  304.539
  304.528
  304.567
  304.607
  304.628
  304.618
  304.583
  304.523
  304.445
  304.359
  304.275
  304.204
  304.153
  304.14
  304.229
  304.47
  304.657
  304.657
  304.826
  304.903
  304.988
  303.859
  304.635
  304.732
  304.595
  303.997
)
;
  }
  ceiling
  {
    type wallHeatTransfer;
    Tinf uniform 300.653;
    alphaWall uniform 0.24;
    value nonuniform List<scalar> 43
(
  303.694
  303.68
  303.688
  304.152
  304.491
  304.689
  304.825
  304.915
  304.974
  305.012
  305.04
  305.067
  305.094
  305.123
  305.154
  305.185
  305.216
  305.244
  305.267
  305.285
  305.298
  305.308
  305.317
  305.324
  305.33
  305.336
  305.341
  305.346
  305.349
  305.352
  305.355
  305.356
  305.357
  305.357
  305.354
  305.349
  305.34
  305.332
  305.322
  305.287
  304.74
  304.661
  301.518
)
;
  }
  sWall
  {
    type wallHeatTransfer;
    Tinf uniform 310.178;
    alphaWall uniform 0.36;
    value uniform 304.633;
  }
  nWall
  {
    type wallHeatTransfer;
    Tinf uniform 306.167;
    alphaWall uniform 0.36;
    value nonuniform List<scalar> 6
(
  305.817
  305.822
  305.827
  305.805
  305.793
  305.763
)
;
  }
  sideWalls
  {
    type empty;
  }
  glass1
  {
    type wallHeatTransfer;
    Tinf uniform 310.178;
    alphaWall uniform 4.3;
    value nonuniform List<scalar> 9
(
  308.301
  308.093
  307.954
  307.843
  307.744
  307.65
  307.593
  307.626
  307.724
)
;
  }
  glass2
  {
    type wallHeatTransfer;
    Tinf uniform 306.167;
    alphaWall uniform 4.3;
    value nonuniform List<scalar> 2
(
  306.06
  306.026
)
;
  }
  sun
  {
    type wallHeatTransfer;
    Tinf uniform 300.653;
    alphaWall uniform 0.24;
    value nonuniform List<scalar> 14
(
  303.895
  303.817
  303.817
  303.823
  303.829
  303.834
  303.836
  303.839
  303.853
  303.883
  303.896
  303.899
  303.891
  303.881
)
;
  }
  heatsource1
  {
    type fixedGradient;
    gradient uniform 0;
  }
  heatsource2
  {
    type fixedGradient;
    gradient uniform 0;
  }
  Table_master
  {
    type zeroGradient;
  }
  Table_slave
  {
    type zeroGradient;
  }
  inlet
  {
    type fixedValue;
    value uniform 300.15;
  }
  outlet
  {
    type zeroGradient;
  }
} 	// ************************************************************************* //

