/*--------------------------------*- C++ -*----------------------------------*\
  =========                 |
  \\      /  F ield         | OpenFOAM: The Open Source CFD Toolbox
   \\    /   O peration     | Website:  https://openfoam.org
    \\  /    A nd           | Version:  6
     \\/     M anipulation  |
\*---------------------------------------------------------------------------*/
FoamFile
{
    version     2.0;
    format      ascii;
    class       volScalarField;
    location    "1100";
    object      nut;
}
// * * * * * * * * * * * * * * * * * * * * * * * * * * * * * * * * * * * * * //

dimensions      [0 2 -1 0 0 0 0];

internalField   nonuniform List<scalar> 
459
(
0.00108421
0.00118518
0.00120781
0.00126612
0.00132016
0.00137084
0.00142065
0.00146878
0.00150237
0.00151588
0.00150429
0.00146462
0.00139669
0.00130592
0.00120578
0.000476607
0.000582479
0.000656131
0.00065293
0.000630768
0.00060133
0.000564116
0.000527193
0.000493687
0.00046395
0.000437627
0.000414247
0.000393446
0.00037478
0.000357578
0.000340972
0.000323687
0.000310955
0.000282841
0.0014757
0.00362007
0.00347257
0.00404413
0.00460663
0.00516757
0.00565879
0.00603035
0.00636422
0.00663318
0.00680006
0.00682374
0.0066408
0.00608996
0.00457523
0.00123241
0.000716415
0.000513871
0.00108618
0.0015039
0.00180328
0.00196233
0.00195457
0.00156625
0.00134951
0.0011948
0.00107616
0.000981878
0.000905179
0.00083936
0.000777861
0.000717989
0.000664601
0.000618281
0.00072066
0.000367644
0.0018011
0.00494387
0.00431665
0.00540967
0.00595737
0.00636316
0.00667721
0.0069294
0.00720138
0.00748338
0.00774136
0.00792938
0.00799553
0.00786017
0.00731107
0.00562644
0.00123265
0.00102191
0.00147584
0.00189819
0.0022746
0.00252862
0.00245661
0.000807873
0.000712812
0.000636475
0.000574912
0.000524785
0.000483536
0.000449326
0.000420989
0.000398044
0.000429152
0.000496637
0.000810037
0.000424211
0.00211307
0.00630867
0.0043334
0.00572869
0.00620783
0.00637138
0.00647899
0.00661039
0.00682834
0.00711914
0.00744494
0.00774933
0.00797759
0.00806531
0.00794459
0.0073564
0.00532557
0.00147063
0.00182317
0.00235766
0.00287656
0.00328718
0.00353523
0.0033059
0.000911915
0.00082939
0.000770056
0.000724679
0.000686148
0.000651114
0.000617525
0.000582404
0.000541851
0.000508101
0.000519734
0.000922979
0.000468183
0.00243113
0.00805941
0.00476042
0.00552307
0.00615581
0.00619976
0.0061474
0.00622091
0.00641231
0.00670941
0.00707443
0.00743055
0.00770107
0.00782693
0.00778806
0.00754229
0.00691724
0.00573492
0.00533445
0.00520894
0.00517142
0.00514736
0.00509185
0.0048891
0.00411511
0.00374104
0.00352223
0.00335361
0.00317776
0.00292633
0.00259128
0.00218642
0.00173721
0.00128479
0.000946693
0.000950017
0.000628047
0.000576553
0.000698831
0.000784516
0.00276837
0.00996755
0.00653722
0.00550884
0.00598982
0.00620669
0.00606313
0.00611815
0.00626104
0.0065259
0.00689734
0.00728818
0.00758534
0.00770431
0.00762878
0.00740914
0.00712335
0.00683286
0.00667697
0.00656273
0.00642697
0.00626491
0.00607657
0.00583593
0.0054805
0.00516187
0.00487989
0.00461096
0.00433858
0.00404273
0.00367497
0.00322187
0.00268316
0.00208909
0.0015653
0.00117294
0.000880065
0.000745778
0.00106237
0.00081851
0.00307465
0.0113006
0.00913629
0.00709264
0.00672885
0.0066269
0.0063877
0.00624402
0.00629439
0.00655779
0.00697222
0.00740901
0.00772142
0.00781092
0.00767285
0.00741045
0.00719812
0.00714512
0.00717599
0.00712455
0.00694613
0.00667598
0.00634692
0.0059772
0.00558477
0.00521874
0.00488307
0.00457083
0.00428247
0.00402464
0.00379741
0.00349171
0.00306997
0.0025586
0.00206831
0.0016309
0.00130766
0.00120649
0.00122802
0.000932735
0.00313361
0.010039
0.00893133
0.00826283
0.00763569
0.00692492
0.00639013
0.00619419
0.00635013
0.00677757
0.00733071
0.00782713
0.00810225
0.00808334
0.00781786
0.00748137
0.00730047
0.00733036
0.00735379
0.00714387
0.00676233
0.00628413
0.00577109
0.00527663
0.00483835
0.00446722
0.00415172
0.00388504
0.00367049
0.00351595
0.00342862
0.00338247
0.00316966
0.00284197
0.00255433
0.00240566
0.00249283
0.00286498
0.00351548
0.00145606
0.00305016
0.00361526
0.00400873
0.00409715
0.00418816
0.00444097
0.00493736
0.00567969
0.00657776
0.00747545
0.00820519
0.00861276
0.00860729
0.00825189
0.00774153
0.00742507
0.00724643
0.00708651
0.00679899
0.00632897
0.0057448
0.00513447
0.00457337
0.00410273
0.00372615
0.0034246
0.00317695
0.00297014
0.00279569
0.00264494
0.00250856
0.00238527
0.0022884
0.00221705
0.0021893
0.0021979
0.00218522
0.00209834
0.00196187
0.00137061
0.001465
0.00303716
0.00504356
0.00669607
0.0079746
0.00893703
0.00953221
0.00975439
0.00963544
0.00918153
0.00849572
0.00767689
0.00700339
0.00659479
0.0062486
0.00581168
0.005274
0.00469761
0.00414619
0.00366443
0.0032772
0.00297492
0.00273681
0.00254603
0.00239336
0.00227432
0.00218673
0.00212939
0.00210377
0.00210633
0.00212325
0.0021503
0.00217956
0.00218709
0.00213437
0.00200885
0.00181963
0.0011415
0.00197475
0.00515463
0.00770373
0.00871896
0.00921744
0.00936222
0.00914009
0.00862106
0.00791247
0.00712591
0.00639049
0.00574456
0.00522543
0.00477591
0.00431715
0.00386477
0.00346202
0.00313158
0.00287273
0.00267225
0.00250853
0.0023688
0.00224753
0.00214521
0.00206781
0.00201527
0.00198648
0.001981
0.00200224
0.00204758
0.00211348
0.00219242
0.00226801
0.00232013
0.00230192
0.00232765
0.00236952
0.00116441
0.00177143
0.00187715
0.00195178
0.00210443
0.00203823
0.00196075
0.00190931
0.00183284
0.00172179
0.00158371
0.00142876
0.00126803
0.00111348
0.000982744
0.000884644
0.000814768
0.000764742
0.00072809
0.000700915
0.000680991
0.000666932
0.000657903
0.000653384
0.000653584
0.000659025
0.000670065
0.000686196
0.000707785
0.000735414
0.000769612
0.000809623
0.00085551
0.000907756
0.00096678
0.00103206
0.00110939
0.00113482
0.00110574
0.00103916
0.00096879
)
;

boundaryField
{
    floor
    {
        type            nutkWallFunction;
        Cmu             0.09;
        kappa           0.41;
        E               9.8;
        value           nonuniform List<scalar> 
29
(
0.000144675
5.6709e-05
7.01499e-05
7.93217e-05
7.89257e-05
7.61781e-05
7.25101e-05
6.78418e-05
6.31726e-05
5.89005e-05
5.50787e-05
5.16701e-05
4.86209e-05
4.58895e-05
4.34228e-05
4.11356e-05
3.89142e-05
3.65868e-05
3.48622e-05
3.10202e-05
3.10201e-05
4.24752e-05
4.99222e-05
5.56238e-05
0.000144675
5.67089e-05
6.1478e-05
0.0001233
0.000174838
)
;
    }
    ceiling
    {
        type            nutkWallFunction;
        Cmu             0.09;
        kappa           0.41;
        E               9.8;
        value           nonuniform List<scalar> 
43
(
0.000208235
0.000219853
0.000228014
0.000244702
0.000237559
0.000229135
0.000223521
0.000215136
0.000202884
0.000187526
0.000170114
0.000151827
0.000133996
0.000118693
0.000107057
9.86769e-05
9.2626e-05
8.81632e-05
8.48371e-05
8.23886e-05
8.06559e-05
7.95407e-05
7.89819e-05
7.90066e-05
7.96793e-05
8.10423e-05
8.3029e-05
8.56792e-05
8.9057e-05
9.32171e-05
9.80567e-05
0.000103573
0.000109811
0.00011681
0.000124493
0.000133523
0.000136477
0.000133099
0.000125325
0.000117048
0.000345368
0.000403779
0.000230391
)
;
    }
    sWall
    {
        type            nutkWallFunction;
        Cmu             0.09;
        kappa           0.41;
        E               9.8;
        value           uniform 0.000208292;
    }
    nWall
    {
        type            nutkWallFunction;
        Cmu             0.09;
        kappa           0.41;
        E               9.8;
        value           nonuniform List<scalar> 6(9.50233e-05 9.91287e-05 0.000112783 0.00013726 0.000139914 0.000117053);
    }
    sideWalls
    {
        type            empty;
    }
    glass1
    {
        type            nutkWallFunction;
        Cmu             0.09;
        kappa           0.41;
        E               9.8;
        value           nonuniform List<scalar> 9(0.000130694 0.000175631 0.000211952 0.000246104 0.00028037 0.000316186 0.000348322 0.000354479 0.000345791);
    }
    glass2
    {
        type            nutkWallFunction;
        Cmu             0.09;
        kappa           0.41;
        E               9.8;
        value           nonuniform List<scalar> 2(0.000173267 0.00016359);
    }
    sun
    {
        type            nutkWallFunction;
        Cmu             0.09;
        kappa           0.41;
        E               9.8;
        value           nonuniform List<scalar> 
14
(
0.000130592
0.000142301
0.00014491
0.000151608
0.000157785
0.000163551
0.000169196
0.00017463
0.000178411
0.000179928
0.000178625
0.00017416
0.000166483
0.000156159
)
;
    }
    heatsource1
    {
        type            nutkWallFunction;
        Cmu             0.09;
        kappa           0.41;
        E               9.8;
        value           nonuniform List<scalar> 3(6.94077e-05 8.45817e-05 9.50232e-05);
    }
    heatsource2
    {
        type            nutkWallFunction;
        Cmu             0.09;
        kappa           0.41;
        E               9.8;
        value           nonuniform List<scalar> 4(0.000147735 8.67371e-05 8.67371e-05 0.000147763);
    }
    Table_master
    {
        type            nutkWallFunction;
        Cmu             0.09;
        kappa           0.41;
        E               9.8;
        value           nonuniform List<scalar> 9(9.78453e-05 8.62959e-05 7.68886e-05 6.92029e-05 6.28709e-05 5.76043e-05 5.31941e-05 4.95093e-05 4.65025e-05);
    }
    Table_slave
    {
        type            nutkWallFunction;
        Cmu             0.09;
        kappa           0.41;
        E               9.8;
        value           nonuniform List<scalar> 9(0.000110305 0.000100437 9.3271e-05 8.7747e-05 8.30241e-05 7.87023e-05 7.45323e-05 7.01426e-05 6.50337e-05);
    }
    inlet
    {
        type            calculated;
        value           uniform 0.000100623;
    }
    outlet
    {
        type            calculated;
        value           nonuniform List<scalar> 2(0.00177143 0.00187715);
    }
}


// ************************************************************************* //
