// -*- C++ -*-
// File generated by PyFoam - sorry for the ugliness

FoamFile
{
 version 2.0;
 format ascii;
 class volScalarField;
 location "700";
 object T;
}

dimensions [ 0 0 0 1 0 0 0 ];

internalField nonuniform List<scalar> 459
(
  303.62
  303.361
  303.348
  303.345
  303.341
  303.337
  303.333
  303.328
  303.32
  303.31
  303.297
  303.285
  303.275
  303.268
  303.266
  303.34
  303.319
  303.311
  303.312
  303.315
  303.318
  303.321
  303.324
  303.327
  303.329
  303.332
  303.335
  303.338
  303.34
  303.343
  303.345
  303.348
  303.352
  303.368
  303.796
  303.404
  303.381
  303.384
  303.387
  303.389
  303.388
  303.383
  303.371
  303.351
  303.325
  303.299
  303.277
  303.261
  303.252
  303.247
  303.245
  303.339
  303.306
  303.299
  303.3
  303.302
  303.305
  303.306
  303.307
  303.307
  303.308
  303.308
  303.309
  303.309
  303.31
  303.311
  303.314
  303.319
  303.325
  303.352
  303.98
  303.454
  303.416
  303.426
  303.44
  303.452
  303.458
  303.458
  303.441
  303.408
  303.364
  303.32
  303.285
  303.261
  303.249
  303.246
  303.246
  303.284
  303.285
  303.29
  303.298
  303.305
  303.31
  303.309
  303.309
  303.308
  303.308
  303.307
  303.307
  303.306
  303.306
  303.306
  303.307
  303.31
  303.316
  303.345
  304.164
  303.516
  303.45
  303.466
  303.493
  303.52
  303.54
  303.547
  303.525
  303.474
  303.405
  303.34
  303.289
  303.257
  303.244
  303.243
  303.247
  303.256
  303.266
  303.281
  303.296
  303.31
  303.322
  303.33
  303.337
  303.343
  303.348
  303.353
  303.356
  303.359
  303.361
  303.362
  303.362
  303.343
  303.327
  303.32
  303.343
  304.343
  303.594
  303.49
  303.499
  303.535
  303.577
  303.619
  303.634
  303.601
  303.528
  303.432
  303.347
  303.286
  303.25
  303.237
  303.239
  303.249
  303.263
  303.281
  303.301
  303.32
  303.337
  303.351
  303.362
  303.371
  303.378
  303.384
  303.389
  303.392
  303.392
  303.39
  303.386
  303.38
  303.365
  303.345
  303.329
  303.339
  303.402
  303.445
  303.452
  304.503
  303.696
  303.561
  303.546
  303.576
  303.627
  303.686
  303.694
  303.64
  303.544
  303.434
  303.337
  303.268
  303.232
  303.224
  303.235
  303.255
  303.279
  303.305
  303.33
  303.353
  303.372
  303.386
  303.397
  303.405
  303.412
  303.417
  303.42
  303.421
  303.419
  303.414
  303.406
  303.396
  303.381
  303.361
  303.341
  303.339
  303.366
  303.382
  303.415
  304.648
  303.858
  303.723
  303.686
  303.693
  303.727
  303.763
  303.731
  303.637
  303.511
  303.384
  303.284
  303.223
  303.201
  303.209
  303.236
  303.272
  303.308
  303.342
  303.371
  303.394
  303.411
  303.423
  303.432
  303.438
  303.443
  303.446
  303.447
  303.446
  303.442
  303.434
  303.423
  303.411
  303.396
  303.377
  303.358
  303.349
  303.357
  303.366
  303.394
  304.861
  304.27
  304.122
  304.026
  303.969
  303.941
  303.86
  303.72
  303.548
  303.383
  303.255
  303.176
  303.149
  303.162
  303.202
  303.255
  303.308
  303.355
  303.392
  303.418
  303.436
  303.448
  303.457
  303.462
  303.466
  303.469
  303.47
  303.469
  303.467
  303.462
  303.455
  303.443
  303.431
  303.418
  303.403
  303.389
  303.385
  303.396
  303.415
  303.54
  305.165
  304.889
  304.629
  304.395
  304.191
  303.991
  303.705
  303.42
  303.195
  303.058
  303.005
  303.016
  303.072
  303.151
  303.232
  303.312
  303.375
  303.414
  303.44
  303.458
  303.47
  303.478
  303.484
  303.488
  303.49
  303.491
  303.491
  303.489
  303.488
  303.486
  303.484
  303.485
  303.488
  303.496
  303.511
  303.534
  303.566
  303.598
  303.619
  303.672
  296.528
  298.674
  299.964
  300.577
  301.133
  301.638
  302.075
  302.434
  302.717
  302.936
  303.118
  303.26
  303.347
  303.404
  303.441
  303.464
  303.48
  303.49
  303.497
  303.502
  303.506
  303.509
  303.51
  303.512
  303.513
  303.514
  303.516
  303.517
  303.52
  303.522
  303.527
  303.536
  303.55
  303.569
  303.592
  303.614
  303.631
  303.649
  297.184
  299.109
  300.4
  301.245
  301.821
  302.248
  302.587
  302.853
  303.054
  303.201
  303.306
  303.381
  303.431
  303.463
  303.483
  303.497
  303.506
  303.512
  303.516
  303.52
  303.523
  303.525
  303.527
  303.529
  303.531
  303.533
  303.535
  303.537
  303.539
  303.542
  303.546
  303.552
  303.562
  303.574
  303.59
  303.607
  303.604
  303.631
  299.705
  299.628
  299.623
  301.4
  302.193
  302.592
  302.84
  303.019
  303.155
  303.258
  303.335
  303.392
  303.433
  303.461
  303.48
  303.491
  303.499
  303.504
  303.508
  303.511
  303.514
  303.517
  303.52
  303.523
  303.526
  303.529
  303.532
  303.535
  303.538
  303.54
  303.543
  303.546
  303.55
  303.554
  303.56
  303.569
  303.579
  303.584
  303.585
  303.623
)
;

boundaryField
{
  floor
  {
    type wallHeatTransfer;
    Tinf uniform 305.2;
    alphaWall uniform 0.24;
    value nonuniform List<scalar> 29
(
  303.452
  303.699
  303.634
  303.606
  303.611
  303.622
  303.635
  303.652
  303.669
  303.686
  303.702
  303.718
  303.733
  303.748
  303.762
  303.776
  303.79
  303.806
  303.819
  303.856
  303.856
  303.769
  303.725
  303.7
  303.452
  303.699
  303.675
  303.492
  303.421
)
;
  }
  ceiling
  {
    type wallHeatTransfer;
    Tinf uniform 303.2;
    alphaWall uniform 0.24;
    value nonuniform List<scalar> 43
(
  299.953
  299.869
  299.857
  301.513
  302.258
  302.633
  302.865
  303.032
  303.158
  303.253
  303.324
  303.374
  303.409
  303.431
  303.444
  303.451
  303.456
  303.459
  303.461
  303.463
  303.465
  303.467
  303.47
  303.473
  303.476
  303.479
  303.483
  303.486
  303.49
  303.494
  303.498
  303.503
  303.507
  303.513
  303.52
  303.531
  303.54
  303.544
  303.543
  303.575
  305.074
  304.821
  297.569
)
;
  }
  sWall
  {
    type wallHeatTransfer;
    Tinf uniform 315.2;
    alphaWall uniform 0.36;
    value uniform 301.303;
  }
  nWall
  {
    type wallHeatTransfer;
    Tinf uniform 307.2;
    alphaWall uniform 0.36;
    value nonuniform List<scalar> 6
(
  304.159
  304.109
  304.037
  304.165
  304.143
  304.206
)
;
  }
  sideWalls
  {
    type empty;
  }
  glass1
  {
    type wallHeatTransfer;
    Tinf uniform 315.2;
    alphaWall uniform 4.3;
    value nonuniform List<scalar> 9
(
  311.594
  310.959
  310.556
  310.247
  309.989
  309.755
  309.579
  309.648
  309.87
)
;
  }
  glass2
  {
    type wallHeatTransfer;
    Tinf uniform 307.2;
    alphaWall uniform 4.3;
    value nonuniform List<scalar> 2
(
  305.824
  305.915
)
;
  }
  sun
  {
    type wallHeatTransfer;
    Tinf uniform 305.2;
    alphaWall uniform 0.24;
    value nonuniform List<scalar> 14
(
  303.79
  303.546
  303.533
  303.523
  303.514
  303.506
  303.498
  303.489
  303.479
  303.468
  303.457
  303.448
  303.444
  303.445
)
;
  }
  heatsource1
  {
    type fixedGradient;
    gradient uniform 0;
  }
  heatsource2
  {
    type fixedGradient;
    gradient uniform 0;
  }
  Table_master
  {
    type zeroGradient;
  }
  Table_slave
  {
    type zeroGradient;
  }
  inlet
  {
    type fixedValue;
    value uniform 293.15;
  }
  outlet
  {
    type zeroGradient;
  }
} 	// ************************************************************************* //

