// -*- C++ -*-
// File generated by PyFoam - sorry for the ugliness

FoamFile
{
 version 2.0;
 format ascii;
 class volVectorField;
 location "600";
 object U;
}

dimensions [ 0 1 -1 0 0 0 0 ];

internalField nonuniform List<vector> 459
(
  (0.0830362 0.0625111 0)
  (-0.126337 0.00359675 0)
  (-0.112397 0.00538134 0)
  (-0.124715 0.00588196 0)
  (-0.136462 0.00485114 0)
  (-0.146664 0.00319094 0)
  (-0.154516 0.0010854 0)
  (-0.159367 -0.00146039 0)
  (-0.160541 -0.0045018 0)
  (-0.157249 -0.00819025 0)
  (-0.148452 -0.012773 0)
  (-0.132367 -0.0185542 0)
  (-0.107638 -0.0265434 0)
  (-0.0787897 -0.038626 0)
  (-0.0657759 -0.0544629 0)
  (0.0332694 0.00652834 0)
  (-0.0211054 -0.00278722 0)
  (-0.0124838 -0.00360024 0)
  (-0.00847645 -0.00261519 0)
  (-0.00459645 -0.00247025 0)
  (-0.00160169 -0.00235203 0)
  (0.00331236 -0.00494543 0)
  (0.0077907 -0.00444958 0)
  (0.0119947 -0.00377077 0)
  (0.015445 -0.00335377 0)
  (0.0182895 -0.00322176 0)
  (0.0205259 -0.00304994 0)
  (0.0222171 -0.00261445 0)
  (0.0216848 -0.00145238 0)
  (0.0196049 0.000268075 0)
  (0.017747 0.000978753 0)
  (0.0170098 -0.00132741 0)
  (0.0245406 -0.00197375 0)
  (-0.0246313 0.0107308 0)
  (0.266448 0.135336 0)
  (-0.144044 0.0196571 0)
  (-0.0985181 0.0186734 0)
  (-0.114945 0.0189759 0)
  (-0.127238 0.0173214 0)
  (-0.137679 0.0144871 0)
  (-0.145832 0.0106915 0)
  (-0.151265 0.00591286 0)
  (-0.153411 4.42471e-05 0)
  (-0.151585 -0.00704636 0)
  (-0.14541 -0.0153205 0)
  (-0.134122 -0.0248778 0)
  (-0.117533 -0.0366416 0)
  (-0.0977044 -0.0523357 0)
  (-0.0795393 -0.070413 0)
  (-0.0653083 -0.0774719 0)
  (0.0420747 0.0178256 0)
  (0.0813822 0.00357088 0)
  (0.0209819 0.00532025 0)
  (-0.00190104 0.00492816 0)
  (-0.00775575 0.00273638 0)
  (-0.00959323 4.18362e-05 0)
  (-0.0119153 -0.00287816 0)
  (-0.0123035 -0.00740879 0)
  (-0.0104205 -0.00579926 0)
  (-0.00931427 -0.00416461 0)
  (-0.00975453 -0.00276698 0)
  (-0.0109617 -0.00103518 0)
  (-0.0134065 0.00146525 0)
  (-0.0168909 0.00433325 0)
  (-0.0197024 0.00654304 0)
  (-0.0220185 0.00715221 0)
  (-0.0220343 0.00497145 0)
  (-0.0212112 0.00408862 0)
  (-0.032153 0.00539327 0)
  (-0.076926 0.00752854 0)
  (0.42073 0.205803 0)
  (-0.183908 0.0437272 0)
  (-0.0795089 0.0348101 0)
  (-0.101247 0.0312984 0)
  (-0.113086 0.0275669 0)
  (-0.123055 0.0225575 0)
  (-0.131063 0.0161857 0)
  (-0.136836 0.00836071 0)
  (-0.139917 -0.000981258 0)
  (-0.139601 -0.011744 0)
  (-0.136026 -0.0238221 0)
  (-0.129394 -0.0369835 0)
  (-0.120477 -0.0513299 0)
  (-0.110806 -0.0666846 0)
  (-0.102265 -0.0802265 0)
  (-0.0980792 -0.0859146 0)
  (-0.107438 -0.0828396 0)
  (-0.0054449 0.0210999 0)
  (-0.0391947 0.0122443 0)
  (-0.0400917 0.00969939 0)
  (-0.0379527 0.00452949 0)
  (-0.0357571 -0.000919717 0)
  (-0.0332521 -0.00616831 0)
  (-0.0278979 -0.00741773 0)
  (-0.037992 -0.00657693 0)
  (-0.0425403 -0.00516051 0)
  (-0.045559 -0.00411011 0)
  (-0.0471857 -0.0032261 0)
  (-0.047055 -0.00241711 0)
  (-0.045428 -0.00184719 0)
  (-0.0427006 -0.00209197 0)
  (-0.0367483 -0.0042109 0)
  (-0.0244295 -0.00815646 0)
  (-0.0104201 -0.00365886 0)
  (0.00530235 -0.00206113 0)
  (-0.044299 -0.00669525 0)
  (0.545379 0.263881 0)
  (-0.225708 0.0716616 0)
  (-0.0573872 0.0508121 0)
  (-0.085165 0.0433205 0)
  (-0.0960146 0.037869 0)
  (-0.104478 0.0312938 0)
  (-0.111389 0.0231893 0)
  (-0.116581 0.0132776 0)
  (-0.119666 0.00140566 0)
  (-0.120006 -0.0121847 0)
  (-0.118041 -0.0266842 0)
  (-0.114957 -0.0413023 0)
  (-0.112247 -0.0555702 0)
  (-0.111632 -0.0685774 0)
  (-0.115271 -0.07766 0)
  (-0.127315 -0.0777392 0)
  (-0.148482 -0.059075 0)
  (-0.145494 -0.00732515 0)
  (-0.104983 0.0139465 0)
  (-0.092926 0.00871719 0)
  (-0.0837637 0.00504338 0)
  (-0.0805356 0.000912567 0)
  (-0.0798323 -0.00355465 0)
  (-0.0808291 -0.00733115 0)
  (-0.0796729 -0.00613472 0)
  (-0.074427 -0.00571765 0)
  (-0.0691875 -0.00606152 0)
  (-0.0637431 -0.00641569 0)
  (-0.0580761 -0.00683546 0)
  (-0.0520602 -0.00741876 0)
  (-0.0451508 -0.00835159 0)
  (-0.0363826 -0.0100241 0)
  (-0.0258205 -0.0130735 0)
  (-0.0198798 -0.0174267 0)
  (-0.0123968 -0.0155989 0)
  (0.000251865 -0.0109257 0)
  (-0.00892527 0.0080514 0)
  (0.642517 0.311435 0)
  (-0.260939 0.100848 0)
  (-0.0360562 0.0636111 0)
  (-0.0667553 0.053315 0)
  (-0.0767486 0.0461182 0)
  (-0.0827823 0.0379931 0)
  (-0.0873369 0.0283954 0)
  (-0.0905043 0.0168317 0)
  (-0.0919354 0.00298493 0)
  (-0.0907668 -0.0126666 0)
  (-0.0882847 -0.0283165 0)
  (-0.0860751 -0.0424975 0)
  (-0.0856706 -0.0547379 0)
  (-0.0882666 -0.0645811 0)
  (-0.0947517 -0.0708137 0)
  (-0.105389 -0.0710527 0)
  (-0.115999 -0.0603033 0)
  (-0.117154 -0.0338278 0)
  (-0.107339 -0.0124484 0)
  (-0.0951393 -0.00340172 0)
  (-0.0855965 -0.00146933 0)
  (-0.0794156 -0.00230245 0)
  (-0.0756882 -0.00447983 0)
  (-0.0736624 -0.00634193 0)
  (-0.0715442 -0.00632088 0)
  (-0.0685714 -0.00669891 0)
  (-0.0654161 -0.00708233 0)
  (-0.062195 -0.00746384 0)
  (-0.0588998 -0.00792399 0)
  (-0.0554682 -0.00863978 0)
  (-0.0516653 -0.00993928 0)
  (-0.0471422 -0.0123922 0)
  (-0.0419575 -0.016733 0)
  (-0.0364598 -0.0229106 0)
  (-0.0290047 -0.0270405 0)
  (-0.0152196 -0.0297788 0)
  (0.0119616 -0.0285387 0)
  (0.0443499 -0.036394 0)
  (0.0842576 -0.0170512 0)
  (-0.0459269 0.028959 0)
  (0.703347 0.353809 0)
  (-0.288101 0.126583 0)
  (-0.021685 0.0676142 0)
  (-0.0432499 0.061319 0)
  (-0.053381 0.0527459 0)
  (-0.0571918 0.0420575 0)
  (-0.0584406 0.0306685 0)
  (-0.0582756 0.0176728 0)
  (-0.0564084 0.0020913 0)
  (-0.0515476 -0.0152605 0)
  (-0.0475743 -0.0309842 0)
  (-0.0453745 -0.043482 0)
  (-0.045999 -0.0528041 0)
  (-0.0500771 -0.0592041 0)
  (-0.0576416 -0.0621578 0)
  (-0.0676769 -0.0600116 0)
  (-0.0765971 -0.0502856 0)
  (-0.0798096 -0.033995 0)
  (-0.0767334 -0.019845 0)
  (-0.0707826 -0.0117071 0)
  (-0.0652407 -0.00798577 0)
  (-0.0611445 -0.00697254 0)
  (-0.0585461 -0.00755246 0)
  (-0.0571107 -0.00841791 0)
  (-0.0560509 -0.00872864 0)
  (-0.0549455 -0.00907325 0)
  (-0.0538974 -0.0094338 0)
  (-0.0530131 -0.0097633 0)
  (-0.0524056 -0.0101193 0)
  (-0.0522048 -0.0107069 0)
  (-0.0524929 -0.0119593 0)
  (-0.0532958 -0.0145896 0)
  (-0.0546433 -0.019365 0)
  (-0.0560832 -0.0263598 0)
  (-0.0556973 -0.0346228 0)
  (-0.0504609 -0.0446352 0)
  (-0.0383724 -0.0555473 0)
  (-0.0239648 -0.0631184 0)
  (0.048076 -0.0162104 0)
  (-0.0927544 0.0759925 0)
  (0.721164 0.392552 0)
  (-0.298303 0.124454 0)
  (-0.00580714 0.0385854 0)
  (0.00132893 0.0651375 0)
  (-0.0134187 0.0623496 0)
  (-0.0195523 0.0435596 0)
  (-0.0179155 0.028325 0)
  (-0.0140159 0.0138557 0)
  (-0.00615882 -0.0036046 0)
  (0.000974689 -0.0215465 0)
  (0.00481544 -0.0354227 0)
  (0.00560667 -0.0447188 0)
  (0.00336381 -0.0504233 0)
  (-0.00227276 -0.0534216 0)
  (-0.0108044 -0.053783 0)
  (-0.020975 -0.0507615 0)
  (-0.0301626 -0.0432022 0)
  (-0.0356432 -0.0323419 0)
  (-0.0369819 -0.0222074 0)
  (-0.0359658 -0.0151677 0)
  (-0.034427 -0.0110759 0)
  (-0.0332442 -0.00919129 0)
  (-0.0327366 -0.00876036 0)
  (-0.0328618 -0.0089199 0)
  (-0.0333045 -0.00911296 0)
  (-0.0338644 -0.00932511 0)
  (-0.0345818 -0.00945519 0)
  (-0.0355797 -0.00939753 0)
  (-0.0370874 -0.00912212 0)
  (-0.0394904 -0.00876928 0)
  (-0.0433497 -0.00879892 0)
  (-0.0493204 -0.0100803 0)
  (-0.0579452 -0.0136043 0)
  (-0.0690899 -0.0198501 0)
  (-0.0817736 -0.0289172 0)
  (-0.0941413 -0.0410711 0)
  (-0.102361 -0.0542042 0)
  (-0.102245 -0.0567047 0)
  (-0.0985911 -0.0148793 0)
  (-0.154558 0.131971 0)
  (0.813876 0.410901 0)
  (-0.115977 0.0994255 0)
  (0.0686466 -0.0332056 0)
  (0.109271 0.0260657 0)
  (0.0800297 0.0441493 0)
  (0.0604726 0.0275939 0)
  (0.058427 0.0111789 0)
  (0.0608839 -0.00281285 0)
  (0.0668567 -0.0166855 0)
  (0.0698139 -0.0286811 0)
  (0.0688603 -0.0376736 0)
  (0.0649773 -0.0433037 0)
  (0.0588321 -0.0459257 0)
  (0.0507287 -0.0461438 0)
  (0.0409631 -0.0444399 0)
  (0.0302005 -0.0408584 0)
  (0.0199311 -0.0350791 0)
  (0.0119873 -0.0275985 0)
  (0.00703357 -0.0202834 0)
  (0.00421899 -0.0146178 0)
  (0.00241867 -0.0108887 0)
  (0.000930974 -0.00882628 0)
  (-0.00062848 -0.0079799 0)
  (-0.00236449 -0.00779284 0)
  (-0.00420686 -0.00783088 0)
  (-0.00608612 -0.00789961 0)
  (-0.00802717 -0.00780844 0)
  (-0.0100934 -0.0073566 0)
  (-0.0124167 -0.00635851 0)
  (-0.0152768 -0.00471917 0)
  (-0.0191964 -0.00256453 0)
  (-0.024927 -0.000323011 0)
  (-0.0344008 0.000797439 0)
  (-0.0500475 -0.0013989 0)
  (-0.0738648 -0.00952811 0)
  (-0.105231 -0.0249162 0)
  (-0.13837 -0.0457775 0)
  (-0.17204 -0.0700899 0)
  (-0.222275 -0.0927975 0)
  (-0.417886 -0.110426 0)
  (0.941837 0.396689 0)
  (0.445795 0.254848 0)
  (0.399291 0.166001 0)
  (0.388326 0.158268 0)
  (0.295899 0.126509 0)
  (0.236149 0.0848274 0)
  (0.208695 0.0508785 0)
  (0.191976 0.0248047 0)
  (0.175625 0.00333923 0)
  (0.158588 -0.0134696 0)
  (0.143003 -0.0247519 0)
  (0.128731 -0.0310938 0)
  (0.115366 -0.0336187 0)
  (0.102641 -0.033378 0)
  (0.0903841 -0.0311795 0)
  (0.0785984 -0.027603 0)
  (0.0677044 -0.0230489 0)
  (0.0584444 -0.0179818 0)
  (0.0512191 -0.0131668 0)
  (0.0457484 -0.00927515 0)
  (0.0414719 -0.00654349 0)
  (0.0379201 -0.00489266 0)
  (0.0347635 -0.00408432 0)
  (0.0318107 -0.00379772 0)
  (0.0289898 -0.00374664 0)
  (0.0262747 -0.00373142 0)
  (0.0236392 -0.00357378 0)
  (0.0210852 -0.00308491 0)
  (0.0186515 -0.0020551 0)
  (0.0164118 -0.0002899 0)
  (0.0146497 0.00233992 0)
  (0.0133199 0.00585956 0)
  (0.0123377 0.00985831 0)
  (0.0116744 0.0131304 0)
  (0.01104 0.0140689 0)
  (0.0112033 0.0113788 0)
  (0.0107843 0.00513176 0)
  (0.0151792 -0.0047382 0)
  (0.0475736 -0.0573747 0)
  (-0.293776 -0.173854 0)
  (-0.960119 0.060126 0)
  (0.2468 0.151543 0)
  (0.181925 0.1212 0)
  (0.179671 0.0878389 0)
  (0.19187 0.0581812 0)
  (0.196147 0.0342286 0)
  (0.192665 0.0167251 0)
  (0.18512 0.00485557 0)
  (0.175243 -0.00379508 0)
  (0.16386 -0.00944819 0)
  (0.15146 -0.0123413 0)
  (0.138682 -0.0128106 0)
  (0.126136 -0.0113257 0)
  (0.114318 -0.00846992 0)
  (0.10367 -0.00488748 0)
  (0.0945374 -0.00114197 0)
  (0.0870125 0.00221754 0)
  (0.0809311 0.00472554 0)
  (0.0759952 0.00622767 0)
  (0.0718848 0.006812 0)
  (0.0683184 0.0066996 0)
  (0.0650828 0.00617008 0)
  (0.0620476 0.00548604 0)
  (0.0591479 0.004852 0)
  (0.0563692 0.00443451 0)
  (0.0537583 0.00438597 0)
  (0.0514363 0.00485189 0)
  (0.0496169 0.00590324 0)
  (0.0486181 0.007382 0)
  (0.0486052 0.00936181 0)
  (0.0501557 0.0112766 0)
  (0.053618 0.0115725 0)
  (0.0586856 0.00821459 0)
  (0.0655383 -0.00128302 0)
  (0.0716223 -0.0144366 0)
  (0.0768452 -0.0293319 0)
  (0.0928316 -0.0591935 0)
  (-0.0336358 -0.121879 0)
  (-0.502614 0.111588 0)
  (0.22025 0.0467456 0)
  (0.115791 0.0460534 0)
  (0.128753 0.0441301 0)
  (0.157929 0.0247857 0)
  (0.176176 0.000941536 0)
  (0.183862 -0.0212599 0)
  (0.185036 -0.0408414 0)
  (0.181275 -0.055243 0)
  (0.173474 -0.0651238 0)
  (0.162988 -0.0717573 0)
  (0.151133 -0.0759753 0)
  (0.139031 -0.0783159 0)
  (0.127589 -0.0791515 0)
  (0.117472 -0.0788008 0)
  (0.109115 -0.0771213 0)
  (0.102733 -0.074498 0)
  (0.0981958 -0.0719387 0)
  (0.0950529 -0.069948 0)
  (0.0927515 -0.0686513 0)
  (0.0908211 -0.067954 0)
  (0.0889478 -0.0676641 0)
  (0.0869768 -0.0675775 0)
  (0.08488 -0.0675219 0)
  (0.0827202 -0.0673636 0)
  (0.0806322 -0.0669998 0)
  (0.0788255 -0.0663419 0)
  (0.0775798 -0.0652459 0)
  (0.07708 -0.0634135 0)
  (0.0775949 -0.0611792 0)
  (0.0793195 -0.0595492 0)
  (0.0821496 -0.0601922 0)
  (0.0857119 -0.0620933 0)
  (0.0883187 -0.0646404 0)
  (0.0891196 -0.0676415 0)
  (0.0867294 -0.0695727 0)
  (0.108926 -0.0774781 0)
  (-0.0163177 -0.11638 0)
  (0.689235 0.180102 0)
  (0.0905324 -0.281842 0)
  (-0.335209 0.146145 0)
  (0.143672 0.0589185 0)
  (0.0304934 0.0966542 0)
  (0.062229 0.116844 0)
  (0.100656 0.121851 0)
  (0.127092 0.128825 0)
  (0.140164 0.141585 0)
  (0.143295 0.159421 0)
  (0.1409 0.176903 0)
  (0.135857 0.192435 0)
  (0.129815 0.206174 0)
  (0.12386 0.217822 0)
  (0.118685 0.226889 0)
  (0.114638 0.233082 0)
  (0.111794 0.236523 0)
  (0.110063 0.236841 0)
  (0.109254 0.234643 0)
  (0.109108 0.23164 0)
  (0.109327 0.22879 0)
  (0.109648 0.226471 0)
  (0.10988 0.224727 0)
  (0.109908 0.223445 0)
  (0.109683 0.222465 0)
  (0.109213 0.221632 0)
  (0.10855 0.220815 0)
  (0.107774 0.219904 0)
  (0.106994 0.218795 0)
  (0.106331 0.217317 0)
  (0.105926 0.215125 0)
  (0.105882 0.212339 0)
  (0.106025 0.209541 0)
  (0.105675 0.20795 0)
  (0.103192 0.20448 0)
  (0.0966713 0.19853 0)
  (0.0834524 0.190202 0)
  (0.0596617 0.178159 0)
  (0.118134 0.168188 0)
  (-0.372038 0.301694 0)
)
;

boundaryField
{
  floor
  {
    type noSlip;
  }
  ceiling
  {
    type noSlip;
  }
  sWall
  {
    type noSlip;
  }
  nWall
  {
    type noSlip;
  }
  sideWalls
  {
    type empty;
  }
  glass1
  {
    type noSlip;
  }
  glass2
  {
    type noSlip;
  }
  sun
  {
    type noSlip;
  }
  heatsource1
  {
    type noSlip;
  }
  heatsource2
  {
    type noSlip;
  }
  Table_master
  {
    type noSlip;
  }
  Table_slave
  {
    type noSlip;
  }
  inlet
  {
    type fixedValue;
    value uniform (0.0707107 -0.0707107 0);
  }
  outlet
  {
    type zeroGradient;
  }
} 	// ************************************************************************* //

