/*--------------------------------*- C++ -*----------------------------------*\
  =========                 |
  \\      /  F ield         | OpenFOAM: The Open Source CFD Toolbox
   \\    /   O peration     | Website:  https://openfoam.org
    \\  /    A nd           | Version:  6
     \\/     M anipulation  |
\*---------------------------------------------------------------------------*/
FoamFile
{
    version     2.0;
    format      ascii;
    class       surfaceScalarField;
    location    "1000";
    object      phi;
}
// * * * * * * * * * * * * * * * * * * * * * * * * * * * * * * * * * * * * * //

dimensions      [1 0 -1 0 0 0 0];

internalField   nonuniform List<scalar> 
852
(
-0.00292827
0.00298436
-0.00395886
0.00103059
-0.00474682
0.000787948
-0.0053685
0.000621676
-0.00579593
0.000427426
-0.00600772
0.00021178
-0.00598248
-2.52446e-05
-0.00570059
-0.0002819
-0.00516809
-0.000532499
-0.00442946
-0.00073864
-0.00355934
-0.000870121
-0.00264371
-0.000915643
-0.00175493
-0.00088878
-0.00090933
-0.000845608
-0.000907946
-0.00065075
0.000653369
-0.000298285
-0.000352468
0.000314175
-0.000612463
0.000779902
-0.000465729
0.00108339
-0.000303495
0.00126838
-0.000184987
0.00136779
-9.9414e-05
0.00141776
-4.99688e-05
0.00144616
-2.84048e-05
0.00146336
-1.71981e-05
0.00147265
-9.29626e-06
0.00147499
-2.34034e-06
0.00146823
6.75776e-06
0.00144372
2.45094e-05
0.00137869
6.50288e-05
0.00123496
0.000143725
0.000997372
0.000237591
0.000701476
0.000295896
0.000705022
-0.00208734
0.00522276
-0.00308492
0.00202817
-0.00388853
0.00159155
-0.00449523
0.00122836
-0.00491097
0.000843161
-0.00512388
0.000424682
-0.00510927
-3.98539e-05
-0.00484945
-0.00054173
-0.0043606
-0.00102136
-0.00369749
-0.00140176
-0.00293821
-0.00162941
-0.00216348
-0.00169038
-0.00144691
-0.00160536
-0.000883901
-0.00140862
-0.000684527
-0.00110733
-0.000127661
-0.000556923
-0.000127717
0.000414064
0.000246723
0.000842028
-0.000780435
0.00108626
-0.000856694
0.00129079
-0.000670268
0.00143934
-0.000452043
0.00152264
-0.00026829
0.00153448
-0.000111256
0.00153803
-5.35228e-05
0.00154222
-3.25958e-05
0.0015457
-2.06867e-05
0.00154806
-1.16524e-05
0.00154918
-3.46363e-06
0.00154813
7.80809e-06
0.00154123
3.14029e-05
0.00149942
0.000106844
0.00132268
0.00032046
0.00101669
0.000543585
0.000629409
0.000683174
0.00134356
-0.00146027
0.00691402
-0.00231692
0.00288482
-0.0030218
0.00229642
-0.00353331
0.00173987
-0.00388991
0.00119975
-0.00407634
0.000611114
-0.00404991
-6.62912e-05
-0.00378182
-0.000809827
-0.00330714
-0.00149605
-0.00269667
-0.00201223
-0.00203009
-0.002296
-0.0013751
-0.00234538
-0.000785165
-0.0021953
-0.000319512
-0.00187428
-7.71744e-06
-0.00141912
0.000217321
-0.000781966
8.95991e-05
0.00148542
-0.00123097
0.00169871
-0.000993735
0.00168259
-0.000840576
0.00168611
-0.00067379
0.00170698
-0.000472915
0.0017078
-0.000269112
0.0015967
0.00154332
0.00151088
0.00149034
0.00147884
0.00147553
0.00148349
0.00151504
0.00162204
0.00134182
0.000600676
0.000998763
0.000886645
0.000557461
0.00112448
0.00191495
-0.00102025
0.00823325
-0.00169778
0.00356233
-0.0021544
0.00275304
-0.00247994
0.00206541
-0.00270827
0.00142807
-0.00281278
0.000715622
-0.0027216
-0.00015748
-0.00240685
-0.00112459
-0.00194086
-0.00196205
-0.00140717
-0.00254593
-0.000873945
-0.00282923
-0.000383134
-0.0028362
4.55985e-05
-0.00262404
0.000404394
-0.00223308
0.000716613
-0.00173135
0.00109469
-0.00116004
0.00183532
-0.000651037
0.0024241
-0.000581717
0.0020103
-0.000817172
0.00188925
-0.000872687
0.001788
-0.00073933
0.00170355
-0.000589341
0.00166245
-0.000431822
0.00165838
-0.000265039
0.00176755
-0.000109328
0.00183918
-7.17826e-05
0.00189765
-5.86247e-05
0.00194245
-4.49485e-05
0.00195961
-1.73138e-05
0.00192845
3.10112e-05
0.00182489
0.000103399
0.00161737
0.000207371
0.00125235
0.000364868
0.00112625
0.000726774
0.000842656
0.00117024
0.000405455
0.00156168
0.0023387
-0.000716294
0.00930621
-0.00123103
0.00407707
-0.00131409
0.00283609
-0.00136399
0.00211531
-0.00138864
0.00145271
-0.00132313
0.000650108
-0.00107876
-0.000401855
-0.000691862
-0.00151149
-0.000265389
-0.00238853
0.000129515
-0.00294084
0.000459041
-0.00315877
0.000716361
-0.00309352
0.000910267
-0.00281795
0.00106987
-0.00239269
0.00122483
-0.00188632
0.00142888
-0.0013641
0.00170904
-0.000931206
0.00186009
-0.000732765
0.00176349
-0.000720584
0.0015928
-0.000701999
0.0014531
-0.000599624
0.00134207
-0.000478318
0.0012701
-0.000359855
0.00124957
-0.000244509
0.00129606
-0.00015582
0.00134665
-0.000122368
0.00140136
-0.000113334
0.00145639
-9.99747e-05
0.00150095
-6.18814e-05
0.00151581
1.61549e-05
0.00148124
0.000137971
0.00138604
0.000302571
0.00123078
0.000520127
0.00109725
0.000860312
0.000954807
0.00131268
0.000639385
0.0018771
0.000566183
0.00241191
-0.000972355
0.00153833
-0.0014356
0.000463043
-0.00138884
-0.000626614
0.0103381
-0.000981931
0.00443238
-0.000555822
0.00240998
-0.000194128
0.00175361
8.1086e-05
0.00117749
0.000433612
0.000297579
0.000902219
-0.000870467
0.00132302
-0.0019323
0.00162359
-0.0026891
0.00178983
-0.0031071
0.00184332
-0.00321226
0.00181357
-0.00306378
0.00172825
-0.00273265
0.0016232
-0.00228764
0.0015317
-0.00179482
0.00148145
-0.00131385
0.00146781
-0.000917566
0.0014125
-0.000677464
0.00126802
-0.000576098
0.00107872
-0.000512707
0.000915153
-0.000436057
0.000793944
-0.00035711
0.000720317
-0.000286228
0.000700483
-0.000224675
0.000728918
-0.000184253
0.00078112
-0.000174569
0.000846953
-0.000179166
0.000921973
-0.000174993
0.00100057
-0.00014048
0.00107039
-5.36586e-05
0.00111428
9.40847e-05
0.00112957
0.000287276
0.00112425
0.000525451
0.00114654
0.000838022
0.00124423
0.001215
0.00142962
0.0016917
0.0018688
0.00197273
0.00212453
0.00128261
0.0017329
0.000854675
0.000400424
-0.000686058
0.0114734
-0.000571098
0.00431741
0.000553489
0.00128538
0.00132754
0.000979552
0.00196503
0.000539992
0.00263181
-0.0003692
0.00319582
-0.00143449
0.00351447
-0.00225096
0.00358245
-0.00275709
0.00344069
-0.00296535
0.00314717
-0.00291876
0.00276249
-0.00267911
0.00233991
-0.00231008
0.00192638
-0.00187411
0.00155831
-0.00142675
0.00125453
-0.00101007
0.0010148
-0.000677837
0.000807319
-0.000469987
0.000600486
-0.000369265
0.000406511
-0.000318732
0.000251309
-0.000280855
0.000144171
-0.000249972
8.48216e-05
-0.000226878
7.18451e-05
-0.000211697
9.67497e-05
-0.000209156
0.000144195
-0.000222012
0.000205215
-0.000240185
0.000279162
-0.000248937
0.000370304
-0.00023162
0.0004834
-0.000166752
0.00060465
-2.7162e-05
0.000724675
0.000167253
0.000856203
0.000393925
0.00103759
0.000656634
0.0013175
0.000935099
0.00175623
0.00125297
0.00241995
0.00130901
0.00295661
0.000745954
0.0029826
0.000828688
0.00344441
0.00257763
0.00939827
0.00327242
0.00362261
0.00365482
0.000902978
0.00428606
0.000348315
0.00505115
-0.000225107
0.00570563
-0.00102368
0.00597477
-0.00170364
0.00586771
-0.00214392
0.00545297
-0.00234236
0.00481844
-0.00233083
0.00405707
-0.0021574
0.0032535
-0.00187556
0.00247151
-0.00152809
0.00176048
-0.00116307
0.00115462
-0.000820901
0.000663744
-0.000519196
0.000293342
-0.000307434
2.0238e-05
-0.000196883
-0.000188854
-0.000160173
-0.000349627
-0.000157959
-0.000467565
-0.000162916
-0.000546942
-0.000170593
-0.000593105
-0.000180713
-0.000611047
-0.000193754
-0.00060838
-0.000211821
-0.000595102
-0.000235287
-0.000576609
-0.000258674
-0.000551655
-0.000273888
-0.000511681
-0.00027159
-0.000437704
-0.000240726
-0.000300925
-0.000163938
-0.000121596
-1.20735e-05
8.70771e-05
0.000185255
0.000353395
0.000390319
0.00069043
0.000598066
0.00114071
0.00080269
0.00164393
0.000805794
0.00186516
0.000524726
0.00111764
0.00157621
0.00480999
0.00994907
0.0135634
0.0124232
0.00204314
0.0117043
0.00106721
0.0110664
0.000412748
0.0102319
-0.000189152
0.00912995
-0.000601738
0.00786065
-0.000874641
0.00651702
-0.000998745
0.00517132
-0.000985149
0.00388894
-0.00087503
0.0027239
-0.000710515
0.00170048
-0.000504676
0.000841005
-0.000303596
0.000155875
-0.000135769
-0.00033976
-2.35583e-05
-0.000657004
9.81177e-06
-0.000856418
2.53252e-06
-0.000995564
-2.10249e-05
-0.00110409
-4.94347e-05
-0.00119012
-7.68757e-05
-0.00125815
-0.000102564
-0.00131284
-0.000126023
-0.00135919
-0.000147394
-0.00140404
-0.000166968
-0.00145536
-0.000183965
-0.00152051
-0.000193526
-0.00160652
-0.000187873
-0.00172194
-0.000156168
-0.00187699
-8.56702e-05
-0.00207662
3.56878e-05
-0.00230641
0.000217727
-0.00259537
0.000474211
-0.00302696
0.000821912
-0.00368989
0.001261
-0.00465229
0.00176509
-0.00603198
0.00218549
-0.00771531
0.00220806
-0.00726394
0.00112484
-0.00217975
0.0046885
0.00352446
0.00386924
0.00188643
0.00430493
-2.30083e-05
0.004329
-0.000213253
0.00394125
-0.000213998
0.00332526
-0.000258657
0.00258296
-0.000256443
0.00178225
-0.000184425
0.00096994
-6.27173e-05
0.000188332
7.11004e-05
-0.000484968
0.000168632
-0.000983729
0.000195168
-0.00131116
0.000191668
-0.00150438
0.000169661
-0.00162248
0.000127915
-0.00170371
8.37669e-05
-0.00176941
4.46787e-05
-0.00183177
1.29219e-05
-0.00189521
-1.34307e-05
-0.001961
-3.67724e-05
-0.00203014
-5.68776e-05
-0.0021047
-7.28283e-05
-0.00218778
-8.38881e-05
-0.00228129
-9.0444e-05
-0.00238631
-8.85018e-05
-0.00250185
-7.23363e-05
-0.002624
-3.40116e-05
-0.00274522
3.555e-05
-0.0028533
0.000143771
-0.00294523
0.000309666
-0.00302893
0.000557908
-0.00310993
0.000902915
-0.00318413
0.00133521
-0.00320799
0.00178895
-0.00313296
0.00211046
-0.0027861
0.0018612
-0.00152244
-0.000138815
-0.0036305
-0.000539752
0.00412828
0.000307446
0.0010392
-2.36948e-05
0.000308114
-0.000339197
0.000102245
-0.000624022
7.08308e-05
-0.000961405
7.87344e-05
-0.00132802
0.000110187
-0.00166851
0.000156064
-0.00193252
0.000201303
-0.00209741
0.000235994
-0.00218029
0.000251521
-0.00222079
0.00023567
-0.00223253
0.000203416
-0.00223008
0.000167213
-0.00223293
0.00013077
-0.0022479
9.87364e-05
-0.00227545
7.22367e-05
-0.00231331
5.07791e-05
-0.00236093
3.41926e-05
-0.00241857
2.08745e-05
-0.00248444
8.99159e-06
-0.00255565
-1.61526e-06
-0.00262938
-1.01487e-05
-0.00270344
-1.63815e-05
-0.00277332
-1.86188e-05
-0.00283184
-1.38172e-05
-0.00286796
2.11435e-06
-0.00287178
3.93722e-05
-0.00283402
0.000106013
-0.00273345
0.0002091
-0.00253921
0.000363673
-0.00222447
0.000588179
-0.00176917
0.000879906
-0.00114479
0.00116457
-0.000181668
0.00114735
0.0011323
0.000547233
0.00159293
-0.000599448
-0.00195905
-0.00720196
-0.0100886
-0.00591763
-0.00485844
-0.00453906
-0.00442985
-0.00435473
-0.00427375
-0.00416298
-0.00400775
-0.00380854
-0.00357584
-0.00332876
-0.00309863
-0.00290171
-0.00274176
-0.00261884
-0.0025284
-0.0024648
-0.00242291
-0.00239781
-0.00238617
-0.00238651
-0.00239751
-0.00241703
-0.00244273
-0.00247056
-0.00249344
-0.0025002
-0.00246945
-0.00237179
-0.00217076
-0.00181486
-0.00123417
-0.000361479
0.000796102
0.00193644
0.00247643
0.00186934
)
;

boundaryField
{
    floor
    {
        type            calculated;
        value           nonuniform List<scalar> 
29
(
0
0
0
0
0
0
0
0
0
0
0
0
0
0
0
0
0
0
0
0
-3.54547e-06
-9.12875e-06
-1.39328e-05
-1.82941e-05
-1.38913e-06
-2.6224e-06
-7.41963e-06
-7.73091e-06
-7.07077e-06
)
;
    }
    ceiling
    {
        type            calculated;
        value           nonuniform List<scalar> 
43
(
-4.53223e-05
-4.40031e-05
-4.26898e-05
-1.99785e-05
-1.12521e-05
-6.9643e-06
-4.2783e-06
-2.23934e-06
-5.78744e-07
8.36794e-07
2.10423e-06
3.29402e-06
4.45036e-06
5.54566e-06
6.49954e-06
7.26619e-06
7.85455e-06
8.29963e-06
8.63762e-06
8.89602e-06
9.09294e-06
9.23959e-06
9.33847e-06
9.3851e-06
9.37663e-06
9.32073e-06
9.21717e-06
9.06653e-06
8.86949e-06
8.62636e-06
8.35696e-06
8.07182e-06
7.77912e-06
7.48956e-06
7.22277e-06
6.99186e-06
7.00952e-06
7.24646e-06
7.65217e-06
8.89819e-06
1.14268e-05
8.32939e-06
-6.40805e-05
)
;
    }
    sWall
    {
        type            calculated;
        value           uniform -0.000274906;
    }
    nWall
    {
        type            calculated;
        value           nonuniform List<scalar> 6(-4.69647e-05 -5.63623e-05 -6.13906e-05 -7.16914e-05 -7.85033e-05 -9.86145e-05);
    }
    sideWalls
    {
        type            empty;
        value           nonuniform 0();
    }
    glass1
    {
        type            calculated;
        value           nonuniform List<scalar> 9(-5.61041e-05 -0.000151063 -0.000230991 -0.000298987 -0.000356666 -0.000405274 -0.000449222 -0.000502545 -0.000562232);
    }
    glass2
    {
        type            calculated;
        value           nonuniform List<scalar> 2(-0.000247931 -0.000274199);
    }
    sun
    {
        type            calculated;
        value           uniform 0;
    }
    heatsource1
    {
        type            calculated;
        value           nonuniform List<scalar> 3(2.03901e-07 2.03866e-07 2.03882e-07);
    }
    heatsource2
    {
        type            calculated;
        value           nonuniform List<scalar> 4(5.10688e-08 5.11953e-08 0 0);
    }
    Table_master
    {
        type            calculated;
        value           nonuniform List<scalar> 9(-1.52928e-07 -1.53004e-07 -1.53032e-07 -1.5305e-07 -1.53063e-07 -1.53072e-07 -1.53075e-07 -1.53068e-07 -1.53034e-07);
    }
    Table_slave
    {
        type            calculated;
        value           nonuniform List<scalar> 9(1.52808e-07 1.52832e-07 1.52816e-07 1.52803e-07 1.52799e-07 1.52803e-07 1.5282e-07 1.52862e-07 1.52942e-07);
    }
    inlet
    {
        type            calculated;
        value           uniform -0.00616985;
    }
    outlet
    {
        type            calculated;
        value           nonuniform List<scalar> 2(0.00752219 0.00293064);
    }
}


// ************************************************************************* //
