/*--------------------------------*- C++ -*----------------------------------*\
  =========                 |
  \\      /  F ield         | OpenFOAM: The Open Source CFD Toolbox
   \\    /   O peration     | Website:  https://openfoam.org
    \\  /    A nd           | Version:  6
     \\/     M anipulation  |
\*---------------------------------------------------------------------------*/
FoamFile
{
    version     2.0;
    format      ascii;
    class       volScalarField;
    location    "460";
    object      epsilon;
}
// * * * * * * * * * * * * * * * * * * * * * * * * * * * * * * * * * * * * * //

dimensions      [0 2 -3 0 0 0 0];

internalField   nonuniform List<scalar> 
459
(
0.00010931
0.000152836
0.000178851
0.000213302
0.000251259
0.00029683
0.000344701
0.000388319
0.000418292
0.000420227
0.000349544
0.000278192
0.000203493
0.000145449
9.91599e-05
2.34762e-05
5.50153e-05
8.35249e-05
8.98483e-05
8.83689e-05
8.13728e-05
6.86456e-05
5.65243e-05
4.66927e-05
3.89417e-05
3.28099e-05
2.79293e-05
2.4004e-05
2.076e-05
1.79754e-05
1.5449e-05
1.29705e-05
9.75041e-06
6.99192e-06
0.000205903
0.00024324
0.000138706
0.000143579
0.000158686
0.000186406
0.000223158
0.000259547
0.000283825
0.000285967
0.000247122
0.000199223
0.00015647
0.000125168
9.65913e-05
0.000152967
8.90462e-05
7.93592e-05
0.000161388
9.22958e-05
7.57929e-05
6.72821e-05
6.15252e-05
6.27272e-05
5.24526e-05
4.23867e-05
3.41296e-05
2.76048e-05
2.25094e-05
1.8551e-05
1.54458e-05
1.31279e-05
1.19012e-05
1.2647e-05
1.04489e-05
1.15899e-05
0.000320091
0.000432307
0.000136822
0.000128189
0.000145153
0.000177435
0.000218503
0.000256923
0.000285345
0.000293178
0.000265369
0.000220213
0.000175716
0.000138136
0.000107044
0.000104426
0.000132909
9.36705e-05
0.000115827
9.12826e-05
7.95811e-05
7.1284e-05
7.00389e-05
0.000165437
0.000110741
7.68976e-05
5.55237e-05
4.15768e-05
3.21746e-05
2.57244e-05
2.12801e-05
1.83848e-05
1.40856e-05
1.33566e-05
1.23454e-05
1.48549e-05
0.000462108
0.000771519
0.000162344
0.000122982
0.000141579
0.000183513
0.000230054
0.000269467
0.000303699
0.00031694
0.000292507
0.000243766
0.000192988
0.000151632
0.000119593
0.000104047
0.000107352
0.000183143
0.000137532
0.000109974
9.6499e-05
8.73722e-05
7.9425e-05
7.96464e-05
0.000221167
0.000166921
0.000134248
0.000112343
9.57328e-05
8.20066e-05
7.0009e-05
5.86109e-05
4.69834e-05
2.68434e-05
1.82125e-05
1.94631e-05
2.04406e-05
0.000648416
0.00131834
0.000250228
0.000132159
0.00015133
0.000220531
0.000269432
0.000308107
0.000347665
0.000361819
0.000331929
0.000269568
0.000204553
0.000154795
0.000121704
0.000104959
0.000107539
0.000121082
0.000118635
0.000116314
0.000111848
0.000103829
9.32487e-05
8.35783e-05
8.45875e-05
8.01123e-05
7.52667e-05
7.00286e-05
6.40705e-05
5.74003e-05
5.01662e-05
4.27502e-05
3.5545e-05
2.70304e-05
2.01733e-05
2.28771e-05
2.25894e-05
2.95949e-05
2.98935e-05
3.00309e-05
0.000905074
0.00201812
0.000514408
0.000206526
0.000219211
0.000315988
0.000346835
0.000379501
0.000420491
0.000433087
0.000388836
0.000302298
0.000214761
0.000152066
0.000117699
0.00010645
0.000114437
0.000129752
0.000139324
0.000141209
0.00013549
0.000123518
0.000108157
9.31913e-05
8.32771e-05
7.78521e-05
7.4304e-05
7.04417e-05
6.5457e-05
5.92363e-05
5.17309e-05
4.37308e-05
3.62481e-05
2.96585e-05
2.39567e-05
2.37275e-05
2.52368e-05
2.81071e-05
0.000101868
6.84102e-05
0.00120163
0.00253555
0.00113568
0.000589834
0.000534699
0.000496356
0.000473075
0.000492132
0.000533679
0.000537655
0.000466908
0.000343388
0.00022657
0.000151201
0.000119179
0.000116603
0.000132166
0.000152567
0.000164648
0.000164661
0.000154513
0.000137789
0.000118836
0.000101972
9.08873e-05
8.56865e-05
8.26125e-05
7.93959e-05
7.53514e-05
7.07133e-05
6.55638e-05
5.87533e-05
5.21904e-05
4.68217e-05
4.29844e-05
4.19534e-05
4.3545e-05
5.01381e-05
0.000157245
0.000117148
0.00128996
0.00308283
0.00176181
0.00124663
0.000939778
0.000730989
0.000643262
0.000657137
0.000702328
0.000683572
0.000564321
0.000385648
0.000238261
0.000160064
0.000140043
0.000145628
0.000164562
0.000183718
0.000191113
0.000184833
0.000169318
0.000150263
0.000132447
0.000118987
0.00011094
0.000106802
0.000103776
0.000100368
9.66715e-05
9.39562e-05
9.40256e-05
9.80345e-05
0.000103318
0.00011177
0.000129825
0.000157069
0.000201787
0.000256889
0.00098789
0.000253669
0.00123214
0.00203103
0.00154148
0.00116302
0.000897207
0.00077274
0.000790514
0.000888905
0.000950368
0.000865962
0.000654065
0.000399627
0.000262079
0.000213388
0.000203105
0.000210115
0.000223668
0.000234157
0.000234794
0.000225299
0.00021092
0.000196728
0.000185662
0.00017854
0.000174546
0.000171212
0.000165707
0.000156669
0.000144794
0.000133139
0.00012653
0.000129612
0.000145303
0.00017281
0.000214197
0.00027248
0.000348622
0.000440706
0.000541255
0.000303004
0.000257959
0.000451203
0.000722546
0.0010387
0.00132301
0.00144561
0.00131778
0.000939446
0.000589945
0.000437715
0.000386874
0.000374213
0.000376772
0.000384794
0.000393478
0.00039913
0.000400538
0.00039928
0.000397823
0.000397715
0.000399218
0.000401502
0.00040341
0.000400738
0.000388241
0.000362853
0.00032423
0.000276805
0.00023113
0.000199622
0.000182879
0.000186139
0.000211107
0.000257432
0.000319034
0.000380398
0.000433055
0.000419327
0.000879208
0.00470994
0.00471877
0.00409804
0.00325183
0.00248256
0.00182789
0.00132276
0.00101901
0.000891554
0.000850322
0.000844573
0.000853636
0.000871922
0.000898515
0.000930802
0.000963859
0.000994359
0.00102219
0.00104937
0.00107723
0.00110518
0.00112963
0.0011458
0.00114647
0.00112217
0.00106502
0.000972605
0.000850177
0.000710521
0.000578021
0.000469459
0.000396651
0.000359846
0.000348747
0.00035595
0.000768912
0.000564504
0.00113755
0.00135656
0.00161666
0.00245032
0.0021999
0.00180903
0.00150673
0.00128697
0.00109712
0.000933947
0.000817271
0.000750179
0.000718252
0.000706381
0.000705078
0.000708208
0.000711466
0.000712146
0.000709693
0.000705176
0.00069998
0.000694815
0.000689483
0.000682944
0.000673754
0.00065986
0.000639114
0.000610261
0.000573496
0.000530901
0.000486409
0.000444934
0.000409241
0.000381795
0.000363401
0.00035243
0.000342412
0.000323723
0.000327512
0.00030964
)
;

boundaryField
{
    floor
    {
        Cmu             0.09;
        kappa           0.41;
        E               9.8;
        type            epsilonWallFunction;
        value           nonuniform List<scalar> 
29
(
9.91599e-05
2.34762e-05
5.50153e-05
8.35249e-05
8.98483e-05
8.83689e-05
8.13728e-05
6.86456e-05
5.65243e-05
4.66927e-05
3.89417e-05
3.28099e-05
2.79293e-05
2.4004e-05
2.076e-05
1.79754e-05
1.5449e-05
1.29705e-05
9.75041e-06
6.99192e-06
6.99192e-06
1.15899e-05
1.48549e-05
2.04406e-05
9.91599e-05
2.34762e-05
7.93592e-05
9.36705e-05
0.000183143
)
;
    }
    ceiling
    {
        Cmu             0.09;
        kappa           0.41;
        E               9.8;
        type            epsilonWallFunction;
        value           nonuniform List<scalar> 
43
(
0.00113755
0.00135656
0.00161666
0.00245032
0.0021999
0.00180903
0.00150673
0.00128697
0.00109712
0.000933947
0.000817271
0.000750179
0.000718252
0.000706381
0.000705078
0.000708208
0.000711466
0.000712146
0.000709693
0.000705176
0.00069998
0.000694815
0.000689483
0.000682944
0.000673754
0.00065986
0.000639114
0.000610261
0.000573496
0.000530901
0.000486409
0.000444934
0.000409241
0.000381795
0.000363401
0.00035243
0.000342412
0.000323723
0.000327512
0.00030964
0.00123214
0.00203103
0.000879208
)
;
    }
    sWall
    {
        Cmu             0.09;
        kappa           0.41;
        E               9.8;
        type            epsilonWallFunction;
        value           uniform 0.00113755;
    }
    nWall
    {
        Cmu             0.09;
        kappa           0.41;
        E               9.8;
        type            epsilonWallFunction;
        value           nonuniform List<scalar> 6(3.00309e-05 6.84102e-05 0.000117148 0.000419327 0.000564504 0.00030964);
    }
    sideWalls
    {
        type            empty;
    }
    glass1
    {
        Cmu             0.09;
        kappa           0.41;
        E               9.8;
        type            epsilonWallFunction;
        value           nonuniform List<scalar> 9(0.00010931 0.000205903 0.000320091 0.000462108 0.000648416 0.000905074 0.00120163 0.00128996 0.00123214);
    }
    glass2
    {
        Cmu             0.09;
        kappa           0.41;
        E               9.8;
        type            epsilonWallFunction;
        value           nonuniform List<scalar> 2(0.000253669 0.000303004);
    }
    sun
    {
        Cmu             0.09;
        kappa           0.41;
        E               9.8;
        type            epsilonWallFunction;
        value           nonuniform List<scalar> 
14
(
0.00010931
0.000152836
0.000178851
0.000213302
0.000251259
0.00029683
0.000344701
0.000388319
0.000418292
0.000420227
0.000349544
0.000278192
0.000203493
0.000145449
)
;
    }
    heatsource1
    {
        Cmu             0.09;
        kappa           0.41;
        E               9.8;
        type            epsilonWallFunction;
        value           nonuniform List<scalar> 3(2.95949e-05 2.98935e-05 3.00309e-05);
    }
    heatsource2
    {
        Cmu             0.09;
        kappa           0.41;
        E               9.8;
        type            epsilonWallFunction;
        value           nonuniform List<scalar> 4(0.000152967 8.90462e-05 8.90462e-05 0.000132909);
    }
    Table_master
    {
        Cmu             0.09;
        kappa           0.41;
        E               9.8;
        type            epsilonWallFunction;
        value           nonuniform List<scalar> 9(0.000165437 0.000110741 7.68976e-05 5.55237e-05 4.15768e-05 3.21746e-05 2.57244e-05 2.12801e-05 1.83848e-05);
    }
    Table_slave
    {
        Cmu             0.09;
        kappa           0.41;
        E               9.8;
        type            epsilonWallFunction;
        value           nonuniform List<scalar> 9(0.000221167 0.000166921 0.000134248 0.000112343 9.57328e-05 8.20066e-05 7.0009e-05 5.86109e-05 4.69834e-05);
    }
    inlet
    {
        type            turbulentMixingLengthDissipationRateInlet;
        mixingLength    0.01;
        phi             phi;
        k               k;
        value           uniform 0.000101881;
    }
    outlet
    {
        type            zeroGradient;
    }
}


// ************************************************************************* //
