// -*- C++ -*-
// File generated by PyFoam - sorry for the ugliness

FoamFile
{
 version 2.0;
 format ascii;
 class volVectorField;
 location "690";
 object U;
}

dimensions [ 0 1 -1 0 0 0 0 ];

internalField nonuniform List<vector> 459
(
  (0.0259279 0.0672533 0)
  (-0.130807 0.0206241 0)
  (-0.15195 0.0151034 0)
  (-0.17827 0.0106725 0)
  (-0.198118 0.00571146 0)
  (-0.210558 0.000345112 0)
  (-0.214155 -0.00553449 0)
  (-0.207207 -0.0120532 0)
  (-0.189496 -0.0190077 0)
  (-0.161774 -0.0252586 0)
  (-0.126811 -0.029616 0)
  (-0.088838 -0.0311263 0)
  (-0.0528638 -0.0289055 0)
  (-0.0221098 -0.0214122 0)
  (0.0293767 -0.00395617 0)
  (-0.0997045 0.00646834 0)
  (0.0320736 -0.00909909 0)
  (0.0241208 -0.0121124 0)
  (0.0354556 -0.0114783 0)
  (0.0494032 -0.00944382 0)
  (0.0605336 -0.00690167 0)
  (0.0673759 -0.00397849 0)
  (0.0705284 -0.00233135 0)
  (0.0714709 -0.00175115 0)
  (0.0715785 -0.00155951 0)
  (0.0714193 -0.00141988 0)
  (0.0710065 -0.00123064 0)
  (0.0701609 -0.000889776 0)
  (0.0684959 -0.000158292 0)
  (0.0651391 0.00152111 0)
  (0.0583498 0.00509513 0)
  (0.0471057 0.0104272 0)
  (0.000677196 0.0203038 0)
  (0.088252 -0.00201515 0)
  (0.161427 0.138028 0)
  (-0.124701 0.0543124 0)
  (-0.12585 0.044538 0)
  (-0.153471 0.035686 0)
  (-0.173422 0.025429 0)
  (-0.186258 0.01368 0)
  (-0.190668 2.15356e-05 0)
  (-0.184753 -0.0156899 0)
  (-0.168737 -0.0318566 0)
  (-0.1437 -0.0455766 0)
  (-0.112678 -0.0542654 0)
  (-0.079644 -0.0563657 0)
  (-0.0487775 -0.0511618 0)
  (-0.0233297 -0.0386418 0)
  (-0.00198889 -0.0180389 0)
  (0.00853693 0.000211479 0)
  (0.0078659 0.0155036 0)
  (-0.123456 0.00655537 0)
  (0.0367171 -0.0304246 0)
  (0.0366554 -0.0271228 0)
  (0.0468032 -0.0225633 0)
  (0.0577119 -0.0175793 0)
  (0.0660273 -0.0120968 0)
  (0.0701699 -0.0046118 0)
  (0.0709836 -0.000218414 0)
  (0.0708506 0.00151307 0)
  (0.0709343 0.0022147 0)
  (0.0711854 0.00266325 0)
  (0.071352 0.0030883 0)
  (0.0713685 0.00374631 0)
  (0.071174 0.00513715 0)
  (0.0701501 0.00845597 0)
  (0.06551 0.0171114 0)
  (0.0564863 0.0264369 0)
  (0.0119422 0.0376723 0)
  (0.132353 0.0233915 0)
  (0.286788 0.207582 0)
  (-0.138968 0.0870892 0)
  (-0.0973322 0.0727048 0)
  (-0.124899 0.0566689 0)
  (-0.143298 0.0395245 0)
  (-0.1559 0.020259 0)
  (-0.161012 -0.00201116 0)
  (-0.155497 -0.0272118 0)
  (-0.140145 -0.0527598 0)
  (-0.116833 -0.0733993 0)
  (-0.0890361 -0.0852629 0)
  (-0.0604017 -0.0866413 0)
  (-0.0341678 -0.0773266 0)
  (-0.0124177 -0.0582069 0)
  (0.00489342 -0.0313761 0)
  (0.01625 -0.00567909 0)
  (0.0170878 0.0266454 0)
  (-0.0105698 -0.0333099 0)
  (0.0423686 -0.0419166 0)
  (0.0542268 -0.0390658 0)
  (0.0592003 -0.0323471 0)
  (0.0646443 -0.0255145 0)
  (0.0695893 -0.0202099 0)
  (0.0716129 -0.015147 0)
  (0.0676532 -0.0101332 0)
  (0.0644791 -0.00750261 0)
  (0.0634898 -0.00605532 0)
  (0.063558 -0.00510976 0)
  (0.0640145 -0.0043483 0)
  (0.0649153 -0.00352434 0)
  (0.0670032 -0.0021465 0)
  (0.0720524 0.00221789 0)
  (0.0727309 0.0225581 0)
  (0.0661347 0.0386283 0)
  (0.0205453 0.0554934 0)
  (0.15762 0.0549459 0)
  (0.401711 0.264332 0)
  (-0.166939 0.116338 0)
  (-0.0657163 0.0975171 0)
  (-0.0930072 0.0755311 0)
  (-0.107381 0.0536354 0)
  (-0.118204 0.028529 0)
  (-0.123093 -0.00180212 0)
  (-0.116568 -0.0370566 0)
  (-0.100933 -0.0721531 0)
  (-0.079724 -0.0988599 0)
  (-0.0562312 -0.11299 0)
  (-0.0332408 -0.113455 0)
  (-0.0127477 -0.100985 0)
  (0.00544949 -0.0770662 0)
  (0.0213485 -0.0478676 0)
  (0.0381634 -0.0190299 0)
  (0.0582084 0.00685588 0)
  (0.0880482 -0.0419801 0)
  (0.0917426 -0.041973 0)
  (0.0824572 -0.0420226 0)
  (0.0730083 -0.0390546 0)
  (0.0671334 -0.0329738 0)
  (0.0642731 -0.026299 0)
  (0.0624526 -0.0192535 0)
  (0.0641825 -0.0118863 0)
  (0.071317 -0.00878171 0)
  (0.07771 -0.0071495 0)
  (0.0825781 -0.00616356 0)
  (0.0865727 -0.00528902 0)
  (0.0896152 -0.00417641 0)
  (0.0908293 -0.00245115 0)
  (0.0882775 0.000451216 0)
  (0.0796055 0.00510395 0)
  (0.0711632 0.0274391 0)
  (0.0709008 0.0475442 0)
  (0.0328297 0.0699571 0)
  (0.173503 0.102455 0)
  (0.50425 0.308681 0)
  (-0.201948 0.140194 0)
  (-0.0320904 0.113315 0)
  (-0.0582338 0.0878615 0)
  (-0.0661623 0.0634582 0)
  (-0.0729824 0.0346117 0)
  (-0.0754794 -0.00230088 0)
  (-0.0652251 -0.0469795 0)
  (-0.0491668 -0.0901803 0)
  (-0.0321428 -0.120066 0)
  (-0.0154136 -0.134255 0)
  (-0.000369106 -0.132717 0)
  (0.0123188 -0.117177 0)
  (0.0233871 -0.0923181 0)
  (0.0344972 -0.063164 0)
  (0.0472979 -0.0358407 0)
  (0.0634269 -0.0178701 0)
  (0.075745 -0.0207331 0)
  (0.0765688 -0.0274366 0)
  (0.0685491 -0.0306926 0)
  (0.0603999 -0.0300337 0)
  (0.0543384 -0.0267776 0)
  (0.0503175 -0.0224034 0)
  (0.0482195 -0.0171264 0)
  (0.0492433 -0.0105275 0)
  (0.0532675 -0.00731078 0)
  (0.0576905 -0.00628816 0)
  (0.0619043 -0.00581279 0)
  (0.0659769 -0.00494927 0)
  (0.0696949 -0.00303912 0)
  (0.0726384 0.000676466 0)
  (0.0739945 0.00667519 0)
  (0.0730296 0.0156322 0)
  (0.0718413 0.0313719 0)
  (0.0781065 0.0489334 0)
  (0.0669249 0.0666008 0)
  (0.134941 0.10171 0)
  (0.128179 0.0809697 0)
  (0.116055 0.058446 0)
  (-0.159356 0.0580931 0)
  (0.582793 0.345767 0)
  (-0.238012 0.156364 0)
  (-0.00318971 0.114003 0)
  (-0.021931 0.0927085 0)
  (-0.0222585 0.0688278 0)
  (-0.0236262 0.0392344 0)
  (-0.0185455 -0.0016228 0)
  (-0.000906021 -0.0584407 0)
  (0.0135115 -0.106585 0)
  (0.0232909 -0.134851 0)
  (0.0305597 -0.146178 0)
  (0.0350931 -0.142053 0)
  (0.0377302 -0.125182 0)
  (0.0397093 -0.0997188 0)
  (0.0422399 -0.0711445 0)
  (0.0463293 -0.0452335 0)
  (0.0521867 -0.0276327 0)
  (0.0555134 -0.023177 0)
  (0.052909 -0.0249863 0)
  (0.0462399 -0.0256197 0)
  (0.0392371 -0.0244138 0)
  (0.033515 -0.0221374 0)
  (0.0295183 -0.0193345 0)
  (0.0275741 -0.016075 0)
  (0.0281566 -0.0127096 0)
  (0.0309284 -0.0112298 0)
  (0.034609 -0.0109511 0)
  (0.0386054 -0.0107434 0)
  (0.0427576 -0.00987641 0)
  (0.0469863 -0.00773317 0)
  (0.051229 -0.00346482 0)
  (0.0558774 0.00384114 0)
  (0.05957 0.0141076 0)
  (0.0635092 0.0275937 0)
  (0.0716777 0.0417434 0)
  (0.0728261 0.0508147 0)
  (0.0968662 0.0678336 0)
  (0.0946957 0.0544275 0)
  (0.113451 0.0523926 0)
  (-0.151396 0.0873787 0)
  (0.624861 0.378339 0)
  (-0.260219 0.145667 0)
  (0.0191097 0.0809527 0)
  (0.0219137 0.0844557 0)
  (0.0271017 0.0678335 0)
  (0.0319707 0.0340406 0)
  (0.0530917 -0.0191466 0)
  (0.0723433 -0.0745017 0)
  (0.0812226 -0.11553 0)
  (0.0821354 -0.139323 0)
  (0.0779177 -0.146875 0)
  (0.0701731 -0.140125 0)
  (0.0607257 -0.122002 0)
  (0.0512793 -0.0965327 0)
  (0.0432218 -0.0690002 0)
  (0.0373384 -0.044658 0)
  (0.0338 -0.0279956 0)
  (0.0305624 -0.0209149 0)
  (0.0256195 -0.0194892 0)
  (0.0194026 -0.0191391 0)
  (0.0132964 -0.0185144 0)
  (0.00823326 -0.0176292 0)
  (0.00465806 -0.0166242 0)
  (0.00289148 -0.0155493 0)
  (0.00315217 -0.0146629 0)
  (0.00505277 -0.0146077 0)
  (0.00778845 -0.0149528 0)
  (0.0108994 -0.0150351 0)
  (0.0142473 -0.0143706 0)
  (0.0179083 -0.0125218 0)
  (0.0221763 -0.00881843 0)
  (0.0278774 -0.00209369 0)
  (0.0357049 0.00819036 0)
  (0.0434888 0.0202356 0)
  (0.0530651 0.0320634 0)
  (0.0595446 0.0401162 0)
  (0.0729027 0.0528836 0)
  (0.0781247 0.0581508 0)
  (0.12465 0.0761835 0)
  (-0.115893 0.145704 0)
  (0.715266 0.384734 0)
  (-0.0858663 0.118511 0)
  (0.0747582 0.0154428 0)
  (0.112617 0.0174074 0)
  (0.111662 0.012629 0)
  (0.115323 -0.0209456 0)
  (0.144181 -0.0592633 0)
  (0.157298 -0.0927513 0)
  (0.154455 -0.117801 0)
  (0.140925 -0.131489 0)
  (0.120982 -0.133124 0)
  (0.0978252 -0.123575 0)
  (0.0743166 -0.105119 0)
  (0.0525496 -0.0809463 0)
  (0.0341409 -0.0558366 0)
  (0.0196492 -0.0344858 0)
  (0.00963147 -0.0206638 0)
  (0.00260127 -0.0145105 0)
  (-0.00351836 -0.0129645 0)
  (-0.00917702 -0.0129855 0)
  (-0.0143038 -0.0132769 0)
  (-0.0185537 -0.0136823 0)
  (-0.0217104 -0.0142147 0)
  (-0.0236382 -0.0148685 0)
  (-0.0243175 -0.015681 0)
  (-0.0240196 -0.0167028 0)
  (-0.0231555 -0.0176652 0)
  (-0.0220014 -0.0182034 0)
  (-0.0207067 -0.0180282 0)
  (-0.019295 -0.0169735 0)
  (-0.017512 -0.0149259 0)
  (-0.0145358 -0.0114171 0)
  (-0.00769486 -0.00525841 0)
  (0.00426308 0.00400901 0)
  (0.0148652 0.0121685 0)
  (0.0234671 0.0166048 0)
  (0.0352188 0.0219084 0)
  (0.0450172 0.0234541 0)
  (0.124805 0.0769045 0)
  (-0.367895 0.214421 0)
  (0.83431 0.376674 0)
  (0.402445 0.262639 0)
  (0.404656 0.205717 0)
  (0.390856 0.144685 0)
  (0.353559 0.0950335 0)
  (0.327812 0.0466842 0)
  (0.298969 -0.00427208 0)
  (0.264036 -0.0487802 0)
  (0.225649 -0.0798123 0)
  (0.185059 -0.0958656 0)
  (0.143847 -0.0984806 0)
  (0.103804 -0.090188 0)
  (0.0671933 -0.0741687 0)
  (0.0355211 -0.0534682 0)
  (0.010661 -0.0328661 0)
  (-0.00795807 -0.0164662 0)
  (-0.0188451 -0.00846578 0)
  (-0.0260087 -0.00551873 0)
  (-0.0314149 -0.0051259 0)
  (-0.036064 -0.00571314 0)
  (-0.0402756 -0.00659965 0)
  (-0.044085 -0.00768819 0)
  (-0.0474665 -0.00894584 0)
  (-0.0504154 -0.0103273 0)
  (-0.0529569 -0.0117878 0)
  (-0.0551857 -0.0132539 0)
  (-0.0572201 -0.0145338 0)
  (-0.0591812 -0.0153991 0)
  (-0.0613313 -0.0156588 0)
  (-0.0642515 -0.0151437 0)
  (-0.068784 -0.0135184 0)
  (-0.0756126 -0.0096803 0)
  (-0.0851602 -0.0016282 0)
  (-0.095752 0.0108817 0)
  (-0.10959 0.0274816 0)
  (-0.133108 0.0496548 0)
  (-0.165816 0.0792215 0)
  (-0.207623 0.113699 0)
  (-0.275933 0.14685 0)
  (-0.552052 0.169569 0)
  (0.12496 0.0639552 0)
  (0.219062 0.092331 0)
  (0.247835 0.0666488 0)
  (0.240412 0.0284259 0)
  (0.22746 -0.00554551 0)
  (0.207638 -0.032891 0)
  (0.179331 -0.0519259 0)
  (0.14358 -0.06172 0)
  (0.103754 -0.0625504 0)
  (0.0631962 -0.0553409 0)
  (0.0260529 -0.0422969 0)
  (-0.00608939 -0.0250266 0)
  (-0.0269837 -0.010479 0)
  (-0.0392693 -0.00143397 0)
  (-0.0463001 0.00278183 0)
  (-0.0508736 0.00406252 0)
  (-0.0544662 0.00380792 0)
  (-0.0577993 0.00297795 0)
  (-0.0612132 0.00205206 0)
  (-0.0648729 0.0010815 0)
  (-0.068858 0.000213893 0)
  (-0.0732544 -0.000398372 0)
  (-0.0781233 -0.000594708 0)
  (-0.0834785 -0.000154654 0)
  (-0.0892341 0.00126264 0)
  (-0.095175 0.00407364 0)
  (-0.101051 0.00862522 0)
  (-0.106859 0.0148614 0)
  (-0.112981 0.0215483 0)
  (-0.119779 0.0265997 0)
  (-0.126055 0.031255 0)
  (-0.1312 0.0385314 0)
  (-0.135322 0.0506127 0)
  (-0.138201 0.0685068 0)
  (-0.137207 0.0903387 0)
  (-0.127803 0.101754 0)
  (-0.114492 0.0596381 0)
  (-0.196549 -0.169955 0)
  (0.015826 0.165531 0)
  (0.0712874 0.109993 0)
  (0.0911148 0.0490305 0)
  (0.104104 -0.000672496 0)
  (0.106398 -0.0401916 0)
  (0.100367 -0.0617577 0)
  (0.0807433 -0.0679525 0)
  (0.0538668 -0.0685629 0)
  (0.0244149 -0.0663201 0)
  (-0.00488717 -0.0639027 0)
  (-0.0277067 -0.0644672 0)
  (-0.0442094 -0.0665826 0)
  (-0.0548594 -0.067962 0)
  (-0.0608752 -0.0697854 0)
  (-0.0641797 -0.0720205 0)
  (-0.0664181 -0.0742983 0)
  (-0.0685247 -0.0764238 0)
  (-0.0708629 -0.0780791 0)
  (-0.0734871 -0.0790827 0)
  (-0.0764021 -0.0802115 0)
  (-0.0797211 -0.0816945 0)
  (-0.0835939 -0.0838083 0)
  (-0.0882117 -0.0868687 0)
  (-0.0938077 -0.091124 0)
  (-0.100572 -0.0965658 0)
  (-0.108451 -0.102652 0)
  (-0.116871 -0.10796 0)
  (-0.124689 -0.109924 0)
  (-0.130691 -0.107288 0)
  (-0.134184 -0.098122 0)
  (-0.134734 -0.0825061 0)
  (-0.130886 -0.0610102 0)
  (-0.120388 -0.0343075 0)
  (-0.101032 -0.00397613 0)
  (-0.0724544 0.0252122 0)
  (-0.0392139 0.038681 0)
  (0.0891453 -0.0636295 0)
  (-0.153356 -0.125418 0)
  (-0.0432246 -0.257993 0)
  (-0.313887 -0.0489051 0)
  (-0.217824 0.181628 0)
  (-0.144318 0.156208 0)
  (-0.0803151 0.14947 0)
  (-0.0424876 0.168459 0)
  (-0.0274913 0.200781 0)
  (-0.0253897 0.211972 0)
  (-0.0343942 0.204983 0)
  (-0.0492717 0.20429 0)
  (-0.0631305 0.208 0)
  (-0.0739032 0.214318 0)
  (-0.0806984 0.223045 0)
  (-0.0841378 0.232534 0)
  (-0.0851141 0.238777 0)
  (-0.0851636 0.243871 0)
  (-0.0851265 0.247787 0)
  (-0.0854899 0.250651 0)
  (-0.0864768 0.252647 0)
  (-0.0881423 0.253533 0)
  (-0.0904235 0.253148 0)
  (-0.0933009 0.252782 0)
  (-0.0967072 0.252822 0)
  (-0.100527 0.253858 0)
  (-0.104597 0.256578 0)
  (-0.10871 0.261581 0)
  (-0.112641 0.269086 0)
  (-0.116151 0.278522 0)
  (-0.118982 0.288056 0)
  (-0.120784 0.294329 0)
  (-0.121121 0.296477 0)
  (-0.119142 0.293424 0)
  (-0.113413 0.286105 0)
  (-0.101929 0.276354 0)
  (-0.0827733 0.2666 0)
  (-0.0561274 0.260174 0)
  (-0.0248645 0.260641 0)
  (0.0177952 0.26802 0)
  (0.135143 0.322377 0)
  (-0.295727 0.316655 0)
)
;

boundaryField
{
  floor
  {
    type noSlip;
  }
  ceiling
  {
    type noSlip;
  }
  sWall
  {
    type noSlip;
  }
  nWall
  {
    type noSlip;
  }
  sideWalls
  {
    type empty;
  }
  glass1
  {
    type noSlip;
  }
  glass2
  {
    type noSlip;
  }
  sun
  {
    type noSlip;
  }
  heatsource1
  {
    type noSlip;
  }
  heatsource2
  {
    type noSlip;
  }
  Table_master
  {
    type noSlip;
  }
  Table_slave
  {
    type noSlip;
  }
  inlet
  {
    type fixedValue;
    value uniform (0.277164 -0.114805 0);
  }
  outlet
  {
    type zeroGradient;
  }
} 	// ************************************************************************* //

