/*--------------------------------*- C++ -*----------------------------------*\
  =========                 |
  \\      /  F ield         | OpenFOAM: The Open Source CFD Toolbox
   \\    /   O peration     | Website:  https://openfoam.org
    \\  /    A nd           | Version:  6
     \\/     M anipulation  |
\*---------------------------------------------------------------------------*/
FoamFile
{
    version     2.0;
    format      ascii;
    class       surfaceScalarField;
    location    "1000";
    object      phi;
}
// * * * * * * * * * * * * * * * * * * * * * * * * * * * * * * * * * * * * * //

dimensions      [1 0 -1 0 0 0 0];

internalField   nonuniform List<scalar> 
852
(
-0.00208199
0.00212603
-0.00230515
0.000223216
-0.00242316
0.000118056
-0.00254137
0.000118258
-0.00263179
9.04699e-05
-0.00268713
5.53845e-05
-0.00270572
1.8641e-05
-0.00268465
-2.10266e-05
-0.00261713
-6.74694e-05
-0.00249187
-0.000125221
-0.00229392
-0.000197897
-0.00200374
-0.00029014
-0.00158708
-0.000416609
-0.000964334
-0.000622699
-0.000965926
0.000148544
-0.000149688
0.000111616
3.6989e-05
8.88658e-05
2.28113e-05
9.93152e-05
-1.0388e-05
0.000125957
-2.65804e-05
0.000163934
-3.7915e-05
0.000212036
-4.80412e-05
0.000258658
-4.65605e-05
0.00029923
-4.0511e-05
0.000334413
-3.51211e-05
0.000361843
-2.73679e-05
0.0003721
-1.01952e-05
0.000359888
1.22747e-05
0.000324686
3.5265e-05
0.000286198
3.85511e-05
0.000233369
5.28938e-05
0.000136822
9.66133e-05
-8.83873e-05
0.000225276
-8.98316e-05
-0.00148341
0.0037232
-0.00193124
0.000671098
-0.00213182
0.000318684
-0.00226343
0.000249923
-0.00235325
0.000180339
-0.00241056
0.000112738
-0.00243896
4.70857e-05
-0.00243806
-2.18744e-05
-0.00240541
-0.000100076
-0.00233582
-0.000194764
-0.00222062
-0.000313045
-0.00204694
-0.00046378
-0.00180172
-0.000661777
-0.00150258
-0.000921795
-0.00126715
-0.00120131
1.63888e-05
-0.00128354
1.63887e-05
-0.000162453
9.24672e-06
-0.000239388
0.000113982
-0.000308476
9.19568e-05
-0.00035141
3.26049e-05
-0.000360222
-1.77101e-05
-0.000355916
-4.21613e-05
-0.000322457
-8.14409e-05
-0.000308439
-6.05189e-05
-0.000309649
-3.92402e-05
-0.000323808
-2.09019e-05
-0.000350478
-6.36358e-07
-0.000382113
2.15022e-05
-0.000412558
4.27815e-05
-0.000439011
6.17811e-05
-0.000435259
3.48628e-05
-0.000301562
-8.0741e-05
-0.000165363
-3.95242e-05
-1.84742e-05
7.84489e-05
-0.000112581
-0.00107178
0.00496273
-0.00157152
0.00117089
-0.00177777
0.000524979
-0.00189909
0.000371301
-0.00196985
0.000251152
-0.00201143
0.000154362
-0.0020338
6.9501e-05
-0.00204021
-1.54208e-05
-0.00203165
-0.000108582
-0.00200806
-0.000218316
-0.00196744
-0.000353616
-0.00190741
-0.000523769
-0.00183223
-0.000736908
-0.00176624
-0.000987744
-0.00173496
-0.00123254
-0.00160737
-0.00141108
-0.00159093
-0.000769141
0.000771672
-0.000890983
0.000235879
-0.000910377
0.000111405
-0.000914316
3.65984e-05
-0.000902132
-2.98409e-05
-0.000831455
-0.000112783
-0.000912688
-0.000973
-0.00101203
-0.00103273
-0.00103316
-0.00101145
-0.000968459
-0.000906471
-0.000871402
-0.000523258
-0.00042883
-0.000226517
-0.000336211
3.43751e-05
-0.000182391
-8.5567e-05
-0.000768363
0.00594212
-0.00124795
0.00165054
-0.00138528
0.000662365
-0.00144748
0.000433556
-0.00148094
0.000284671
-0.00149793
0.000171401
-0.00150609
7.77093e-05
-0.0015106
-1.08594e-05
-0.00151575
-0.000103383
-0.00152586
-0.000208168
-0.00154533
-0.000334098
-0.00158123
-0.00048783
-0.00164848
-0.00066961
-0.00177177
-0.000864409
-0.00196739
-0.00103687
-0.00224395
-0.00113447
-0.00282786
-0.00100698
-0.00249162
-0.000344578
-0.00177925
5.93498e-05
-0.00161403
7.07167e-05
-0.00158165
7.90757e-05
-0.00158865
4.36458e-05
-0.00160859
-9.84711e-06
-0.0016669
-5.44213e-05
-0.0016225
-4.44976e-05
-0.00157512
-4.74794e-05
-0.00151866
-5.6561e-05
-0.00145296
-6.57926e-05
-0.00137531
-7.7753e-05
-0.00128091
-9.44961e-05
-0.00116252
-0.000118483
-0.0010033
-0.000159319
-0.000752526
-0.000250874
-0.000738152
-0.000443151
-0.000513243
-0.000561068
-4.9352e-05
-0.00064623
-0.000146948
-0.000533005
0.00672265
-0.000975411
0.002093
-0.000935112
0.000622131
-0.000837687
0.000336198
-0.00080739
0.000254437
-0.000809235
0.000173304
-0.000816282
8.48108e-05
-0.000827447
3.55797e-07
-0.000846521
-8.42622e-05
-0.000879589
-0.000175056
-0.000933139
-0.000280504
-0.00101553
-0.000405392
-0.00113639
-0.000548709
-0.00130216
-0.000698593
-0.00151108
-0.000827907
-0.00176527
-0.000880232
-0.00202183
-0.000750373
-0.00193823
-0.000428126
-0.00171732
-0.000161514
-0.00158368
-6.28664e-05
-0.00148562
-1.89413e-05
-0.00142241
-1.95106e-05
-0.00138961
-4.25985e-05
-0.00137879
-6.51827e-05
-0.00134954
-7.36951e-05
-0.00131553
-8.14374e-05
-0.00128081
-9.12337e-05
-0.00124416
-0.00010239
-0.00120547
-0.000116388
-0.00116455
-0.000135366
-0.00112016
-0.000162818
-0.00107169
-0.000207739
-0.00103725
-0.000285268
-0.00109277
-0.000387572
-0.0011954
-0.000458391
-0.00142192
-0.000419661
-0.00131256
-0.00025626
-0.00108939
-0.00022332
-0.00063767
-0.000451869
-0.000634411
-0.000462937
0.00746532
-0.000751321
0.00238145
-0.000328048
0.000198929
4.58617e-05
-3.7635e-05
0.000150028
0.000150343
0.000133389
0.000190011
9.70393e-05
0.000121222
4.63433e-05
5.11081e-05
-1.65273e-05
-2.13411e-05
-8.75684e-05
-0.000103968
-0.000175662
-0.000192367
-0.000291563
-0.000289449
-0.00044419
-0.00039604
-0.000636011
-0.000506729
-0.000859706
-0.000604169
-0.00109535
-0.000644539
-0.00127457
-0.000571106
-0.00130363
-0.000399018
-0.00123112
-0.000233975
-0.00115477
-0.000139176
-0.00108609
-8.75696e-05
-0.00103497
-7.05751e-05
-0.00100284
-7.46752e-05
-0.000982816
-8.5159e-05
-0.000962755
-9.37039e-05
-0.000941503
-0.000102638
-0.000919973
-0.000112712
-0.000898255
-0.000124056
-0.000877057
-0.000137534
-0.000857773
-0.000154599
-0.000842739
-0.000177799
-0.000838213
-0.000212213
-0.00086059
-0.00026284
-0.000927154
-0.000320957
-0.00102885
-0.000356642
-0.00111429
-0.000334177
-0.001079
-0.000291497
-0.000922689
-0.000379586
-0.000637154
-0.000737356
-0.00126821
-0.000633748
0.00841006
-0.000114785
0.00186255
0.000950926
-0.000866712
0.00141166
-0.000498296
0.00137321
0.000188858
0.00128565
0.000277636
0.00120072
0.000206222
0.00109636
0.000155531
0.000971428
0.000103644
0.000836523
3.09894e-05
0.000697886
-5.36822e-05
0.000547007
-0.000138525
0.000371631
-0.000220619
0.000165318
-0.000300373
-6.62082e-05
-0.000372598
-0.000295507
-0.000415195
-0.000471276
-0.000395291
-0.000555797
-0.000314449
-0.000567029
-0.000222695
-0.000550303
-0.000155853
-0.00052426
-0.000113563
-0.000500976
-9.38091e-05
-0.00048536
-9.02405e-05
-0.00047571
-9.47576e-05
-0.000467554
-0.000101809
-0.000459342
-0.000110797
-0.000450728
-0.000121274
-0.000441836
-0.000132896
-0.000433317
-0.000146
-0.000426351
-0.000161512
-0.000423179
-0.000180918
-0.000428941
-0.000206399
-0.000452821
-0.000238907
-0.000501429
-0.000272297
-0.000567935
-0.000290085
-0.000623324
-0.000278737
-0.000652061
-0.000262709
-0.000678805
-0.000352794
-0.000634835
-0.000781279
-0.0018997
0.00189611
0.00686567
0.00296102
0.0007977
0.0035235
-0.00142914
0.00317399
-0.000148732
0.00277088
0.000592033
0.00252168
0.000526896
0.00231163
0.000416329
0.00211626
0.000350955
0.00193787
0.000282084
0.00176627
0.000202647
0.00158963
0.000123008
0.00140392
4.72254e-05
0.00120854
-2.51856e-05
0.00100144
-9.32335e-05
0.000782832
-0.000153944
0.000566018
-0.000198337
0.000382289
-0.000211517
0.00025856
-0.000190674
0.000190863
-0.000154951
0.000157744
-0.000122685
0.000143511
-9.92812e-05
0.000136462
-8.67106e-05
0.000130161
-8.38896e-05
0.000122892
-8.74386e-05
0.000115591
-9.44566e-05
0.000108786
-0.000103941
0.000102742
-0.000115178
9.71108e-05
-0.000127213
9.12963e-05
-0.000140133
8.46737e-05
-0.000154837
7.61612e-05
-0.000172353
6.32919e-05
-0.000193477
4.20469e-05
-0.00021761
9.89914e-06
-0.000240097
-2.96561e-05
-0.000250477
-7.11535e-05
-0.000237188
-0.000129672
-0.00020414
-0.000251592
-0.000230823
-0.000369257
-0.000663566
-0.00225324
0.00723192
0.00800238
0.00704986
-0.000476576
0.00470337
0.0021978
0.00386896
0.0014265
0.00338171
0.00101419
0.00300669
0.000791405
0.00272769
0.000630006
0.00251753
0.000492292
0.0023452
0.000375026
0.00219069
0.000277556
0.00204037
0.000197599
0.00188355
0.000131679
0.00171515
7.52156e-05
0.0015365
2.47536e-05
0.00135676
-1.85568e-05
0.00119357
-4.82792e-05
0.00106363
-6.0692e-05
0.000969891
-6.116e-05
0.00090455
-5.7296e-05
0.000858604
-5.32869e-05
0.000823812
-5.18695e-05
0.000794776
-5.48044e-05
0.000768396
-6.10084e-05
0.000743556
-6.95662e-05
0.000719841
-8.01754e-05
0.000697206
-9.24913e-05
0.00067464
-0.000104596
0.000651432
-0.000116872
0.000627458
-0.000130811
0.000602684
-0.000147527
0.000576822
-0.000167562
0.000549483
-0.000190218
0.000521382
-0.000211943
0.000495604
-0.000224647
0.000474336
-0.000215868
0.000446521
-0.000176273
0.000366021
-0.000150273
0.000149012
-0.000446507
-0.00208727
-0.00213825
0.00221395
-0.000414386
0.000473982
0.0010938
-8.16486e-05
0.00183589
0.000272144
0.00212781
0.000499533
0.00224646
0.000511411
0.00228926
0.000449532
0.00228953
0.000374813
0.00226371
0.000303419
0.00222063
0.000240726
0.00216419
0.000188175
0.002095
0.000144451
0.00201199
0.000107804
0.00191722
7.62661e-05
0.00181841
5.05817e-05
0.00172504
3.27244e-05
0.00164296
2.09611e-05
0.00157319
1.25268e-05
0.00151442
5.52532e-06
0.00146413
-1.53114e-06
0.00141934
-9.95617e-06
0.0013775
-1.91206e-05
0.00133708
-2.90963e-05
0.00129716
-4.02083e-05
0.00125753
-5.2808e-05
0.00121691
-6.39233e-05
0.00117495
-7.48626e-05
0.00113187
-8.76799e-05
0.00108782
-0.000103431
0.00104301
-0.000122699
0.000998157
-0.000145313
0.000955641
-0.000169375
0.000920862
-0.000189817
0.000901603
-0.000196557
0.000898172
-0.000172791
0.000857661
-0.000109711
0.000581082
-0.000169878
-0.00150278
-8.25772e-05
0.00228194
0.000907264
-0.000515804
0.00128869
-0.000463025
0.00147337
8.75131e-05
0.00168701
0.000285945
0.00188062
0.00031785
0.002026
0.000304205
0.00212711
0.000273748
0.00219215
0.000238429
0.00222807
0.000204858
0.00224084
0.000175454
0.00223511
0.000150228
0.00221445
0.000128516
0.00218122
0.000109546
0.00213861
9.3233e-05
0.0020916
7.97876e-05
0.00204409
6.85212e-05
0.0019981
5.85604e-05
0.00195428
4.93994e-05
0.00191196
4.0831e-05
0.00186896
3.30986e-05
0.00182443
2.54573e-05
0.00177754
1.78417e-05
0.00172736
1.00278e-05
0.00167249
2.11038e-06
0.00161465
-6.03687e-06
0.00155498
-1.51369e-05
0.00149294
-2.55888e-05
0.00142752
-3.79655e-05
0.00135799
-5.31202e-05
0.00128477
-7.20387e-05
0.00121112
-9.56751e-05
0.00114606
-0.000124706
0.00110893
-0.000159369
0.00113818
-0.000201992
0.00129695
-0.000268432
0.00149078
-0.000363654
-8.77014e-06
0.00476714
-0.000683101
0.00157472
0.00103027
0.000530945
0.000574464
0.000812401
0.00107953
0.00133111
0.00155089
0.00173445
0.00188391
0.0020037
0.00209819
0.00217104
0.00222508
0.00226305
0.00228784
0.00230163
0.00230572
0.00230088
0.00228771
0.00226702
0.0022389
0.00220338
0.00216026
0.00210944
0.00205071
0.00198312
0.00190529
0.00181527
0.00171027
0.00158649
0.00143918
0.00126287
0.0010518
0.0007978
0.000476754
5.98315e-05
)
;

boundaryField
{
    floor
    {
        type            calculated;
        value           nonuniform List<scalar> 
29
(
0
0
0
0
0
0
0
0
0
0
0
0
0
0
0
0
0
0
0
0
1.51152e-06
4.33451e-06
7.41488e-06
1.20783e-05
1.6393e-06
1.20342e-06
3.5772e-06
6.76848e-06
8.39184e-06
)
;
    }
    ceiling
    {
        type            calculated;
        value           nonuniform List<scalar> 
43
(
8.77975e-05
6.42271e-05
2.41939e-05
2.8713e-05
3.63562e-05
4.40459e-05
4.80589e-05
5.0767e-05
5.26821e-05
5.40206e-05
5.49126e-05
5.54515e-05
5.57196e-05
5.57891e-05
5.57174e-05
5.55485e-05
5.53168e-05
5.5052e-05
5.47806e-05
5.45208e-05
5.42793e-05
5.40542e-05
5.38379e-05
5.36259e-05
5.34131e-05
5.31973e-05
5.29795e-05
5.2741e-05
5.25055e-05
5.22923e-05
5.21024e-05
5.19339e-05
5.17902e-05
5.16862e-05
5.16543e-05
5.1751e-05
5.20606e-05
5.2664e-05
5.33189e-05
5.75457e-05
3.1116e-05
2.72959e-05
1.46467e-05
)
;
    }
    sWall
    {
        type            calculated;
        value           uniform -0.000112297;
    }
    nWall
    {
        type            calculated;
        value           nonuniform List<scalar> 6(-3.40877e-06 -3.30609e-06 -3.30387e-06 -3.36318e-06 -3.17913e-06 -6.43342e-06);
    }
    sideWalls
    {
        type            empty;
        value           nonuniform 0();
    }
    glass1
    {
        type            calculated;
        value           nonuniform List<scalar> 9(-4.39977e-05 -0.000113719 -0.000167698 -0.000210983 -0.000247476 -0.000279687 -0.000310947 -0.000351663 -0.000397318);
    }
    glass2
    {
        type            calculated;
        value           nonuniform List<scalar> 2(-1.56645e-05 -1.69083e-05);
    }
    sun
    {
        type            calculated;
        value           uniform 0;
    }
    heatsource1
    {
        type            calculated;
        value           nonuniform List<scalar> 3(1.99341e-07 1.99441e-07 1.99658e-07);
    }
    heatsource2
    {
        type            calculated;
        value           nonuniform List<scalar> 4(4.98889e-08 5.0086e-08 0 0);
    }
    Table_master
    {
        type            calculated;
        value           nonuniform List<scalar> 9(-1.50385e-07 -1.50338e-07 -1.5029e-07 -1.50246e-07 -1.50207e-07 -1.50166e-07 -1.50122e-07 -1.50071e-07 -1.4999e-07);
    }
    Table_slave
    {
        type            calculated;
        value           nonuniform List<scalar> 9(1.49483e-07 1.49502e-07 1.49518e-07 1.49537e-07 1.49558e-07 1.49583e-07 1.49612e-07 1.49649e-07 1.49679e-07);
    }
    inlet
    {
        type            calculated;
        value           uniform -0.000552212;
    }
    outlet
    {
        type            calculated;
        value           nonuniform List<scalar> 2(-0.00474251 0.00538615);
    }
}


// ************************************************************************* //
