/*--------------------------------*- C++ -*----------------------------------*\
  =========                 |
  \\      /  F ield         | OpenFOAM: The Open Source CFD Toolbox
   \\    /   O peration     | Website:  https://openfoam.org
    \\  /    A nd           | Version:  6
     \\/     M anipulation  |
\*---------------------------------------------------------------------------*/
FoamFile
{
    version     2.0;
    format      ascii;
    class       surfaceScalarField;
    location    "100";
    object      phi;
}
// * * * * * * * * * * * * * * * * * * * * * * * * * * * * * * * * * * * * * //

dimensions      [1 0 -1 0 0 0 0];

internalField   nonuniform List<scalar> 
852
(
-0.00285204
0.00291584
-0.0035881
0.000736145
-0.00429278
0.000704754
-0.00492223
0.000629523
-0.00544077
0.000518613
-0.00583021
0.000389505
-0.00607161
0.000241471
-0.0061418
7.02522e-05
-0.00601297
-0.000128765
-0.00565844
-0.000354475
-0.00506887
-0.000589511
-0.00425589
-0.000812911
-0.00322616
-0.00102967
-0.00189612
-0.00132999
-0.00189378
-0.000301676
0.00030566
0.000333613
-0.00063521
0.000906208
-0.000572514
0.00126517
-0.000358884
0.00149011
-0.000224857
0.00162687
-0.000136683
0.00168963
-6.26891e-05
0.00171132
-2.16272e-05
0.00171975
-8.38282e-06
0.00172421
-4.40259e-06
0.00172608
-1.83374e-06
0.00172441
1.69997e-06
0.00171504
9.40071e-06
0.00168709
2.79736e-05
0.0016154
7.17048e-05
0.00145852
0.000156896
0.00119693
0.000261604
0.000850785
0.00034616
0.000855659
-0.00204889
0.00513526
-0.00290398
0.0015913
-0.0036897
0.00149054
-0.00433009
0.00126998
-0.00484746
0.00103605
-0.00523925
0.000781348
-0.00549058
0.000492864
-0.0055789
0.000158624
-0.00548073
-0.000226884
-0.00518029
-0.000654861
-0.00467953
-0.00109023
-0.00399977
-0.00149262
-0.00318105
-0.00184834
-0.00237297
-0.00213801
-0.00214319
-0.0021235
-0.000744321
-0.00139886
-0.0007443
0.00105307
-0.000738334
0.00125292
-0.000834978
0.00135791
-0.000677416
0.00149685
-0.000497748
0.00161859
-0.000346509
0.00169631
-0.000214317
0.0017011
-6.73996e-05
0.00169646
-1.69096e-05
0.00169387
-5.72115e-06
0.00169216
-2.63565e-06
0.00169052
-1.38082e-07
0.00168853
3.73516e-06
0.001685
1.29651e-05
0.00167564
3.73523e-05
0.00163031
0.00011706
0.00144533
0.000341899
0.00112421
0.000582735
0.000717086
0.000753292
0.00158546
-0.00147274
0.00686624
-0.00229769
0.00241633
-0.00302568
0.0022186
-0.00359157
0.00183593
-0.00405749
0.00150203
-0.00442216
0.00114608
-0.00466757
0.000738324
-0.00476723
0.00025833
-0.00469158
-0.000302489
-0.00442327
-0.000923124
-0.00397403
-0.00153942
-0.00338079
-0.00208582
-0.00270279
-0.0025263
-0.00203935
-0.00280141
-0.00143611
-0.00272669
-0.000643417
-0.0021915
-0.00138766
0.000877272
-0.00160293
0.00116145
-0.00111908
0.00126733
-0.000783222
0.00136393
-0.000594265
0.00146079
-0.000443284
0.00155978
-0.000313225
0.00149262
0.00147594
0.00147045
0.00146804
0.00146811
0.00147205
0.0014852
0.00152274
0.00163998
0.00136206
0.000619838
0.00101556
0.000929252
0.000583539
0.00118532
0.00218835
-0.00107331
0.00826996
-0.00182149
0.00316458
-0.002337
0.00273418
-0.00275506
0.00225405
-0.00312271
0.00186973
-0.00342818
0.0014516
-0.00364862
0.000958809
-0.00375072
0.000360485
-0.00369077
-0.000362394
-0.00344797
-0.00116589
-0.00305429
-0.00193306
-0.00256486
-0.0025752
-0.00203125
-0.00305987
-0.00148378
-0.00334884
-0.000913532
-0.0032969
-0.00031873
-0.00278625
0.000273405
-0.00197974
0.00142003
-0.0011333
0.00100134
-0.00118417
0.000997413
-0.00111508
0.00105694
-0.000842681
0.0011082
-0.000645446
0.00116292
-0.000497929
0.00120226
-0.000352487
0.00140081
-0.000198633
0.00155999
-0.000159262
0.00170283
-0.000142924
0.00182479
-0.000122054
0.00190831
-8.36116e-05
0.0019266
-1.83906e-05
0.0018509
7.55961e-05
0.00164993
0.000200862
0.00127169
0.000378126
0.0011292
0.00076236
0.000819585
0.00123889
0.000350464
0.00165446
0.00256415
-0.000777903
0.0094379
-0.00143816
0.00382491
-0.00162243
0.00291851
-0.00185058
0.00248226
-0.00208586
0.00210507
-0.00229542
0.00166121
-0.0024547
0.00111814
-0.00253275
0.000438583
-0.00246452
-0.000430578
-0.00223398
-0.00139638
-0.00190591
-0.00226107
-0.00154342
-0.00293765
-0.00118013
-0.00342312
-0.000807948
-0.00372099
-0.0004183
-0.00368651
-4.8371e-05
-0.00315614
0.000304083
-0.00233215
0.000734674
-0.00156384
0.000796653
-0.00124609
0.000734304
-0.00105267
0.000727381
-0.000835694
0.000747552
-0.000665552
0.000787648
-0.00053796
0.000860704
-0.00042548
0.000999094
-0.000336962
0.00113637
-0.000296477
0.00126823
-0.000274736
0.0013901
-0.00024387
0.00148991
-0.000183384
0.00154697
-7.54067e-05
0.00153698
8.56272e-05
0.00144621
0.00029167
0.00127859
0.000545778
0.00112188
0.000919097
0.000946417
0.00141438
0.000552663
0.00204823
0.000446159
0.00267067
-0.00112343
0.00156941
-0.00158828
0.000464651
-0.00153392
-0.000680311
0.0105579
-0.0012174
0.00436206
-0.000914406
0.00261558
-0.000887376
0.00245529
-0.000985626
0.00220337
-0.00108403
0.00175967
-0.00113976
0.00117392
-0.00113661
0.000435485
-0.00101069
-0.000556449
-0.000791681
-0.00161533
-0.000558882
-0.00249382
-0.000357056
-0.00313942
-0.000195415
-0.00358472
-4.49594e-05
-0.0038714
0.000110158
-0.00384158
0.000240405
-0.00328635
0.000355361
-0.00244706
0.000465936
-0.00167437
0.000446801
-0.0012269
0.000368686
-0.000974502
0.000326096
-0.000793049
0.000323451
-0.000662851
0.000352868
-0.000567325
0.000418893
-0.000491455
0.000519915
-0.000437936
0.000634569
-0.000411087
0.000754477
-0.000394603
0.000877117
-0.000366472
0.000998264
-0.000304497
0.00110774
-0.000184852
0.00118056
1.28339e-05
0.001204
0.00026826
0.0011932
0.000556605
0.00120141
0.000910921
0.00128904
0.00132677
0.0014691
0.00186819
0.00197166
0.00216812
0.0022553
0.00128578
0.00185646
0.000863505
0.000387662
-0.000909565
0.0119499
-0.000919375
0.00437193
6.18173e-06
0.00169008
0.000288258
0.00217327
0.000274031
0.00221766
0.000255324
0.00177843
0.000319486
0.00110981
0.0004893
0.00026572
0.000706035
-0.000773132
0.000873218
-0.00178246
0.000946765
-0.00256731
0.000928813
-0.00312142
0.000844927
-0.00350078
0.000741453
-0.00376788
0.000640523
-0.00374061
0.000517155
-0.00316294
0.000373939
-0.0023038
0.000234965
-0.00153535
8.94914e-05
-0.00108138
-2.91929e-05
-0.00085577
-0.000102343
-0.000719853
-0.000134956
-0.000630195
-0.000135466
-0.000566773
-0.000105203
-0.00052168
-4.85063e-05
-0.000494597
2.47463e-05
-0.000484307
0.00010928
-0.000479107
0.000206344
-0.00046351
0.00032143
-0.000419559
0.000459835
-0.000323233
0.000617246
-0.000144554
0.000770747
0.000114781
0.00091688
0.000410495
0.00110147
0.000726355
0.00139029
0.00103797
0.00186221
0.00139629
0.00261401
0.00141634
0.00322436
0.000675446
0.0032936
0.000794277
0.00375089
0.00239581
0.0100904
0.00290085
0.00386697
0.00278297
0.00180802
0.00262711
0.0023292
0.00241708
0.00242775
0.0023277
0.00186785
0.00239169
0.00104587
0.00261362
4.38421e-05
0.00279509
-0.000954546
0.00276888
-0.00175619
0.00255415
-0.00235252
0.00221452
-0.00278173
0.00181985
-0.00310607
0.00144897
-0.00339695
0.00110627
-0.00339787
0.000713937
-0.00277057
0.00030515
-0.00189498
-4.26388e-05
-0.00118752
-0.000280338
-0.00084364
-0.00043891
-0.00069716
-0.000546461
-0.000612265
-0.00062011
-0.000556512
-0.000667897
-0.000518955
-0.000693832
-0.000495717
-0.000702819
-0.000485584
-0.000701452
-0.00048565
-0.000692474
-0.000488063
-0.000673417
-0.000482547
-0.000635324
-0.000457633
-0.000558453
-0.000400086
-0.000410551
-0.000292438
-0.000192585
-0.000103167
5.71904e-05
0.000160737
0.000341668
0.000441896
0.000682966
0.000696688
0.00114497
0.000934304
0.00165138
0.000909945
0.00180311
0.000523723
0.000971294
0.00162611
0.0050173
0.0106799
0.0145419
0.0121883
0.00416165
0.010193
0.0043246
0.00862598
0.00399481
0.00759785
0.00289605
0.00694165
0.00170214
0.00634843
0.000637119
0.00565264
-0.000258683
0.00487764
-0.000981129
0.00406462
-0.00153943
0.00324865
-0.00196571
0.00248381
-0.00234117
0.00187504
-0.00278813
0.00135716
-0.00287995
0.000715897
-0.00212927
6.06868e-05
-0.00123974
-0.000394516
-0.000732282
-0.000664482
-0.000573641
-0.000852621
-0.000508989
-0.000998393
-0.000466465
-0.00111967
-0.000435206
-0.00122547
-0.000413139
-0.00132187
-0.000399288
-0.0014152
-0.000392235
-0.00151253
-0.000388306
-0.00162037
-0.000380205
-0.00174565
-0.00035725
-0.00189751
-0.000305752
-0.00208821
-0.000209372
-0.00233193
-4.87039e-05
-0.00262019
0.000185115
-0.00296823
0.00050879
-0.00346871
0.000942391
-0.00424679
0.00147478
-0.00536314
0.00205067
-0.00692562
0.00247243
-0.00878937
0.00238749
-0.0081631
0.000999847
-0.00281744
0.00513513
0.0049706
0.00486761
0.00459219
0.0057437
0.00311879
0.00610669
0.00253314
0.006074
0.0017349
0.00584982
0.000861359
0.00544911
0.000142096
0.00485314
-0.000385105
0.00410334
-0.000789574
0.00325916
-0.00112147
0.0024108
-0.00149277
0.00176108
-0.00213837
0.00118304
-0.00230187
0.000351668
-0.00129787
-0.000401826
-0.000486213
-0.000814963
-0.000319116
-0.00106433
-0.000324245
-0.00125371
-0.000319584
-0.0014188
-0.000301349
-0.00157232
-0.000281669
-0.00172112
-0.000264316
-0.00187066
-0.000249739
-0.00202592
-0.000236954
-0.00219096
-0.000223251
-0.00236731
-0.000203835
-0.00255277
-0.000171777
-0.00274011
-0.000118396
-0.00291393
-3.55344e-05
-0.0030568
9.41812e-05
-0.0031708
0.000299125
-0.00326895
0.000606959
-0.00336528
0.00103874
-0.00346666
0.00157618
-0.00351878
0.0021028
-0.00343164
0.00238531
-0.00301094
0.00196681
-0.00167977
-0.000331313
-0.00441164
-0.000593104
0.00560788
0.00150451
0.00249464
0.00262909
0.00199428
0.00341413
0.00174816
0.00395697
0.00119211
0.00417283
0.000645559
0.00408527
0.00022972
0.00377701
-7.67908e-05
0.00329334
-0.000305862
0.0026657
-0.000493776
0.0019327
-0.000759723
0.00120052
-0.00140616
0.000274898
-0.0013762
-0.000566654
-0.000456289
-0.0010608
7.95768e-06
-0.00132149
-5.83958e-05
-0.00150564
-0.000140076
-0.00166415
-0.000161055
-0.00180998
-0.000155497
-0.00194675
-0.000144879
-0.00207675
-0.000134297
-0.0022021
-0.000124376
-0.00232444
-0.000114598
-0.00244429
-0.000103383
-0.00256011
-8.80036e-05
-0.00266726
-6.46117e-05
-0.00275779
-2.78511e-05
-0.00282002
2.67159e-05
-0.00282943
0.000103607
-0.00275586
0.000225568
-0.00256282
0.000413928
-0.00221948
0.000695414
-0.00172819
0.0010849
-0.00107724
0.00145186
-4.5177e-05
0.00135326
0.00128134
0.000640306
0.00159803
-0.000647998
-0.00271945
-0.00850494
-0.0109747
-0.00532886
-0.0028119
-0.000800053
0.000962909
0.002169
0.00282866
0.00307311
0.00301192
0.0027225
0.00224608
0.00150478
0.000118144
-0.00124282
-0.00168558
-0.00166465
-0.00171019
-0.00183742
-0.00198567
-0.00212844
-0.00226071
-0.00238252
-0.00249459
-0.00259708
-0.0026886
-0.002765
-0.0028183
-0.00283517
-0.00279784
-0.00268401
-0.00244865
-0.00202537
-0.00132107
-0.000227784
0.00123177
0.0025924
0.00324006
0.00259975
)
;

boundaryField
{
    floor
    {
        type            calculated;
        value           nonuniform List<scalar> 
29
(
0
0
0
0
0
0
0
0
0
0
0
0
0
0
0
0
0
0
0
0
-4.86271e-06
-1.26995e-05
-1.935e-05
-2.53236e-05
-2.2738e-06
-3.92657e-06
-9.00639e-06
-1.26046e-05
-1.32558e-05
)
;
    }
    ceiling
    {
        type            calculated;
        value           nonuniform List<scalar> 
43
(
-4.04485e-05
-3.92276e-05
-3.79351e-05
-2.22671e-05
-1.75095e-05
-1.47401e-05
-1.39185e-05
-1.40489e-05
-1.46814e-05
-1.55545e-05
-1.63953e-05
-1.73124e-05
-1.83891e-05
-1.94878e-05
-1.51969e-05
-1.35012e-05
-1.29555e-05
-1.28339e-05
-1.28244e-05
-1.27839e-05
-1.27052e-05
-1.25972e-05
-1.24603e-05
-1.22919e-05
-1.20904e-05
-1.18557e-05
-1.15894e-05
-1.12927e-05
-1.09654e-05
-1.06028e-05
-1.02066e-05
-9.78501e-06
-9.33913e-06
-8.86925e-06
-8.37261e-06
-7.67984e-06
-7.35202e-06
-7.34548e-06
-7.66905e-06
-7.40224e-06
7.99368e-06
5.03069e-06
-4.41256e-05
)
;
    }
    sWall
    {
        type            calculated;
        value           uniform -0.000249005;
    }
    nWall
    {
        type            calculated;
        value           nonuniform List<scalar> 6(-5.45495e-05 -6.5108e-05 -6.961e-05 -8.55489e-05 -9.41428e-05 -0.000112294);
    }
    sideWalls
    {
        type            empty;
        value           nonuniform 0();
    }
    glass1
    {
        type            calculated;
        value           nonuniform List<scalar> 9(-6.37153e-05 -0.000170453 -0.000258171 -0.000330336 -0.000389964 -0.000439628 -0.000482305 -0.000536248 -0.00059744);
    }
    glass2
    {
        type            calculated;
        value           nonuniform List<scalar> 2(-0.00029511 -0.000328348);
    }
    sun
    {
        type            calculated;
        value           uniform 0;
    }
    heatsource1
    {
        type            calculated;
        value           nonuniform List<scalar> 3(2.05062e-07 2.04975e-07 2.04991e-07);
    }
    heatsource2
    {
        type            calculated;
        value           nonuniform List<scalar> 4(5.119e-08 5.1374e-08 0 0);
    }
    Table_master
    {
        type            calculated;
        value           nonuniform List<scalar> 9(-1.53816e-07 -1.53889e-07 -1.53917e-07 -1.53938e-07 -1.53955e-07 -1.53967e-07 -1.53974e-07 -1.53969e-07 -1.53936e-07);
    }
    Table_slave
    {
        type            calculated;
        value           nonuniform List<scalar> 9(1.53775e-07 1.53773e-07 1.53733e-07 1.53699e-07 1.53678e-07 1.53681e-07 1.53693e-07 1.53733e-07 1.53817e-07);
    }
    inlet
    {
        type            calculated;
        value           uniform -0.00594403;
    }
    outlet
    {
        type            calculated;
        value           nonuniform List<scalar> 2(0.00879445 0.00250906);
    }
}


// ************************************************************************* //
