/*--------------------------------*- C++ -*----------------------------------*\
  =========                 |
  \\      /  F ield         | OpenFOAM: The Open Source CFD Toolbox
   \\    /   O peration     | Website:  https://openfoam.org
    \\  /    A nd           | Version:  6
     \\/     M anipulation  |
\*---------------------------------------------------------------------------*/
FoamFile
{
    version     2.0;
    format      ascii;
    class       surfaceScalarField;
    location    "1300";
    object      phi;
}
// * * * * * * * * * * * * * * * * * * * * * * * * * * * * * * * * * * * * * //

dimensions      [1 0 -1 0 0 0 0];

internalField   nonuniform List<scalar> 
852
(
-0.00260781
0.00266719
-0.00312867
0.000520896
-0.00368171
0.000553076
-0.00420144
0.000519765
-0.00464905
0.000447635
-0.00500742
0.000358412
-0.00526072
0.000253329
-0.00538984
0.000129154
-0.005372
-1.78046e-05
-0.00517818
-0.00019379
-0.00478374
-0.000394408
-0.00417489
-0.000608816
-0.00331973
-0.000855129
-0.00205981
-0.00125988
-0.00205835
0.00031728
-0.000314908
0.00057934
-0.00026203
0.000799876
-0.000220506
0.00104313
-0.000243226
0.00130759
-0.000264434
0.00154108
-0.000233451
0.00164374
-0.000102633
0.00165703
-1.32583e-05
0.00164226
1.4794e-05
0.00161849
2.38018e-05
0.00158909
2.94367e-05
0.00155564
3.34743e-05
0.00151694
3.87266e-05
0.00146521
5.17624e-05
0.00138003
8.52059e-05
0.00122789
0.000152167
0.000996661
0.00023126
0.000716533
0.000280153
0.000720147
-0.00189239
0.00471755
-0.00261266
0.0012412
-0.00327209
0.00121254
-0.00381716
0.00106487
-0.0042748
0.000905306
-0.0046447
0.000728343
-0.00491595
0.000524619
-0.00507174
0.000284968
-0.0050917
2.18803e-06
-0.004961
-0.000324453
-0.00466859
-0.000686793
-0.00420848
-0.00106889
-0.0035861
-0.00147748
-0.00292258
-0.00192337
-0.00278825
-0.00219265
-0.000988135
-0.00180013
-0.000988152
0.000378253
-0.000687137
0.000449756
-0.000333501
0.000590682
-0.0003614
0.000816777
-0.000469289
0.00107512
-0.000522744
0.0013151
-0.000473397
0.00136453
-0.00015203
0.00136677
-1.54674e-05
0.00136763
1.39664e-05
0.00136723
2.42301e-05
0.00136534
3.13626e-05
0.00136285
3.59927e-05
0.00135964
4.19698e-05
0.00135282
5.86124e-05
0.00131698
0.000121082
0.00116844
0.000300732
0.000907931
0.000491796
0.000587781
0.00060033
0.00131736
-0.00138408
0.00633963
-0.00213631
0.00199346
-0.00275735
0.0018336
-0.00324552
0.00155308
-0.00366264
0.00132246
-0.00401095
0.00107668
-0.00427894
0.000792641
-0.00444926
0.000455321
-0.00450248
5.54322e-05
-0.0044209
-0.000405998
-0.00419981
-0.000907858
-0.00385446
-0.0014142
-0.00343508
-0.00189683
-0.00304759
-0.00231082
-0.00270132
-0.00253889
-0.00189258
-0.00260885
-0.00288069
-0.000312972
-0.000365396
-0.000114813
-0.000531628
0.000192436
-0.000668618
0.000469893
-0.000746714
0.000728605
-0.000781423
0.00112034
-0.000865103
0.0009685
0.000953219
0.000967371
0.000991787
0.00102333
0.00105951
0.00110167
0.00116046
0.00128173
0.00108121
0.000501281
0.00081625
0.000756783
0.000475015
0.000941592
0.00180672
-0.00102634
0.00766912
-0.00174316
0.00271032
-0.00217929
0.00226977
-0.00254516
0.00191898
-0.00287746
0.00165479
-0.00317063
0.00136988
-0.00341129
0.00103333
-0.00358095
0.00062501
-0.00365532
0.000129832
-0.00360882
-0.000452474
-0.00344421
-0.00107244
-0.00320259
-0.00165579
-0.00295329
-0.0021461
-0.00276502
-0.00249907
-0.00262468
-0.00267919
-0.00253852
-0.00269497
-0.00312961
-0.00228957
-0.00173959
-0.00138192
-0.00101959
-0.00108537
-0.000511324
-0.00103986
-0.000120465
-0.00105944
0.000157469
-0.00102462
0.000324406
-0.000948328
0.00028016
-0.000820826
0.000743596
-0.000463557
0.00109153
-0.000348051
0.00139358
-0.000302171
0.00165437
-0.000260914
0.00185749
-0.00020324
0.00197256
-0.000115188
0.00196077
1.16714e-05
0.00179042
0.000170224
0.00141579
0.000374513
0.00119364
0.00072346
0.000838931
0.00111152
0.000342977
0.00143757
0.00216828
-0.000760644
0.00878655
-0.0014102
0.00335991
-0.0015535
0.0024131
-0.00175593
0.00212144
-0.00197206
0.00187095
-0.00217478
0.00157262
-0.00234855
0.00120714
-0.00247859
0.000755077
-0.0025408
0.00019207
-0.00249553
-0.000497709
-0.00235327
-0.00121467
-0.00217226
-0.00183678
-0.00201152
-0.00230681
-0.00190396
-0.00260659
-0.00184784
-0.00273528
-0.00186454
-0.00267824
-0.00182329
-0.00233078
-0.00136309
-0.00184209
-0.000898253
-0.00155017
-0.00050937
-0.00142871
-0.000221691
-0.00134709
-2.08052e-05
-0.00122547
0.000116607
-0.00108571
0.000232056
-0.000936244
0.00050592
-0.00073739
0.000779781
-0.000621881
0.00103221
-0.000554571
0.00126265
-0.000491316
0.00146082
-0.00040138
0.00160329
-0.000257634
0.0016532
-3.82039e-05
0.00158695
0.000236508
0.00142469
0.000536806
0.00124462
0.000903558
0.00102792
0.00132825
0.000614411
0.00185112
0.000416444
0.00236628
-0.00104963
0.0014659
-0.00148822
0.000438413
-0.00144126
-0.000683869
0.00987197
-0.00122791
0.00390398
-0.000928139
0.00211336
-0.000876094
0.00206943
-0.00097316
0.00196805
-0.00107981
0.00167931
-0.00115603
0.00128338
-0.00120051
0.000799589
-0.00119823
0.000189818
-0.0011129
-0.000583011
-0.000982246
-0.00134529
-0.000865028
-0.00195397
-0.000797793
-0.00237402
-0.000791313
-0.00261304
-0.000839255
-0.0026873
-0.000917082
-0.00260038
-0.000906935
-0.00234089
-0.000746207
-0.00200278
-0.000538546
-0.00175779
-0.00035457
-0.00161265
-0.000221911
-0.00147972
-0.000135252
-0.0013121
-6.57678e-05
-0.00115517
2.02276e-05
-0.00102221
0.000177537
-0.000894669
0.00036339
-0.000807703
0.000554492
-0.000745643
0.000745251
-0.000682045
0.000932271
-0.000588368
0.00110492
-0.000430256
0.00123547
-0.000168713
0.00128792
0.000184081
0.00128415
0.00054061
0.00127878
0.000908963
0.00132849
0.00127857
0.0014554
0.00172424
0.00185724
0.00196447
0.0020887
0.00123446
0.00171094
0.000816202
0.000326344
-0.00089013
0.0112027
-0.000948508
0.00396239
-4.31309e-05
0.00120801
0.000301928
0.0017244
0.000264298
0.00200571
0.000201291
0.00174234
0.000210992
0.00127371
0.000272952
0.000737659
0.000400039
6.276e-05
0.00055014
-0.000733083
0.000643734
-0.00143886
0.000655864
-0.00196607
0.00058767
-0.0023058
0.000453403
-0.00247874
0.000274157
-0.00250803
8.47124e-05
-0.00241091
-5.22341e-05
-0.00220391
-0.000109884
-0.00194509
-0.000135014
-0.00173262
-0.000158264
-0.00158936
-0.00019433
-0.00144362
-0.000236725
-0.00126968
-0.000266242
-0.00112562
-0.000267104
-0.00102132
-0.000220325
-0.000941417
-0.000141616
-0.000886382
-4.24852e-05
-0.000844743
7.36063e-05
-0.000798105
0.000209851
-0.000724582
0.000376067
-0.000596441
0.000582001
-0.000374616
0.00077614
-1.00267e-05
0.000933432
0.00038335
0.0011141
0.000728327
0.0013861
0.0010066
0.00180971
0.00130066
0.00245372
0.00132049
0.00297151
0.000716709
0.00301965
0.000768091
0.0034089
0.00214364
0.00954963
0.00263471
0.00347135
0.00281933
0.00102342
0.0026895
0.00185427
0.002423
0.00227224
0.00226844
0.00189694
0.00224086
0.00130131
0.00232058
0.000657973
0.00247561
-9.22393e-05
0.00255775
-0.000815197
0.00250051
-0.00138159
0.0023151
-0.00178063
0.00203932
-0.00202999
0.00171012
-0.00214951
0.00135878
-0.00215665
0.0010146
-0.00206669
0.00070849
-0.00189777
0.000453151
-0.00168971
0.000226782
-0.00150621
1.42296e-05
-0.00137676
-0.000184339
-0.00124502
-0.000357651
-0.00109634
-0.000496538
-0.000986705
-0.000599222
-0.000918606
-0.000665626
-0.000874984
-0.000705856
-0.000846122
-0.000728664
-0.000821904
-0.000736431
-0.000790308
-0.000723317
-0.000737666
-0.000672204
-0.000647523
-0.000546954
-0.000499835
-0.000280248
-0.000276702
4.21286e-05
6.10043e-05
0.000371311
0.000399175
0.000744501
0.000633446
0.00121266
0.000832533
0.00171343
0.000819739
0.00191495
0.000515221
0.00113001
0.00155306
0.00478706
0.0100833
0.0135444
0.0121579
0.00241002
0.00998112
0.00403103
0.00838809
0.00386531
0.00729408
0.00299098
0.00654177
0.00205365
0.006037
0.00116278
0.00557186
0.000372925
0.00504492
-0.000288227
0.00447914
-0.000815768
0.00389897
-0.00120044
0.00332037
-0.00145136
0.00275647
-0.00158558
0.00221917
-0.00161932
0.00171878
-0.00156627
0.00126321
-0.00144216
0.000852989
-0.00127945
0.000475348
-0.00112853
0.000114627
-0.001016
-0.000219374
-0.000910982
-0.000504551
-0.000811132
-0.000742638
-0.00074859
-0.000945827
-0.00071539
-0.00112397
-0.000696812
-0.00128777
-0.000682292
-0.00144759
-0.000662053
-0.00161308
-0.000624786
-0.00179364
-0.000557077
-0.00199818
-0.000442957
-0.00223398
-0.000264001
-0.00250544
-5.21505e-06
-0.00278697
0.000342563
-0.00316019
0.000772424
-0.00379284
0.00126612
-0.00475124
0.00179097
-0.0061373
0.00220583
-0.00782369
0.00220163
-0.00733112
0.00106051
-0.00226897
0.00324277
0.00352818
0.00413933
0.00313448
0.00542247
0.00258218
0.00584623
0.00256724
0.00587737
0.00202254
0.00578351
0.00125666
0.00559399
0.000562474
0.00528092
2.48708e-05
0.00484008
-0.000374904
0.00430744
-0.000667776
0.00372475
-0.000868633
0.0031268
-0.000987609
0.00254047
-0.00103296
0.00198318
-0.00100895
0.00146163
-0.000920581
0.000978112
-0.000795896
0.000531762
-0.000682137
0.000102245
-0.00058645
-0.00029573
-0.000512977
-0.000636565
-0.000470272
-0.000936765
-0.000448365
-0.00121227
-0.000439857
-0.00147226
-0.000436797
-0.00172252
-0.000432001
-0.00196644
-0.000418104
-0.00220477
-0.000386422
-0.00243487
-0.000326955
-0.00264883
-0.000228968
-0.00283359
-7.92102e-05
-0.00297996
0.000141186
-0.00307972
0.000442347
-0.00315372
0.000846459
-0.00321174
0.00132416
-0.00321651
0.00179577
-0.00311467
0.00210401
-0.00272083
0.00180782
-0.00146697
-0.000193326
-0.00366365
-0.000344589
0.00391125
0.00138168
0.00140822
0.00239261
0.00157126
0.00322619
0.00173368
0.00387933
0.00136942
0.00428472
0.000851284
0.00442998
0.000417237
0.00435965
9.5229e-05
0.00411456
-0.000129784
0.00373474
-0.000287929
0.00326367
-0.000397542
0.00274219
-0.000466102
0.00220647
-0.000497209
0.00168596
-0.000488407
0.00119461
-0.000429203
0.000734358
-0.000335603
0.000329782
-0.000277525
-2.17842e-05
-0.00023485
-0.000341745
-0.000192991
-0.000649087
-0.000162905
-0.000944751
-0.000152676
-0.00123055
-0.000154029
-0.00150682
-0.000160507
-0.00177241
-0.000166376
-0.00202367
-0.000166824
-0.00225276
-0.000157296
-0.00244681
-0.000132877
-0.00258777
-8.79844e-05
-0.00265007
-1.68828e-05
-0.00261538
0.000106531
-0.00246636
0.000293351
-0.00217335
0.000553474
-0.00172305
0.000873895
-0.00109633
0.00116907
-0.000127398
0.00113511
0.00116006
0.000520396
0.00157839
-0.000611631
-0.00200608
-0.00610328
-0.0082171
-0.00427817
-0.00286048
-0.00128466
0.000450318
0.00181872
0.00266795
0.00308247
0.0031745
0.00304108
0.00274908
0.002347
0.00187587
0.00137307
0.000878466
0.000442454
9.97749e-05
-0.000184374
-0.000425834
-0.000625822
-0.000796233
-0.000956871
-0.00111922
-0.00128828
-0.00146333
-0.00163886
-0.00180479
-0.00194619
-0.00204251
-0.00206751
-0.00196881
-0.001683
-0.00113679
-0.000269918
0.000892349
0.00202064
0.00253403
0.00191507
)
;

boundaryField
{
    floor
    {
        type            calculated;
        value           nonuniform List<scalar> 
29
(
0
0
0
0
0
0
0
0
0
0
0
0
0
0
0
0
0
0
0
0
-3.58829e-06
-9.40656e-06
-1.43169e-05
-1.85605e-05
-1.42821e-06
-2.33834e-06
-5.99408e-06
-8.73757e-06
-8.07048e-06
)
;
    }
    ceiling
    {
        type            calculated;
        value           nonuniform List<scalar> 
43
(
-3.03722e-05
-2.91228e-05
-2.76716e-05
-9.45724e-06
-4.54552e-06
-1.27939e-06
1.03851e-06
2.07179e-06
2.74079e-06
3.22606e-06
3.66164e-06
4.09981e-06
4.5594e-06
5.05779e-06
5.61241e-06
6.22976e-06
6.83918e-06
7.11178e-06
6.65835e-06
6.63466e-06
7.02056e-06
7.52981e-06
7.98693e-06
8.3427e-06
8.58022e-06
8.70271e-06
8.72529e-06
8.66683e-06
8.54414e-06
8.36861e-06
8.14383e-06
7.86069e-06
7.56987e-06
7.29264e-06
7.04575e-06
6.83381e-06
6.84612e-06
7.03054e-06
7.35168e-06
8.49927e-06
1.38799e-05
1.02806e-05
-3.84992e-05
)
;
    }
    sWall
    {
        type            calculated;
        value           uniform -0.000239613;
    }
    nWall
    {
        type            calculated;
        value           nonuniform List<scalar> 6(-4.71334e-05 -5.66387e-05 -6.28758e-05 -7.22617e-05 -7.91492e-05 -9.94811e-05);
    }
    sideWalls
    {
        type            empty;
        value           nonuniform 0();
    }
    glass1
    {
        type            calculated;
        value           nonuniform List<scalar> 9(-5.93469e-05 -0.000157937 -0.000237967 -0.00030312 -0.000356751 -0.000401516 -0.000440552 -0.000490557 -0.000547552);
    }
    glass2
    {
        type            calculated;
        value           nonuniform List<scalar> 2(-0.000248126 -0.000275057);
    }
    sun
    {
        type            calculated;
        value           uniform 0;
    }
    heatsource1
    {
        type            calculated;
        value           nonuniform List<scalar> 3(2.03907e-07 2.03836e-07 2.03847e-07);
    }
    heatsource2
    {
        type            calculated;
        value           nonuniform List<scalar> 4(5.07643e-08 5.09873e-08 0 0);
    }
    Table_master
    {
        type            calculated;
        value           nonuniform List<scalar> 9(-1.53007e-07 -1.53103e-07 -1.53121e-07 -1.53129e-07 -1.53132e-07 -1.53132e-07 -1.53129e-07 -1.5312e-07 -1.53087e-07);
    }
    Table_slave
    {
        type            calculated;
        value           nonuniform List<scalar> 9(1.53114e-07 1.53028e-07 1.5293e-07 1.52845e-07 1.52781e-07 1.52748e-07 1.52756e-07 1.5277e-07 1.5284e-07);
    }
    inlet
    {
        type            calculated;
        value           uniform -0.00436095;
    }
    outlet
    {
        type            calculated;
        value           nonuniform List<scalar> 2(0.00637327 0.00214295);
    }
}


// ************************************************************************* //
