// -*- C++ -*-
// File generated by PyFoam - sorry for the ugliness

FoamFile
{
 version 2.0;
 format ascii;
 class volVectorField;
 location "1300";
 object U;
}

dimensions [ 0 1 -1 0 0 0 0 ];

internalField nonuniform List<vector> 459
(
  (0.0710638 0.0732489 0)
  (-0.144415 0.0115407 0)
  (-0.14716 0.0122123 0)
  (-0.171053 0.0104202 0)
  (-0.192046 0.00763632 0)
  (-0.209565 0.0044477 0)
  (-0.222917 0.000876314 0)
  (-0.231385 -0.00318227 0)
  (-0.234048 -0.0078795 0)
  (-0.22966 -0.0134625 0)
  (-0.216777 -0.0203869 0)
  (-0.193017 -0.0290057 0)
  (-0.157137 -0.0408229 0)
  (-0.11734 -0.0591127 0)
  (-0.103973 -0.0845646 0)
  (0.0653006 -0.0161339 0)
  (0.0136579 -0.0107441 0)
  (0.0243711 -0.00831446 0)
  (0.0390312 -0.00818553 0)
  (0.0509415 -0.00844875 0)
  (0.0615235 -0.00731636 0)
  (0.0692262 -0.00392937 0)
  (0.0721778 -0.00192032 0)
  (0.0718165 -0.00123721 0)
  (0.0704605 -0.00102327 0)
  (0.0690989 -0.000888486 0)
  (0.0677454 -0.000760735 0)
  (0.0662343 -0.000587688 0)
  (0.0643527 -0.000222821 0)
  (0.0615898 0.000664515 0)
  (0.0568727 0.00252007 0)
  (0.0490254 0.00466559 0)
  (0.0414167 0.00653093 0)
  (-0.00970865 0.0205256 0)
  (0.264983 0.156114 0)
  (-0.155781 0.037883 0)
  (-0.126001 0.03863 0)
  (-0.154006 0.0351918 0)
  (-0.175619 0.0305629 0)
  (-0.193601 0.0252121 0)
  (-0.207578 0.0189448 0)
  (-0.217002 0.0114422 0)
  (-0.22104 0.00236017 0)
  (-0.218441 -0.00858905 0)
  (-0.208877 -0.0209469 0)
  (-0.191517 -0.0344115 0)
  (-0.167432 -0.0499077 0)
  (-0.14199 -0.0694213 0)
  (-0.120425 -0.087033 0)
  (-0.0878923 -0.0734156 0)
  (-0.0534746 -0.0522163 0)
  (0.0758069 -0.0192216 0)
  (0.0121331 -0.0101797 0)
  (0.0178371 -0.0105736 0)
  (0.0298538 -0.0142286 0)
  (0.0409273 -0.0165042 0)
  (0.0511486 -0.0149938 0)
  (0.058942 -0.00466325 0)
  (0.0602694 0.00136644 0)
  (0.0593655 0.00341839 0)
  (0.05883 0.00400143 0)
  (0.0587679 0.00420999 0)
  (0.0587592 0.00430627 0)
  (0.0586657 0.00447409 0)
  (0.0584768 0.00505554 0)
  (0.05775 0.00681697 0)
  (0.0544566 0.0118515 0)
  (0.0460641 0.016339 0)
  (0.0427451 0.0193218 0)
  (-0.0477821 0.043306 0)
  (0.435862 0.237183 0)
  (-0.195192 0.0690811 0)
  (-0.0981876 0.0655247 0)
  (-0.130398 0.056415 0)
  (-0.149867 0.0476937 0)
  (-0.166566 0.0381558 0)
  (-0.180039 0.0271482 0)
  (-0.18977 0.014226 0)
  (-0.194854 -0.000856132 0)
  (-0.193886 -0.0179257 0)
  (-0.186712 -0.0367019 0)
  (-0.173777 -0.0561069 0)
  (-0.157029 -0.0754265 0)
  (-0.139516 -0.0936178 0)
  (-0.120951 -0.105345 0)
  (-0.0991628 -0.103995 0)
  (-0.098949 -0.108388 0)
  (0.0388588 -0.0155127 0)
  (-0.013857 -0.0164204 0)
  (0.000865264 -0.0213565 0)
  (0.0148612 -0.0260651 0)
  (0.026824 -0.0285574 0)
  (0.0364269 -0.0300687 0)
  (0.0486103 -0.0186612 0)
  (0.0450618 -0.0106341 0)
  (0.0413731 -0.00697633 0)
  (0.0414451 -0.00525619 0)
  (0.0430887 -0.0042822 0)
  (0.0448336 -0.00368341 0)
  (0.0465358 -0.003209 0)
  (0.0487044 -0.00245356 0)
  (0.052419 0.00047673 0)
  (0.0522993 0.0161149 0)
  (0.0420814 0.0265852 0)
  (0.0482539 0.0330764 0)
  (-0.0824019 0.0662787 0)
  (0.580622 0.304278 0)
  (-0.244487 0.102017 0)
  (-0.0650033 0.0894052 0)
  (-0.102646 0.0754592 0)
  (-0.1176 0.0645701 0)
  (-0.131264 0.0529071 0)
  (-0.143008 0.0392543 0)
  (-0.152246 0.0228638 0)
  (-0.157885 0.00324059 0)
  (-0.15803 -0.0194563 0)
  (-0.152544 -0.0438065 0)
  (-0.143087 -0.0675123 0)
  (-0.132054 -0.0885406 0)
  (-0.12203 -0.10492 0)
  (-0.114356 -0.113672 0)
  (-0.112909 -0.112795 0)
  (-0.123742 -0.0953999 0)
  (-0.109778 -0.0318768 0)
  (-0.0583949 -0.0326343 0)
  (-0.0336757 -0.0345594 0)
  (-0.0132689 -0.0382516 0)
  (0.00161117 -0.039149 0)
  (0.0108451 -0.0380456 0)
  (0.013536 -0.0364082 0)
  (0.0211105 -0.0219835 0)
  (0.03849 -0.0164614 0)
  (0.0535978 -0.0135407 0)
  (0.0659494 -0.0114476 0)
  (0.0759486 -0.00934103 0)
  (0.0830335 -0.0067792 0)
  (0.0859346 -0.00358986 0)
  (0.0825166 0.000634948 0)
  (0.0716166 0.00631861 0)
  (0.0564449 0.0242735 0)
  (0.0415489 0.0399228 0)
  (0.055916 0.0519082 0)
  (-0.114548 0.0866227 0)
  (0.697903 0.358809 0)
  (-0.291458 0.133991 0)
  (-0.0299818 0.104339 0)
  (-0.0715588 0.0884908 0)
  (-0.0809535 0.0767508 0)
  (-0.0900498 0.0639546 0)
  (-0.0984147 0.0485465 0)
  (-0.105513 0.0295396 0)
  (-0.110242 0.00621194 0)
  (-0.109854 -0.0212265 0)
  (-0.104448 -0.0500947 0)
  (-0.096836 -0.0762741 0)
  (-0.0892048 -0.0970652 0)
  (-0.0833544 -0.111155 0)
  (-0.0802093 -0.117892 0)
  (-0.0805472 -0.11721 0)
  (-0.0808346 -0.104925 0)
  (-0.0702649 -0.0731736 0)
  (-0.0493778 -0.0600668 0)
  (-0.0301919 -0.0557681 0)
  (-0.0154173 -0.0538382 0)
  (-0.00496637 -0.0500124 0)
  (0.00226926 -0.0447768 0)
  (0.00687164 -0.0385894 0)
  (0.0155926 -0.027156 0)
  (0.0275197 -0.0214802 0)
  (0.0390369 -0.0184934 0)
  (0.0494947 -0.015893 0)
  (0.0587474 -0.0123858 0)
  (0.0662325 -0.00699744 0)
  (0.0710571 0.000868996 0)
  (0.0712117 0.0102837 0)
  (0.0664262 0.0211156 0)
  (0.0583954 0.0365629 0)
  (0.0459496 0.0534899 0)
  (0.0649349 0.0720755 0)
  (-0.0221545 0.100048 0)
  (0.0409213 0.0258809 0)
  (-0.0654346 -0.0370385 0)
  (-0.268111 -0.0589517 0)
  (0.775136 0.406774 0)
  (-0.329413 0.160384 0)
  (-0.00365194 0.10317 0)
  (-0.0359604 0.0954519 0)
  (-0.0403972 0.0846706 0)
  (-0.0450004 0.070811 0)
  (-0.0490561 0.0543403 0)
  (-0.0524057 0.034044 0)
  (-0.0544474 0.00836736 0)
  (-0.0502603 -0.0234046 0)
  (-0.043873 -0.0561417 0)
  (-0.0382496 -0.0832535 0)
  (-0.0344351 -0.102593 0)
  (-0.033156 -0.114091 0)
  (-0.0345339 -0.11821 0)
  (-0.0379902 -0.11509 0)
  (-0.0403765 -0.103233 0)
  (-0.0368857 -0.0850971 0)
  (-0.0282412 -0.0737201 0)
  (-0.0191522 -0.0678099 0)
  (-0.0124616 -0.0628548 0)
  (-0.00773994 -0.0562086 0)
  (-0.00454816 -0.0495187 0)
  (-0.00156598 -0.0432199 0)
  (0.00390856 -0.0360209 0)
  (0.0115032 -0.0317193 0)
  (0.0196453 -0.028938 0)
  (0.0278358 -0.0261216 0)
  (0.0358829 -0.0219935 0)
  (0.0435734 -0.0151842 0)
  (0.0505323 -0.00437855 0)
  (0.0556262 0.00951382 0)
  (0.0565492 0.0242413 0)
  (0.0561699 0.0404734 0)
  (0.0532014 0.0579217 0)
  (0.0737164 0.0793043 0)
  (0.0513528 0.096646 0)
  (0.0900766 0.0669783 0)
  (0.114396 0.0434867 0)
  (-0.132995 -0.0114044 0)
  (0.799066 0.449984 0)
  (-0.344667 0.152859 0)
  (0.0137715 0.0586946 0)
  (0.0164377 0.0916531 0)
  (0.0129044 0.0951449 0)
  (0.00844057 0.07754 0)
  (0.00746646 0.0568254 0)
  (0.0083449 0.0346477 0)
  (0.00995493 0.00590977 0)
  (0.0224062 -0.0304891 0)
  (0.02863 -0.0628252 0)
  (0.0303012 -0.0871429 0)
  (0.0284245 -0.103157 0)
  (0.0235038 -0.111707 0)
  (0.0162368 -0.113721 0)
  (0.00770436 -0.109776 0)
  (-0.000126057 -0.0998222 0)
  (-0.00452907 -0.0868307 0)
  (-0.00587878 -0.0768469 0)
  (-0.00630355 -0.0705191 0)
  (-0.00805691 -0.0643717 0)
  (-0.00962981 -0.0568178 0)
  (-0.0112483 -0.0501996 0)
  (-0.0119537 -0.0450742 0)
  (-0.0108526 -0.0408075 0)
  (-0.00801494 -0.0378547 0)
  (-0.00420385 -0.0357103 0)
  (0.000370874 -0.0333999 0)
  (0.00558278 -0.0298321 0)
  (0.011593 -0.0236182 0)
  (0.0187863 -0.0128112 0)
  (0.0305319 0.00413109 0)
  (0.03793 0.0209575 0)
  (0.044797 0.0366908 0)
  (0.0516626 0.0517033 0)
  (0.0733036 0.0693475 0)
  (0.0851301 0.0766615 0)
  (0.11631 0.0533599 0)
  (0.155995 0.0429825 0)
  (-0.0380531 0.0910692 0)
  (0.894922 0.464658 0)
  (-0.117443 0.134243 0)
  (0.0860841 -0.019833 0)
  (0.135808 0.024824 0)
  (0.117361 0.0596424 0)
  (0.0990916 0.0547766 0)
  (0.0942275 0.0359789 0)
  (0.0955679 0.0132386 0)
  (0.101958 -0.0156437 0)
  (0.111581 -0.042938 0)
  (0.112244 -0.0663687 0)
  (0.105955 -0.0841442 0)
  (0.0951705 -0.0957599 0)
  (0.0815305 -0.101505 0)
  (0.0663822 -0.101958 0)
  (0.0509564 -0.0977319 0)
  (0.0365184 -0.0896051 0)
  (0.0242397 -0.0795349 0)
  (0.0140248 -0.0707126 0)
  (0.00525192 -0.0645132 0)
  (-0.00457054 -0.0582386 0)
  (-0.0122762 -0.0512571 0)
  (-0.0188931 -0.0458828 0)
  (-0.0240209 -0.0423516 0)
  (-0.02754 -0.0399539 0)
  (-0.0297347 -0.0383954 0)
  (-0.0310662 -0.0372235 0)
  (-0.0317801 -0.0358481 0)
  (-0.0318498 -0.033587 0)
  (-0.0309376 -0.0296492 0)
  (-0.0282197 -0.0231187 0)
  (-0.0213819 -0.0130084 0)
  (-0.00208063 0.00205309 0)
  (0.0103617 0.0164451 0)
  (0.0229436 0.0245475 0)
  (0.0441826 0.0317237 0)
  (0.0635704 0.0245645 0)
  (0.0835471 -0.00459109 0)
  (0.142962 0.0370092 0)
  (-0.405844 0.201422 0)
  (1.02434 0.432075 0)
  (0.487477 0.286056 0)
  (0.498176 0.20143 0)
  (0.488115 0.177094 0)
  (0.407779 0.15758 0)
  (0.334882 0.124442 0)
  (0.292412 0.0866577 0)
  (0.2684 0.0499888 0)
  (0.252602 0.015404 0)
  (0.230668 -0.0172244 0)
  (0.206343 -0.04383 0)
  (0.181256 -0.0629104 0)
  (0.15601 -0.0749044 0)
  (0.131097 -0.0809203 0)
  (0.107075 -0.0820076 0)
  (0.0844642 -0.0789912 0)
  (0.0636725 -0.0726945 0)
  (0.0449483 -0.0646552 0)
  (0.0280336 -0.0572581 0)
  (0.0128516 -0.0517553 0)
  (-0.00339951 -0.0461982 0)
  (-0.0163916 -0.040377 0)
  (-0.0273399 -0.0365262 0)
  (-0.0367019 -0.0344075 0)
  (-0.0447881 -0.0332461 0)
  (-0.0520544 -0.0325441 0)
  (-0.058959 -0.0318525 0)
  (-0.0659156 -0.0306512 0)
  (-0.0733126 -0.0282911 0)
  (-0.0815888 -0.023922 0)
  (-0.0912601 -0.0164937 0)
  (-0.102487 -0.00510899 0)
  (-0.114131 0.0102186 0)
  (-0.125083 0.0269862 0)
  (-0.146343 0.0447233 0)
  (-0.179506 0.0631361 0)
  (-0.227963 0.078885 0)
  (-0.28407 0.0897111 0)
  (-0.351462 0.0958117 0)
  (-0.609025 0.0978441 0)
  (-0.494358 0.00923409 0)
  (0.177319 0.135148 0)
  (0.252793 0.146678 0)
  (0.247678 0.127271 0)
  (0.249235 0.0950454 0)
  (0.250592 0.0586711 0)
  (0.246536 0.0252379 0)
  (0.236584 -0.00193342 0)
  (0.21984 -0.0228719 0)
  (0.198405 -0.0382259 0)
  (0.173931 -0.0487444 0)
  (0.148025 -0.0550269 0)
  (0.122084 -0.057566 0)
  (0.0971242 -0.0567511 0)
  (0.0737024 -0.0530288 0)
  (0.0520242 -0.0475751 0)
  (0.0319232 -0.0424368 0)
  (0.0138431 -0.0384835 0)
  (-0.00544906 -0.0343241 0)
  (-0.0207272 -0.030131 0)
  (-0.0342299 -0.0272905 0)
  (-0.046525 -0.0255522 0)
  (-0.0579889 -0.0243294 0)
  (-0.0689473 -0.0231198 0)
  (-0.0796028 -0.0214608 0)
  (-0.0900422 -0.0188795 0)
  (-0.100215 -0.0149147 0)
  (-0.109926 -0.00916191 0)
  (-0.118837 -0.00127176 0)
  (-0.126189 0.00906498 0)
  (-0.130569 0.022638 0)
  (-0.133223 0.0405337 0)
  (-0.135641 0.0610036 0)
  (-0.138607 0.080294 0)
  (-0.139345 0.0890901 0)
  (-0.120933 0.0671559 0)
  (-0.0746619 -0.0243944 0)
  (-0.27589 -0.199242 0)
  (-0.231076 0.182087 0)
  (0.117431 0.122162 0)
  (0.0951316 0.100069 0)
  (0.119783 0.0959768 0)
  (0.152023 0.0757911 0)
  (0.176143 0.0469115 0)
  (0.189084 0.0205692 0)
  (0.191079 0.000280282 0)
  (0.184743 -0.0142589 0)
  (0.170993 -0.0244291 0)
  (0.152119 -0.0313229 0)
  (0.130179 -0.0355156 0)
  (0.106882 -0.0373691 0)
  (0.0836247 -0.0371153 0)
  (0.0614235 -0.0351368 0)
  (0.0409663 -0.0327065 0)
  (0.0220791 -0.0312287 0)
  (0.00637402 -0.0308596 0)
  (-0.00890489 -0.0325276 0)
  (-0.0215357 -0.0347626 0)
  (-0.0344467 -0.0364356 0)
  (-0.0469879 -0.037527 0)
  (-0.0591194 -0.0380847 0)
  (-0.0708485 -0.0381511 0)
  (-0.0820906 -0.0376537 0)
  (-0.0926124 -0.0363411 0)
  (-0.101972 -0.0337582 0)
  (-0.109449 -0.0292152 0)
  (-0.114 -0.0216741 0)
  (-0.114445 -0.00949367 0)
  (-0.109986 0.0063243 0)
  (-0.0995153 0.025553 0)
  (-0.0827579 0.0472052 0)
  (-0.0608248 0.0669295 0)
  (-0.0371255 0.0778607 0)
  (0.00383929 0.0605722 0)
  (0.14362 -0.00945757 0)
  (-0.205899 -0.109091 0)
  (0.0248004 -0.270689 0)
  (-0.343348 -0.0893842 0)
  (-0.277075 0.0999397 0)
  (-0.131104 0.0377238 0)
  (-0.092266 0.0446607 0)
  (-0.0193757 0.0620434 0)
  (0.052306 0.0532784 0)
  (0.0952038 0.0382794 0)
  (0.12402 0.0270001 0)
  (0.136702 0.0204752 0)
  (0.136594 0.0170931 0)
  (0.127234 0.0155926 0)
  (0.11163 0.0158789 0)
  (0.092193 0.0182509 0)
  (0.0706524 0.0233647 0)
  (0.0484936 0.0324382 0)
  (0.0274116 0.0470914 0)
  (0.0100787 0.0652481 0)
  (-0.00477636 0.0760821 0)
  (-0.0140485 0.0830759 0)
  (-0.0229728 0.0898088 0)
  (-0.0306992 0.0945067 0)
  (-0.0377544 0.0966201 0)
  (-0.0446738 0.0963882 0)
  (-0.0518411 0.0943833 0)
  (-0.0593418 0.0912756 0)
  (-0.0670346 0.0876112 0)
  (-0.0745993 0.0837311 0)
  (-0.0815463 0.0797521 0)
  (-0.0871217 0.075569 0)
  (-0.0900425 0.0708881 0)
  (-0.0883244 0.06538 0)
  (-0.0788105 0.0628221 0)
  (-0.0597102 0.0648813 0)
  (-0.0319253 0.0716813 0)
  (0.0141018 0.0817651 0)
  (0.0565713 0.0823083 0)
  (0.0974349 0.0693332 0)
  (0.16162 0.0436486 0)
  (-0.231827 -0.00698275 0)
)
;

boundaryField
{
  floor
  {
    type noSlip;
  }
  ceiling
  {
    type noSlip;
  }
  sWall
  {
    type noSlip;
  }
  nWall
  {
    type noSlip;
  }
  sideWalls
  {
    type empty;
  }
  glass1
  {
    type noSlip;
  }
  glass2
  {
    type noSlip;
  }
  sun
  {
    type noSlip;
  }
  heatsource1
  {
    type noSlip;
  }
  heatsource2
  {
    type noSlip;
  }
  Table_master
  {
    type noSlip;
  }
  Table_slave
  {
    type noSlip;
  }
  inlet
  {
    type fixedValue;
    value uniform (0.212132 -0.212132 0);
  }
  outlet
  {
    type zeroGradient;
  }
} 	// ************************************************************************* //

