// -*- C++ -*-
// File generated by PyFoam - sorry for the ugliness

FoamFile
{
 version 2.0;
 format ascii;
 class volScalarField;
 location "1500";
 object T;
}

dimensions [ 0 0 0 1 0 0 0 ];

internalField nonuniform List<scalar> 459
(
  308.627
  308.516
  308.468
  308.44
  308.42
  308.406
  308.395
  308.386
  308.376
  308.366
  308.357
  308.347
  308.336
  308.324
  308.304
  304.448
  304.454
  304.463
  304.458
  304.464
  304.476
  304.491
  304.506
  304.482
  304.463
  304.449
  304.441
  304.441
  304.441
  304.437
  304.439
  304.436
  304.426
  304.414
  308.577
  308.404
  308.322
  308.275
  308.245
  308.226
  308.216
  308.212
  308.212
  308.215
  308.221
  308.231
  308.244
  308.26
  308.273
  308.26
  308.23
  304.652
  304.648
  304.651
  304.647
  304.625
  304.585
  304.57
  304.574
  304.574
  304.568
  304.563
  304.56
  304.564
  304.598
  304.646
  304.684
  304.666
  304.623
  304.599
  308.534
  308.285
  308.167
  308.099
  308.056
  308.029
  308.017
  308.02
  308.032
  308.054
  308.083
  308.117
  308.155
  308.194
  308.228
  308.233
  308.205
  305.025
  304.946
  304.901
  304.883
  304.862
  304.834
  304.719
  304.63
  304.672
  304.727
  304.778
  304.828
  304.88
  304.937
  305.017
  305.137
  305.142
  305.183
  305.315
  308.494
  308.182
  308.037
  307.952
  307.9
  307.872
  307.858
  307.863
  307.888
  307.927
  307.976
  308.032
  308.09
  308.147
  308.195
  308.202
  307.937
  305.663
  305.392
  305.373
  305.409
  305.484
  305.583
  305.685
  305.764
  305.776
  305.784
  305.79
  305.793
  305.794
  305.791
  305.784
  305.768
  305.736
  305.764
  305.808
  305.863
  308.453
  308.108
  307.948
  307.852
  307.813
  307.798
  307.788
  307.79
  307.816
  307.861
  307.921
  307.988
  308.058
  308.124
  308.169
  308.088
  307.527
  305.802
  305.638
  305.645
  305.681
  305.729
  305.778
  305.821
  305.851
  305.868
  305.882
  305.893
  305.904
  305.915
  305.927
  305.94
  305.954
  305.971
  306
  306.033
  306.065
  306.093
  306.078
  306.056
  308.407
  308.068
  307.904
  307.807
  307.8
  307.798
  307.792
  307.787
  307.811
  307.857
  307.918
  307.987
  308.054
  308.104
  308.094
  307.866
  307.122
  305.896
  305.785
  305.799
  305.828
  305.858
  305.887
  305.912
  305.931
  305.946
  305.957
  305.967
  305.977
  305.988
  306.002
  306.018
  306.037
  306.059
  306.083
  306.104
  306.121
  306.129
  306.116
  306.051
  308.354
  308.062
  307.912
  307.817
  307.818
  307.827
  307.832
  307.839
  307.857
  307.893
  307.942
  307.996
  308.04
  308.049
  307.953
  307.593
  306.807
  305.984
  305.909
  305.928
  305.956
  305.98
  305.999
  306.015
  306.028
  306.036
  306.041
  306.044
  306.047
  306.052
  306.058
  306.068
  306.081
  306.098
  306.118
  306.137
  306.154
  306.168
  306.176
  306.173
  308.308
  308.086
  307.973
  307.833
  307.83
  307.85
  307.87
  307.886
  307.901
  307.925
  307.955
  307.984
  307.992
  307.946
  307.772
  307.34
  306.616
  306.084
  306.042
  306.071
  306.104
  306.13
  306.145
  306.152
  306.153
  306.151
  306.146
  306.141
  306.135
  306.13
  306.125
  306.123
  306.125
  306.13
  306.14
  306.154
  306.171
  306.19
  306.209
  306.235
  308.284
  308.171
  308.175
  307.867
  307.805
  307.832
  307.863
  307.888
  307.905
  307.918
  307.93
  307.931
  307.905
  307.816
  307.601
  307.168
  306.559
  306.216
  306.197
  306.237
  306.281
  306.303
  306.309
  306.306
  306.298
  306.288
  306.276
  306.262
  306.248
  306.234
  306.22
  306.207
  306.196
  306.189
  306.186
  306.186
  306.188
  306.192
  306.2
  306.226
  308.586
  307.962
  307.757
  307.776
  307.807
  307.833
  307.851
  307.858
  307.857
  307.841
  307.795
  307.694
  307.49
  307.124
  306.617
  306.433
  306.41
  306.437
  306.46
  306.47
  306.469
  306.461
  306.448
  306.432
  306.414
  306.395
  306.374
  306.353
  306.332
  306.31
  306.291
  306.273
  306.258
  306.247
  306.237
  306.227
  306.219
  306.216
  308.572
  308.146
  307.713
  307.709
  307.729
  307.745
  307.756
  307.76
  307.753
  307.731
  307.687
  307.604
  307.456
  307.124
  306.854
  306.74
  306.694
  306.671
  306.657
  306.644
  306.629
  306.611
  306.591
  306.569
  306.545
  306.519
  306.493
  306.465
  306.438
  306.41
  306.383
  306.357
  306.333
  306.31
  306.289
  306.267
  306.241
  306.223
  312.596
  312.479
  310.068
  308.662
  307.663
  307.632
  307.635
  307.639
  307.641
  307.644
  307.638
  307.624
  307.596
  307.548
  307.433
  307.249
  307.13
  307.061
  307.013
  306.97
  306.928
  306.885
  306.845
  306.805
  306.767
  306.73
  306.693
  306.657
  306.621
  306.585
  306.548
  306.512
  306.476
  306.439
  306.403
  306.367
  306.33
  306.288
  306.23
  306.116
)
;

boundaryField
{
  floor
  {
    type wallHeatTransfer;
    Tinf uniform 305.2;
    alphaWall uniform 0.24;
    value nonuniform List<scalar> 29
(
  308.049
  304.697
  304.697
  304.701
  304.703
  304.712
  304.727
  304.746
  304.759
  304.748
  304.731
  304.712
  304.693
  304.678
  304.671
  304.667
  304.667
  304.667
  304.665
  304.668
  304.668
  304.765
  305.291
  305.765
  308.049
  304.697
  304.795
  305.061
  305.594
)
;
  }
  ceiling
  {
    type wallHeatTransfer;
    Tinf uniform 303.2;
    alphaWall uniform 0.24;
    value nonuniform List<scalar> 43
(
  311.61
  311.515
  309.651
  308.234
  307.246
  307.206
  307.205
  307.207
  307.21
  307.215
  307.212
  307.201
  307.178
  307.137
  307.033
  306.864
  306.757
  306.698
  306.663
  306.637
  306.612
  306.585
  306.556
  306.523
  306.489
  306.455
  306.419
  306.384
  306.349
  306.315
  306.28
  306.245
  306.211
  306.176
  306.14
  306.104
  306.065
  306.019
  305.958
  305.846
  308.113
  308.023
  308.362
)
;
  }
  sWall
  {
    type wallHeatTransfer;
    Tinf uniform 315.2;
    alphaWall uniform 0.36;
    value uniform 312.986;
  }
  nWall
  {
    type wallHeatTransfer;
    Tinf uniform 307.2;
    alphaWall uniform 0.36;
    value nonuniform List<scalar> 6
(
  306.298
  306.29
  306.324
  306.329
  306.326
  306.26
)
;
  }
  sideWalls
  {
    type empty;
  }
  glass1
  {
    type wallHeatTransfer;
    Tinf uniform 315.2;
    alphaWall uniform 4.3;
    value nonuniform List<scalar> 9
(
  311.994
  311.788
  311.657
  311.554
  311.46
  311.363
  311.253
  311.122
  310.951
)
;
  }
  glass2
  {
    type wallHeatTransfer;
    Tinf uniform 307.2;
    alphaWall uniform 4.3;
    value nonuniform List<scalar> 2
(
  306.845
  306.829
)
;
  }
  sun
  {
    type wallHeatTransfer;
    Tinf uniform 305.2;
    alphaWall uniform 0.24;
    value nonuniform List<scalar> 14
(
  308.439
  308.327
  308.275
  308.243
  308.22
  308.201
  308.187
  308.174
  308.161
  308.148
  308.134
  308.119
  308.102
  308.081
)
;
  }
  heatsource1
  {
    type fixedGradient;
    gradient uniform 0;
  }
  heatsource2
  {
    type fixedGradient;
    gradient uniform 0;
  }
  Table_master
  {
    type zeroGradient;
  }
  Table_slave
  {
    type zeroGradient;
  }
  inlet
  {
    type fixedValue;
    value uniform 290.15;
  }
  outlet
  {
    type zeroGradient;
  }
} 	// ************************************************************************* //

