/*--------------------------------*- C++ -*----------------------------------*\
  =========                 |
  \\      /  F ield         | OpenFOAM: The Open Source CFD Toolbox
   \\    /   O peration     | Website:  https://openfoam.org
    \\  /    A nd           | Version:  6
     \\/     M anipulation  |
\*---------------------------------------------------------------------------*/
FoamFile
{
    version     2.0;
    format      ascii;
    class       volScalarField;
    location    "1000";
    object      nut;
}
// * * * * * * * * * * * * * * * * * * * * * * * * * * * * * * * * * * * * * //

dimensions      [0 2 -1 0 0 0 0];

internalField   nonuniform List<scalar> 
459
(
0.000815301
0.000869659
0.000833578
0.000848001
0.000863172
0.000879706
0.000895013
0.000904065
0.000907813
0.000908047
0.000905927
0.000901991
0.000896711
0.000890415
0.000879428
0.000470779
0.000492125
0.00047719
0.000449491
0.000409587
0.000368647
0.00033972
0.000327761
0.000327153
0.000333059
0.000341608
0.000351648
0.000363045
0.000373177
0.000380176
0.000385246
0.000384687
0.000368524
0.000376404
0.00125906
0.00327321
0.00325038
0.00376207
0.00413136
0.00437885
0.00453647
0.00463937
0.00465119
0.00456216
0.00437624
0.00408239
0.00364245
0.00298218
0.00202746
0.000982444
0.000622172
0.000658943
0.00193578
0.00206927
0.00183555
0.00147586
0.00117879
0.000849258
0.000805253
0.000832398
0.000878338
0.000941345
0.00100552
0.00103094
0.00099068
0.000876763
0.000820065
0.000772396
0.000861216
0.00048166
0.00159237
0.00473565
0.00435751
0.00491605
0.00530167
0.0056941
0.00601069
0.00634542
0.00656114
0.00656121
0.00636386
0.00598923
0.00541811
0.00459255
0.0034681
0.00218697
0.00109572
0.000880076
0.00321882
0.00316512
0.00262101
0.00199117
0.00141347
0.00037815
0.000333728
0.000358513
0.000386076
0.000411994
0.000437016
0.00045716
0.000469483
0.000482016
0.00124165
0.00132817
0.00151852
0.000634964
0.00166618
0.00412809
0.00450993
0.00533901
0.00605758
0.00616905
0.00622457
0.00660856
0.00715263
0.00749058
0.00755242
0.00739273
0.00703198
0.00641726
0.00543588
0.00400507
0.00233525
0.0012082
0.00431283
0.004928
0.00440856
0.00357895
0.00259477
0.00159499
0.000881636
0.000852293
0.000830592
0.000811081
0.000793243
0.00077812
0.000767889
0.000764995
0.000774267
0.00196312
0.00204814
0.00224765
0.000798143
0.00257686
0.00297876
0.00326643
0.0038849
0.00473005
0.00533639
0.00566751
0.00629037
0.00687092
0.00758104
0.00803465
0.0082394
0.00828254
0.00820051
0.00798486
0.00762056
0.00713601
0.00670939
0.00706123
0.00688648
0.00653142
0.00613515
0.00572864
0.00533043
0.00498648
0.00479958
0.00462993
0.0044599
0.00428307
0.00409421
0.00388689
0.00365376
0.00339425
0.00312845
0.00266041
0.00224475
0.0015992
0.000964167
0.00107656
0.00117317
0.0035751
0.00340369
0.00315859
0.00331869
0.00394311
0.00466071
0.00515768
0.00541996
0.00593706
0.00694464
0.00775115
0.00829708
0.00866912
0.00893345
0.00909414
0.00913043
0.0090259
0.00880566
0.00857223
0.00828797
0.00800046
0.00772336
0.00745503
0.00719101
0.00693068
0.00667964
0.00643162
0.00618397
0.00593416
0.00567874
0.00541175
0.00512226
0.00479161
0.00439531
0.00392095
0.00342283
0.00301297
0.00298963
0.00353227
0.0015259
0.0041215
0.00424038
0.00362476
0.00329655
0.00370321
0.00438008
0.00486807
0.00507871
0.00528777
0.0059457
0.00687459
0.00764097
0.0082539
0.00877941
0.00920673
0.00949442
0.00960753
0.00954727
0.00937665
0.00915678
0.00892399
0.0086883
0.0084485
0.0081984
0.00793368
0.00765741
0.00737547
0.00709179
0.00680949
0.00653174
0.00626225
0.00600419
0.00575662
0.00550923
0.00524056
0.00493008
0.00462613
0.00479239
0.00586818
0.00187477
0.00474287
0.00546285
0.00593782
0.00376197
0.00385955
0.00453082
0.00495588
0.00509943
0.00521929
0.0055763
0.00615396
0.00673601
0.00733939
0.00797725
0.00859159
0.00910088
0.00944309
0.00959312
0.00959647
0.00950983
0.00937322
0.00920657
0.00901698
0.00880297
0.00856292
0.00830042
0.00802199
0.00773332
0.00744073
0.0071496
0.00686657
0.00659993
0.00635968
0.00615809
0.00600906
0.00591845
0.00586387
0.00587749
0.00710516
0.00224707
0.00564521
0.00719228
0.0130642
0.00545173
0.0040478
0.00504434
0.00555257
0.00561694
0.00570053
0.00589776
0.0061422
0.00646072
0.006881
0.00738173
0.00792057
0.0084333
0.00885853
0.00915704
0.00932973
0.00939657
0.00938723
0.00932448
0.00922152
0.00908129
0.00890545
0.00869857
0.00846681
0.00821481
0.00795278
0.00768451
0.0074147
0.00714859
0.00689243
0.00665545
0.00645393
0.00631481
0.00627343
0.00636034
0.00717594
0.00228566
0.0217642
0.0129514
0.00487277
0.00577513
0.00665199
0.00674122
0.0068826
0.00710174
0.00732111
0.0075814
0.00786829
0.0081504
0.00841567
0.00865421
0.00887112
0.00906197
0.00921717
0.00932118
0.00937651
0.0093889
0.00935953
0.00928984
0.00918406
0.00904784
0.00888719
0.00870747
0.00851385
0.00831004
0.00809901
0.00788326
0.00766485
0.00744575
0.00722904
0.00701844
0.00681469
0.00660681
0.00610614
0.00168513
0.00774269
0.0101926
0.00746114
0.00616813
0.00617423
0.00665943
0.00733544
0.00802136
0.00861314
0.00905106
0.009327
0.00945133
0.00948064
0.00946988
0.00945963
0.00946663
0.00949282
0.00953201
0.00957437
0.00960707
0.00960575
0.00956879
0.00950437
0.00942004
0.00932157
0.0092129
0.00909639
0.0089731
0.0088432
0.0087062
0.00856119
0.00840692
0.00824153
0.00806106
0.00784982
0.00754119
0.0065993
0.00192805
0.00183312
0.00216608
0.00459074
0.00411149
0.00356378
0.00311195
0.00277617
0.00253932
0.00238479
0.00229847
0.00226209
0.00225544
0.00226054
0.00226754
0.00226913
0.00226396
0.00225323
0.00223928
0.0022242
0.00220952
0.00219566
0.00218246
0.00217066
0.00215914
0.0021469
0.00213375
0.00211985
0.00210544
0.00209073
0.00207583
0.00206075
0.00204542
0.0020297
0.00201349
0.00199677
0.00197968
0.00196298
0.00194534
0.00186305
0.00163149
)
;

boundaryField
{
    floor
    {
        type            nutkWallFunction;
        Cmu             0.09;
        kappa           0.41;
        E               9.8;
        value           nonuniform List<scalar> 
29
(
0.000106488
5.58539e-05
5.8585e-05
5.66627e-05
5.30908e-05
4.79017e-05
4.25135e-05
3.8667e-05
3.70739e-05
3.70057e-05
3.78129e-05
3.8971e-05
4.03211e-05
4.18454e-05
4.31951e-05
4.41255e-05
4.47992e-05
4.47246e-05
4.25757e-05
4.36299e-05
4.36298e-05
5.7357e-05
7.67289e-05
9.67168e-05
0.000106488
5.58538e-05
7.95811e-05
0.00010647
0.000145044
)
;
    }
    ceiling
    {
        type            nutkWallFunction;
        Cmu             0.09;
        kappa           0.41;
        E               9.8;
        value           nonuniform List<scalar> 
43
(
0.000215923
0.00025239
0.000504247
0.000455743
0.000399641
0.000352706
0.000317382
0.000292198
0.000275624
0.000266303
0.000262348
0.000261607
0.000262143
0.00026289
0.000263057
0.000262494
0.000261332
0.000259822
0.000258188
0.000256595
0.000255089
0.000253653
0.00025237
0.000251115
0.000249782
0.000248349
0.000246834
0.000245262
0.000243657
0.00024203
0.000240383
0.000238706
0.000236986
0.000235212
0.00023338
0.000231507
0.000229674
0.000227736
0.000218692
0.000193029
0.000608116
0.000758417
0.000811605
)
;
    }
    sWall
    {
        type            nutkWallFunction;
        Cmu             0.09;
        kappa           0.41;
        E               9.8;
        value           uniform 0.000215949;
    }
    nWall
    {
        type            nutkWallFunction;
        Cmu             0.09;
        kappa           0.41;
        E               9.8;
        value           nonuniform List<scalar> 6(0.000141003 0.000181215 0.000219973 0.000198992 0.000225843 0.000193038);
    }
    sideWalls
    {
        type            empty;
    }
    glass1
    {
        type            nutkWallFunction;
        Cmu             0.09;
        kappa           0.41;
        E               9.8;
        value           nonuniform List<scalar> 9(9.8749e-05 0.000150969 0.000188779 0.000197049 0.000295868 0.000400473 0.000456315 0.000518908 0.000608397);
    }
    glass2
    {
        type            nutkWallFunction;
        Cmu             0.09;
        kappa           0.41;
        E               9.8;
        value           nonuniform List<scalar> 2(0.000260445 0.000264599);
    }
    sun
    {
        type            nutkWallFunction;
        Cmu             0.09;
        kappa           0.41;
        E               9.8;
        value           nonuniform List<scalar> 
14
(
9.8743e-05
0.000105273
0.000100946
0.000102683
0.000104504
0.000106484
0.000108316
0.0001094
0.000109852
0.000109885
0.000109639
0.000109175
0.00010855
0.000107801
)
;
    }
    heatsource1
    {
        type            nutkWallFunction;
        Cmu             0.09;
        kappa           0.41;
        E               9.8;
        value           nonuniform List<scalar> 3(0.000116588 0.000129786 0.000141007);
    }
    heatsource2
    {
        type            nutkWallFunction;
        Cmu             0.09;
        kappa           0.41;
        E               9.8;
        value           nonuniform List<scalar> 4(0.00011873 7.51089e-05 7.51089e-05 0.000132011);
    }
    Table_master
    {
        type            nutkWallFunction;
        Cmu             0.09;
        kappa           0.41;
        E               9.8;
        value           nonuniform List<scalar> 9(4.3797e-05 3.79097e-05 4.12297e-05 4.48895e-05 4.8303e-05 5.15725e-05 5.41931e-05 5.57933e-05 5.74164e-05);
    }
    Table_slave
    {
        type            nutkWallFunction;
        Cmu             0.09;
        kappa           0.41;
        E               9.8;
        value           nonuniform List<scalar> 9(0.000106751 0.000103238 0.000100631 9.82805e-05 9.61249e-05 9.42921e-05 9.30492e-05 9.26978e-05 9.38286e-05);
    }
    inlet
    {
        type            calculated;
        value           uniform 0.0217642;
    }
    outlet
    {
        type            calculated;
        value           nonuniform List<scalar> 2(0.00183312 0.00216608);
    }
}


// ************************************************************************* //
