/*--------------------------------*- C++ -*----------------------------------*\
  =========                 |
  \\      /  F ield         | OpenFOAM: The Open Source CFD Toolbox
   \\    /   O peration     | Website:  https://openfoam.org
    \\  /    A nd           | Version:  6
     \\/     M anipulation  |
\*---------------------------------------------------------------------------*/
FoamFile
{
    version     2.0;
    format      ascii;
    class       volScalarField;
    location    "300";
    object      epsilon;
}
// * * * * * * * * * * * * * * * * * * * * * * * * * * * * * * * * * * * * * //

dimensions      [0 2 -3 0 0 0 0];

internalField   nonuniform List<scalar> 
459
(
0.000129322
0.000142326
0.000114655
0.000128421
0.000144126
0.000160037
0.000176092
0.000192607
0.000210236
0.000229368
0.00024648
0.000260132
0.000269157
0.00027279
0.000267619
1.32639e-05
1.84615e-05
1.97208e-05
1.01179e-05
5.04632e-06
3.67835e-06
3.1901e-06
4.06841e-06
5.42314e-06
7.30232e-06
9.49428e-06
1.15838e-05
1.27541e-05
1.35727e-05
1.53961e-05
1.92404e-05
2.40374e-05
2.65167e-05
1.74756e-05
0.00060923
0.00136846
0.000142437
9.78792e-05
0.000100924
0.000106942
0.00011398
0.000122801
0.000134463
0.000149762
0.000167224
0.000186169
0.00020542
0.000223425
0.000246013
0.000333392
9.44852e-05
3.40252e-05
5.88657e-05
4.2946e-05
2.07422e-05
9.78681e-06
6.76887e-06
5.76687e-06
7.73725e-06
1.16525e-05
1.69623e-05
2.27175e-05
2.83634e-05
3.43334e-05
4.13888e-05
4.86221e-05
5.12534e-05
5.62741e-05
8.88571e-05
2.87919e-05
0.00153496
0.00458516
0.00033567
0.000109345
0.000100528
0.000106355
0.000115031
0.000126238
0.000140321
0.000157384
0.000175931
0.000194528
0.000212439
0.000229826
0.00024994
0.00028804
0.00039114
0.000156639
0.000124725
6.13541e-05
4.30235e-05
3.58829e-05
2.95508e-05
1.00336e-05
1.23393e-05
1.63499e-05
2.1218e-05
2.7223e-05
3.5007e-05
4.60172e-05
6.28337e-05
9.22624e-05
6.81411e-05
7.26726e-05
8.83468e-05
8.50468e-05
0.0030252
0.010166
0.000806335
0.000141894
0.000107241
0.00011331
0.000125014
0.000139849
0.000157755
0.00017858
0.000199726
0.000218394
0.000234685
0.00025012
0.000266272
0.000287388
0.000328918
0.000419716
0.000148827
8.2675e-05
6.24175e-05
5.84394e-05
6.25344e-05
7.3857e-05
9.95615e-05
9.57585e-05
9.35949e-05
9.28032e-05
9.42033e-05
9.91872e-05
0.000109957
0.00013073
0.000175929
0.000132348
0.000166411
0.000205087
0.000250444
0.00508829
0.0175396
0.0017545
0.000210329
0.000118491
0.000122804
0.000139265
0.000161314
0.000188555
0.000220294
0.000248624
0.000269277
0.000285123
0.000299509
0.000310413
0.000309583
0.000286937
0.000229749
0.00014496
0.000100756
7.99582e-05
7.16046e-05
6.89621e-05
6.90257e-05
7.00853e-05
7.07469e-05
7.31876e-05
7.82014e-05
8.68624e-05
0.000100785
0.000122178
0.00015366
0.000197048
0.000246651
0.000320771
0.000416052
0.000471274
0.000682336
0.000475802
0.000316368
0.00773162
0.0242673
0.0034676
0.000403909
0.000159839
0.000149015
0.000169252
0.00020183
0.000245837
0.000298947
0.000332319
0.000346703
0.000353845
0.000363602
0.00037612
0.000379211
0.000354269
0.000294561
0.000222421
0.000166472
0.000131311
0.000111873
0.000101882
9.70655e-05
9.48179e-05
9.45567e-05
9.71518e-05
0.000103616
0.000115616
0.000135784
0.000167739
0.000215704
0.000283477
0.000372791
0.00048459
0.000612637
0.000706042
0.000697775
0.000407618
0.000359095
0.0109087
0.0272823
0.00690692
0.00143301
0.000487629
0.000315798
0.00030342
0.000337124
0.000406607
0.00047118
0.000481591
0.000463261
0.000438748
0.000423567
0.000422489
0.000424908
0.000409034
0.000362911
0.000299312
0.00024018
0.000196276
0.000167606
0.0001504
0.000140708
0.000135616
0.000134179
0.000136851
0.00014478
0.000160032
0.000185786
0.000225979
0.000284624
0.000365222
0.000468628
0.000589466
0.00070963
0.000790909
0.000791445
0.000685819
0.000344239
0.0117625
0.0348469
0.0157012
0.00780472
0.00349363
0.00167502
0.0010964
0.000924794
0.000895674
0.000820835
0.000725698
0.000631985
0.000551407
0.000490438
0.000452421
0.000434185
0.000420605
0.000392922
0.000347762
0.000299062
0.000257975
0.000227469
0.000206953
0.000194286
0.000187263
0.000184985
0.000187921
0.000197784
0.000218054
0.000254408
0.00031238
0.000394014
0.000495523
0.000608275
0.000726561
0.000854615
0.00100339
0.00118881
0.00137337
0.00083362
0.0107376
0.0183321
0.0166003
0.0117621
0.00771906
0.00494562
0.00327083
0.00230538
0.00169271
0.00128348
0.00100164
0.000801711
0.00065712
0.000552497
0.0004791
0.00043111
0.000401174
0.000378663
0.000355216
0.000329753
0.000305116
0.000283959
0.000267708
0.000256474
0.000249597
0.000246577
0.000247566
0.000253666
0.00026768
0.000294771
0.000338095
0.000404408
0.00049924
0.000629214
0.000803567
0.000997836
0.00114611
0.0015078
0.00308513
0.00126727
0.0133191
0.018311
0.00924137
0.00565882
0.00374247
0.00260396
0.00188648
0.0014085
0.00108179
0.000855026
0.000695519
0.000582261
0.000501867
0.000446031
0.000409419
0.000387675
0.000376318
0.000370539
0.000366239
0.00036197
0.000357873
0.000354511
0.000352224
0.000351056
0.000350967
0.000352182
0.000356142
0.000364937
0.00038037
0.000405663
0.000441711
0.000485013
0.000524185
0.000539986
0.000545887
0.000584969
0.00117373
0.00121563
0.011188
0.0144902
0.00749603
0.00474304
0.00325631
0.00235011
0.00177198
0.00139367
0.001139
0.000964137
0.000843084
0.000760145
0.000705848
0.000674323
0.000661374
0.000663059
0.000674762
0.000689088
0.000698334
0.000701069
0.000698795
0.000693584
0.000686698
0.000678152
0.000666712
0.000650381
0.000626764
0.000593095
0.000552407
0.000512357
0.000480948
0.000461011
0.000451162
0.000448182
0.000451464
0.000477738
0.00139274
0.000955377
0.00260029
0.00408536
0.00661419
0.00737649
0.00485979
0.00354502
0.00268687
0.0020766
0.00162591
0.00129067
0.00104863
0.000866383
0.00072633
0.000618499
0.000536893
0.000477626
0.000437883
0.000415244
0.000407183
0.000412036
0.000426381
0.000443001
0.000457667
0.000468634
0.000475806
0.000479943
0.000482151
0.000483691
0.000486207
0.000491476
0.000499214
0.00050717
0.000510584
0.000502771
0.00047688
0.000444709
0.000409474
0.000367082
0.000398243
0.000346292
)
;

boundaryField
{
    floor
    {
        Cmu             0.09;
        kappa           0.41;
        E               9.8;
        type            epsilonWallFunction;
        value           nonuniform List<scalar> 
29
(
0.000267619
1.32639e-05
1.84615e-05
1.97208e-05
1.01179e-05
5.04632e-06
3.67835e-06
3.1901e-06
4.06841e-06
5.42314e-06
7.30232e-06
9.49428e-06
1.15838e-05
1.27541e-05
1.35727e-05
1.53961e-05
1.92404e-05
2.40374e-05
2.65167e-05
1.74756e-05
1.74756e-05
2.87919e-05
8.50468e-05
0.000250444
0.000267619
1.32639e-05
3.40252e-05
0.000156639
0.000419716
)
;
    }
    ceiling
    {
        Cmu             0.09;
        kappa           0.41;
        E               9.8;
        type            epsilonWallFunction;
        value           nonuniform List<scalar> 
43
(
0.00260029
0.00408536
0.00661419
0.00737649
0.00485979
0.00354502
0.00268687
0.0020766
0.00162591
0.00129067
0.00104863
0.000866383
0.00072633
0.000618499
0.000536893
0.000477626
0.000437883
0.000415244
0.000407183
0.000412036
0.000426381
0.000443001
0.000457667
0.000468634
0.000475806
0.000479943
0.000482151
0.000483691
0.000486207
0.000491476
0.000499214
0.00050717
0.000510584
0.000502771
0.00047688
0.000444709
0.000409474
0.000367082
0.000398243
0.000346292
0.0107376
0.0183321
0.011188
)
;
    }
    sWall
    {
        Cmu             0.09;
        kappa           0.41;
        E               9.8;
        type            epsilonWallFunction;
        value           uniform 0.00260029;
    }
    nWall
    {
        Cmu             0.09;
        kappa           0.41;
        E               9.8;
        type            epsilonWallFunction;
        value           nonuniform List<scalar> 6(0.000316368 0.000359095 0.000344239 0.00121563 0.000955377 0.000346292);
    }
    sideWalls
    {
        type            empty;
    }
    glass1
    {
        Cmu             0.09;
        kappa           0.41;
        E               9.8;
        type            epsilonWallFunction;
        value           nonuniform List<scalar> 9(0.000129322 0.00060923 0.00153496 0.0030252 0.00508829 0.00773162 0.0109087 0.0117625 0.0107376);
    }
    glass2
    {
        Cmu             0.09;
        kappa           0.41;
        E               9.8;
        type            epsilonWallFunction;
        value           nonuniform List<scalar> 2(0.00083362 0.00126727);
    }
    sun
    {
        Cmu             0.09;
        kappa           0.41;
        E               9.8;
        type            epsilonWallFunction;
        value           nonuniform List<scalar> 
14
(
0.000129322
0.000142326
0.000114655
0.000128421
0.000144126
0.000160037
0.000176092
0.000192607
0.000210236
0.000229368
0.00024648
0.000260132
0.000269157
0.00027279
)
;
    }
    heatsource1
    {
        Cmu             0.09;
        kappa           0.41;
        E               9.8;
        type            epsilonWallFunction;
        value           nonuniform List<scalar> 3(0.000682336 0.000475802 0.000316368);
    }
    heatsource2
    {
        Cmu             0.09;
        kappa           0.41;
        E               9.8;
        type            epsilonWallFunction;
        value           nonuniform List<scalar> 4(0.000333392 9.44852e-05 9.44852e-05 0.00039114);
    }
    Table_master
    {
        Cmu             0.09;
        kappa           0.41;
        E               9.8;
        type            epsilonWallFunction;
        value           nonuniform List<scalar> 9(1.00336e-05 1.23393e-05 1.63499e-05 2.1218e-05 2.7223e-05 3.5007e-05 4.60172e-05 6.28337e-05 9.22624e-05);
    }
    Table_slave
    {
        Cmu             0.09;
        kappa           0.41;
        E               9.8;
        type            epsilonWallFunction;
        value           nonuniform List<scalar> 9(9.95615e-05 9.57585e-05 9.35949e-05 9.28032e-05 9.42033e-05 9.91872e-05 0.000109957 0.00013073 0.000175929);
    }
    inlet
    {
        type            turbulentMixingLengthDissipationRateInlet;
        mixingLength    0.01;
        phi             phi;
        k               k;
        value           uniform 3.77337e-06;
    }
    outlet
    {
        type            zeroGradient;
    }
}


// ************************************************************************* //
