/*--------------------------------*- C++ -*----------------------------------*\
  =========                 |
  \\      /  F ield         | OpenFOAM: The Open Source CFD Toolbox
   \\    /   O peration     | Website:  https://openfoam.org
    \\  /    A nd           | Version:  6
     \\/     M anipulation  |
\*---------------------------------------------------------------------------*/
FoamFile
{
    version     2.0;
    format      ascii;
    class       volScalarField;
    location    "1400";
    object      alphat;
}
// * * * * * * * * * * * * * * * * * * * * * * * * * * * * * * * * * * * * * //

dimensions      [1 -1 -1 0 0 0 0];

internalField   nonuniform List<scalar> 
459
(
0.000890533
0.000940572
0.000932969
0.000965295
0.00099323
0.00101714
0.00103806
0.00105707
0.00107529
0.00109211
0.00110298
0.00110628
0.001102
0.00109331
0.00108276
0.000672027
0.000628234
0.000597651
0.000576643
0.000559866
0.00054273
0.000521682
0.000500303
0.000480348
0.000461592
0.000443959
0.000427354
0.000411637
0.000396578
0.000381781
0.000366619
0.000349866
0.000334913
0.00030457
0.001317
0.00237121
0.0020842
0.00241982
0.00263395
0.00285352
0.00306711
0.00325737
0.00339777
0.00347701
0.00350086
0.00342823
0.00319964
0.00273262
0.00194301
0.00110866
0.00101261
0.000826478
0.00130642
0.00167093
0.00189837
0.00199767
0.00194354
0.00159555
0.00141837
0.00127787
0.0011624
0.00106377
0.000977113
0.000898049
0.000821294
0.000742707
0.000673313
0.000616709
0.000703255
0.000377871
0.00170073
0.00343073
0.00235814
0.00337909
0.00368659
0.00389844
0.00405642
0.00417413
0.00426156
0.00432284
0.00436521
0.00435757
0.00425673
0.00400592
0.00350289
0.00258912
0.00121061
0.000973035
0.00219818
0.00268954
0.00283795
0.0028198
0.00243843
0.000654389
0.000581781
0.000525924
0.000482549
0.000448299
0.000420759
0.000398381
0.000380459
0.000367425
0.000418355
0.000499153
0.000791327
0.00043126
0.00209484
0.00497902
0.00230418
0.00370959
0.00416474
0.00431408
0.00437239
0.00439274
0.00441197
0.00444451
0.00449545
0.00454026
0.00455093
0.00450646
0.00435476
0.00390893
0.00275367
0.00118444
0.00315957
0.00344067
0.00336355
0.00323304
0.00307642
0.00260679
0.000669724
0.000632189
0.000616291
0.000607849
0.000598877
0.00058417
0.000564305
0.000542619
0.000515498
0.000490888
0.000506297
0.000888376
0.000478044
0.00250351
0.00706835
0.00280082
0.00347244
0.00429966
0.0044618
0.00445765
0.00440023
0.00436075
0.00437185
0.00444125
0.0045244
0.00458517
0.00461688
0.00462985
0.00462711
0.00455268
0.00422539
0.00404753
0.00377465
0.00345853
0.00320823
0.00304242
0.00288929
0.00256287
0.0025117
0.00251373
0.00250731
0.00246801
0.00238086
0.00219732
0.0019082
0.00155578
0.00117911
0.000886848
0.000907817
0.000625373
0.000627672
0.00076624
0.000854036
0.00293091
0.00936426
0.00475749
0.00319464
0.00387271
0.00428031
0.00441123
0.00438934
0.00430417
0.00427736
0.00438394
0.00449652
0.00457219
0.00460378
0.00461085
0.00462811
0.00463383
0.00449706
0.00419345
0.0038124
0.00339989
0.00308936
0.00293163
0.00288364
0.00288673
0.00293309
0.00297188
0.00298052
0.00295335
0.00289002
0.00278028
0.00255529
0.00221882
0.00178527
0.00137105
0.00106634
0.00082776
0.000724029
0.00106242
0.000881282
0.00335071
0.0112273
0.00823803
0.00489952
0.00376539
0.00357988
0.00382213
0.00412834
0.0042251
0.00429281
0.00441175
0.00451117
0.00456881
0.00457539
0.00454916
0.00453471
0.00453305
0.00445534
0.00422052
0.00381859
0.00335147
0.00302643
0.00288541
0.00285908
0.00288703
0.00293133
0.00296142
0.00296488
0.002947
0.0029176
0.00288419
0.00279118
0.00253969
0.00215962
0.00177065
0.00142452
0.00116043
0.00107298
0.00111176
0.000953377
0.00344996
0.0108623
0.00935694
0.00804932
0.00642623
0.00519561
0.00461527
0.00451963
0.00455001
0.00453818
0.00454758
0.00457163
0.00457633
0.0045352
0.00446658
0.00443071
0.00444217
0.00442046
0.00423759
0.00381402
0.00333381
0.00303305
0.00290088
0.00285353
0.00283945
0.00283151
0.00281493
0.00278915
0.00276785
0.00277102
0.00281422
0.00288494
0.00283662
0.00253443
0.00227187
0.00214517
0.00223049
0.00261636
0.00340385
0.00154942
0.00337464
0.00406396
0.00477956
0.00511006
0.00521717
0.00505146
0.00482099
0.0046631
0.00457096
0.00455277
0.00457353
0.00458606
0.0045484
0.00444305
0.00432274
0.00428512
0.00433796
0.00437419
0.0042083
0.00375926
0.00333143
0.00308358
0.0029516
0.00286555
0.00279313
0.00271955
0.00263593
0.00254067
0.00244245
0.00235413
0.00228108
0.00221811
0.00216255
0.00212069
0.00212519
0.00217255
0.00220541
0.00216176
0.00204732
0.00148761
0.00294965
0.0058448
0.00562366
0.0054649
0.00531188
0.00519376
0.00510657
0.00500374
0.00487662
0.00471302
0.00449747
0.00423834
0.00405079
0.004065
0.00420978
0.00431234
0.00410784
0.00371612
0.00342538
0.00325053
0.00312371
0.00300297
0.00287371
0.00273482
0.00259038
0.00244582
0.00230889
0.00219363
0.00211849
0.00209607
0.00210748
0.00213833
0.00218424
0.00222348
0.00221591
0.00214179
0.00199889
0.0013006
0.00280353
0.00638829
0.00611433
0.00583619
0.00559634
0.0054071
0.0052078
0.00498736
0.00465567
0.00428318
0.00389702
0.00353674
0.00345198
0.00380711
0.00422938
0.00450899
0.00440863
0.00418525
0.0040044
0.00388099
0.00378184
0.00367604
0.00354421
0.00337889
0.00318435
0.00297457
0.00276835
0.00258331
0.00243028
0.00232144
0.00228247
0.00229724
0.00234007
0.00238173
0.00237219
0.00244917
0.00265832
0.00133732
0.00220707
0.00240366
0.00256714
0.00273863
0.00259794
0.00247866
0.00225675
0.00206221
0.00186529
0.00166924
0.00151585
0.00137747
0.00124014
0.00109716
0.000985376
0.00101766
0.00105437
0.00105173
0.00102128
0.000994627
0.0009771
0.000964075
0.000951078
0.000935806
0.000918213
0.000900288
0.000885453
0.00087752
0.000879624
0.000893865
0.000921999
0.000962885
0.00101118
0.00106708
0.00112977
0.00120264
0.0012301
0.00120173
0.0011417
0.00108075
)
;

boundaryField
{
    floor
    {
        type            compressible::alphatWallFunction;
        Prt             0.85;
        value           nonuniform List<scalar> 
29
(
0.000153945
9.51214e-05
8.86282e-05
8.40611e-05
8.09072e-05
7.83784e-05
7.57857e-05
7.25871e-05
6.93217e-05
6.62578e-05
6.33635e-05
6.06287e-05
5.80407e-05
5.55794e-05
5.32096e-05
5.08698e-05
4.846e-05
4.57822e-05
4.33779e-05
3.84553e-05
3.84548e-05
5.02486e-05
5.86492e-05
6.59012e-05
0.000153943
9.51203e-05
0.000117633
0.000138533
0.000168055
)
;
    }
    ceiling
    {
        type            compressible::alphatWallFunction;
        Prt             0.85;
        value           nonuniform List<scalar> 
43
(
0.000303921
0.000329141
0.000349949
0.000371741
0.000353999
0.00033887
0.000310492
0.000285359
0.000259654
0.000233763
0.000213272
0.000194586
0.000175834
0.000156053
0.000140381
0.000144927
0.000150079
0.000149711
0.000145441
0.000141692
0.000139219
0.000137378
0.000135539
0.000133373
0.000130874
0.000128321
0.000126205
0.000125072
0.000125374
0.000127409
0.000131417
0.000137217
0.000144031
0.00015187
0.000160605
0.00017069
0.000174471
0.000170564
0.000162262
0.000153783
0.000451193
0.000535332
0.000379664
)
;
    }
    sWall
    {
        type            compressible::alphatWallFunction;
        Prt             0.85;
        value           uniform 0.000302737;
    }
    nWall
    {
        type            compressible::alphatWallFunction;
        Prt             0.85;
        value           nonuniform List<scalar> 6(0.000121408 0.000125306 0.000135558 0.000183817 0.000188825 0.000153471);
    }
    sideWalls
    {
        type            empty;
    }
    glass1
    {
        type            compressible::alphatWallFunction;
        Prt             0.85;
        value           nonuniform List<scalar> 9(0.000123575 0.000182136 0.000233125 0.000284289 0.000336337 0.000389876 0.000441717 0.000453993 0.000444962);
    }
    glass2
    {
        type            compressible::alphatWallFunction;
        Prt             0.85;
        value           nonuniform List<scalar> 2(0.000216326 0.000208104);
    }
    sun
    {
        type            compressible::alphatWallFunction;
        Prt             0.85;
        value           nonuniform List<scalar> 
14
(
0.000126843
0.000133948
0.000132869
0.000137449
0.000141393
0.000144758
0.000147695
0.000150358
0.000152905
0.000155251
0.000156765
0.000157225
0.000156628
0.000155417
)
;
    }
    heatsource1
    {
        type            compressible::alphatWallFunction;
        Prt             0.85;
        value           nonuniform List<scalar> 3(8.86199e-05 0.000108998 0.000121676);
    }
    heatsource2
    {
        type            compressible::alphatWallFunction;
        Prt             0.85;
        value           nonuniform List<scalar> 4(0.00015763 0.000144194 0.000144193 0.000171745);
    }
    Table_master
    {
        type            compressible::alphatWallFunction;
        Prt             0.85;
        value           nonuniform List<scalar> 9(9.25848e-05 8.17509e-05 7.3303e-05 6.66654e-05 6.1371e-05 5.70764e-05 5.35603e-05 5.07259e-05 4.86537e-05);
    }
    Table_slave
    {
        type            compressible::alphatWallFunction;
        Prt             0.85;
        value           nonuniform List<scalar> 9(9.48554e-05 8.92909e-05 8.69221e-05 8.56612e-05 8.43188e-05 8.21128e-05 7.91219e-05 7.58419e-05 7.17167e-05);
    }
    inlet
    {
        type            fixedValue;
        value           uniform 1.94e-05;
    }
    outlet
    {
        type            zeroGradient;
    }
}


// ************************************************************************* //
