// -*- C++ -*-
// File generated by PyFoam - sorry for the ugliness

FoamFile
{
 version 2.0;
 format ascii;
 class volScalarField;
 location "1400";
 object T;
}

dimensions [ 0 0 0 1 0 0 0 ];

internalField nonuniform List<scalar> 459
(
  304.224
  303.961
  303.952
  303.951
  303.95
  303.949
  303.947
  303.945
  303.943
  303.94
  303.935
  303.928
  303.918
  303.907
  303.896
  303.822
  303.815
  303.811
  303.808
  303.805
  303.803
  303.801
  303.799
  303.798
  303.796
  303.794
  303.793
  303.791
  303.789
  303.787
  303.784
  303.782
  303.779
  303.783
  304.418
  303.999
  303.981
  303.986
  303.991
  303.996
  303.999
  304
  304
  303.997
  303.988
  303.972
  303.95
  303.922
  303.891
  303.867
  303.85
  303.814
  303.805
  303.799
  303.796
  303.793
  303.791
  303.787
  303.784
  303.78
  303.777
  303.773
  303.77
  303.766
  303.763
  303.76
  303.759
  303.758
  303.758
  303.77
  304.612
  304.044
  304.01
  304.023
  304.038
  304.052
  304.063
  304.072
  304.076
  304.075
  304.064
  304.041
  304.006
  303.963
  303.917
  303.879
  303.851
  303.813
  303.803
  303.8
  303.798
  303.796
  303.794
  303.789
  303.783
  303.778
  303.772
  303.767
  303.762
  303.757
  303.753
  303.749
  303.747
  303.746
  303.747
  303.763
  304.798
  304.102
  304.038
  304.055
  304.079
  304.103
  304.126
  304.145
  304.157
  304.16
  304.148
  304.117
  304.069
  304.009
  303.946
  303.891
  303.849
  303.829
  303.811
  303.805
  303.804
  303.803
  303.803
  303.802
  303.801
  303.799
  303.798
  303.797
  303.795
  303.792
  303.79
  303.786
  303.782
  303.767
  303.754
  303.746
  303.759
  304.972
  304.174
  304.068
  304.078
  304.108
  304.14
  304.173
  304.203
  304.226
  304.235
  304.225
  304.189
  304.129
  304.054
  303.977
  303.909
  303.858
  303.828
  303.812
  303.807
  303.808
  303.81
  303.811
  303.812
  303.812
  303.812
  303.811
  303.809
  303.807
  303.803
  303.799
  303.793
  303.786
  303.775
  303.76
  303.748
  303.753
  303.793
  303.825
  303.833
  305.122
  304.268
  304.125
  304.103
  304.126
  304.158
  304.194
  304.232
  304.267
  304.288
  304.281
  304.24
  304.171
  304.086
  303.998
  303.921
  303.863
  303.828
  303.811
  303.809
  303.812
  303.817
  303.82
  303.822
  303.823
  303.823
  303.822
  303.82
  303.816
  303.812
  303.805
  303.798
  303.79
  303.779
  303.766
  303.752
  303.75
  303.767
  303.776
  303.804
  305.245
  304.423
  304.278
  304.204
  304.183
  304.19
  304.214
  304.247
  304.288
  304.317
  304.308
  304.261
  304.185
  304.094
  304.002
  303.922
  303.862
  303.825
  303.809
  303.81
  303.817
  303.824
  303.828
  303.831
  303.833
  303.833
  303.832
  303.829
  303.826
  303.82
  303.812
  303.802
  303.792
  303.782
  303.77
  303.758
  303.752
  303.756
  303.761
  303.785
  305.445
  304.833
  304.674
  304.529
  304.417
  304.353
  304.329
  304.33
  304.35
  304.352
  304.318
  304.25
  304.161
  304.066
  303.975
  303.9
  303.846
  303.814
  303.805
  303.811
  303.822
  303.83
  303.836
  303.84
  303.842
  303.842
  303.842
  303.839
  303.836
  303.831
  303.824
  303.814
  303.802
  303.792
  303.783
  303.775
  303.773
  303.781
  303.796
  303.91
  305.724
  305.456
  305.181
  304.955
  304.776
  304.643
  304.554
  304.497
  304.452
  304.377
  304.281
  304.178
  304.077
  303.985
  303.908
  303.85
  303.813
  303.797
  303.8
  303.813
  303.826
  303.835
  303.842
  303.847
  303.85
  303.852
  303.853
  303.852
  303.851
  303.849
  303.848
  303.849
  303.852
  303.86
  303.874
  303.895
  303.924
  303.952
  303.971
  304.018
  297.877
  301.798
  303.185
  303.681
  303.892
  303.977
  303.993
  303.989
  303.964
  303.926
  303.882
  303.838
  303.801
  303.78
  303.773
  303.78
  303.798
  303.815
  303.829
  303.839
  303.847
  303.853
  303.858
  303.862
  303.866
  303.868
  303.871
  303.873
  303.876
  303.88
  303.885
  303.893
  303.905
  303.922
  303.941
  303.958
  303.97
  303.98
  298.632
  301.665
  302.654
  303.199
  303.486
  303.622
  303.678
  303.701
  303.713
  303.717
  303.713
  303.706
  303.708
  303.726
  303.748
  303.776
  303.798
  303.814
  303.827
  303.838
  303.846
  303.854
  303.861
  303.867
  303.872
  303.877
  303.882
  303.886
  303.889
  303.893
  303.897
  303.904
  303.912
  303.924
  303.936
  303.949
  303.941
  303.964
  300.724
  300.645
  300.64
  302.377
  302.886
  303.191
  303.455
  303.527
  303.561
  303.576
  303.59
  303.603
  303.615
  303.628
  303.666
  303.728
  303.757
  303.776
  303.791
  303.803
  303.813
  303.821
  303.829
  303.836
  303.843
  303.849
  303.856
  303.862
  303.867
  303.873
  303.879
  303.885
  303.89
  303.896
  303.903
  303.913
  303.92
  303.923
  303.921
  303.956
)
;

boundaryField
{
  floor
  {
    type wallHeatTransfer;
    Tinf uniform 305.2;
    alphaWall uniform 0.24;
    value nonuniform List<scalar> 29
(
  304.049
  304.051
  304.055
  304.06
  304.063
  304.066
  304.07
  304.076
  304.082
  304.088
  304.094
  304.1
  304.106
  304.112
  304.118
  304.124
  304.13
  304.138
  304.145
  304.168
  304.168
  304.113
  304.081
  304.058
  304.049
  304.051
  304.013
  303.989
  303.98
)
;
  }
  ceiling
  {
    type wallHeatTransfer;
    Tinf uniform 303.2;
    alphaWall uniform 0.24;
    value nonuniform List<scalar> 43
(
  300.892
  300.807
  300.794
  302.424
  302.905
  303.191
  303.438
  303.504
  303.533
  303.544
  303.555
  303.563
  303.571
  303.578
  303.607
  303.663
  303.69
  303.707
  303.718
  303.727
  303.735
  303.742
  303.748
  303.753
  303.758
  303.762
  303.766
  303.771
  303.776
  303.782
  303.789
  303.797
  303.805
  303.813
  303.823
  303.835
  303.843
  303.844
  303.839
  303.867
  305.603
  305.363
  298.887
)
;
  }
  sWall
  {
    type wallHeatTransfer;
    Tinf uniform 315.2;
    alphaWall uniform 0.36;
    value uniform 302.154;
  }
  nWall
  {
    type wallHeatTransfer;
    Tinf uniform 307.2;
    alphaWall uniform 0.36;
    value nonuniform List<scalar> 6
(
  304.495
  304.457
  304.408
  304.452
  304.429
  304.499
)
;
  }
  sideWalls
  {
    type empty;
  }
  glass1
  {
    type wallHeatTransfer;
    Tinf uniform 315.2;
    alphaWall uniform 4.3;
    value nonuniform List<scalar> 9
(
  312.371
  311.686
  311.221
  310.843
  310.525
  310.247
  310.015
  310.056
  310.248
)
;
  }
  glass2
  {
    type wallHeatTransfer;
    Tinf uniform 307.2;
    alphaWall uniform 4.3;
    value nonuniform List<scalar> 2
(
  306.015
  306.079
)
;
  }
  sun
  {
    type wallHeatTransfer;
    Tinf uniform 305.2;
    alphaWall uniform 0.24;
    value nonuniform List<scalar> 14
(
  304.357
  304.123
  304.116
  304.111
  304.107
  304.103
  304.099
  304.096
  304.092
  304.088
  304.082
  304.075
  304.067
  304.058
)
;
  }
  heatsource1
  {
    type fixedGradient;
    gradient uniform 0;
  }
  heatsource2
  {
    type fixedGradient;
    gradient uniform 0;
  }
  Table_master
  {
    type zeroGradient;
  }
  Table_slave
  {
    type zeroGradient;
  }
  inlet
  {
    type fixedValue;
    value uniform 293.15;
  }
  outlet
  {
    type zeroGradient;
  }
} 	// ************************************************************************* //

