/*--------------------------------*- C++ -*----------------------------------*\
  =========                 |
  \\      /  F ield         | OpenFOAM: The Open Source CFD Toolbox
   \\    /   O peration     | Website:  https://openfoam.org
    \\  /    A nd           | Version:  6
     \\/     M anipulation  |
\*---------------------------------------------------------------------------*/
FoamFile
{
    version     2.0;
    format      ascii;
    class       volScalarField;
    location    "1600";
    object      alphat;
}
// * * * * * * * * * * * * * * * * * * * * * * * * * * * * * * * * * * * * * //

dimensions      [1 -1 -1 0 0 0 0];

internalField   nonuniform List<scalar> 
459
(
0.00286654
0.00274125
0.00262807
0.00253282
0.00245311
0.00238427
0.00232321
0.00226678
0.0022123
0.00215736
0.00209942
0.00203521
0.00195952
0.00186135
0.00173224
0.000208152
0.000216106
0.000220265
0.000209776
0.000201562
0.000190657
0.000177576
0.000172555
0.000166805
0.000172689
0.000186416
0.000208057
0.000235003
0.000248974
0.000249872
0.000254057
0.00024965
0.000238987
0.000220236
0.00324947
0.00349506
0.00348421
0.0033744
0.00331093
0.00329365
0.00330333
0.00329506
0.00325686
0.00318694
0.00308477
0.00294722
0.00276068
0.00247841
0.0020948
0.00164195
0.00141812
0.000327436
0.000526229
0.000684628
0.000817978
0.000837896
0.000579037
0.000257112
0.000220229
0.000230347
0.000287053
0.000390055
0.000530211
0.000685918
0.000793248
0.000843936
0.000970511
0.000796609
0.000552771
0.000294505
0.00350325
0.00385563
0.00352563
0.00318218
0.00305861
0.00307182
0.00315399
0.00325035
0.00332512
0.00335842
0.0033371
0.00325111
0.00308728
0.00281071
0.00244967
0.00211694
0.00142679
0.000488446
0.00143782
0.00146412
0.00136552
0.00118344
0.000925063
0.000340547
0.000239903
0.000253414
0.000287898
0.000322842
0.000359916
0.000401283
0.000450579
0.000518797
0.00143406
0.00141499
0.0012285
0.000476775
0.00370492
0.00415431
0.00321282
0.00261818
0.00261829
0.00285556
0.00313747
0.00333609
0.00344433
0.00347795
0.00345689
0.00338229
0.00323802
0.00298309
0.00264777
0.00235375
0.0017339
0.000779561
0.00190134
0.0019571
0.00167239
0.00134572
0.00103772
0.000781342
0.000594727
0.000610617
0.000626977
0.000642755
0.000657376
0.000673837
0.000695628
0.000727696
0.000778932
0.00207068
0.0020713
0.00183216
0.000785586
0.00389153
0.00430151
0.00264793
0.00222217
0.00311357
0.00394859
0.00443712
0.00447456
0.00413596
0.0038111
0.00359597
0.00344501
0.00328151
0.00302155
0.00267294
0.00238272
0.00191298
0.00207801
0.0027905
0.00301901
0.00291939
0.00283903
0.00282803
0.00289342
0.00301529
0.00315962
0.00321909
0.00319971
0.00313977
0.00305031
0.00294323
0.0028338
0.00273737
0.00266554
0.0024603
0.00221954
0.00190251
0.000971437
0.000893794
0.00075914
0.00408647
0.00428354
0.00211498
0.00267659
0.00427553
0.00486593
0.00502308
0.00488836
0.00429775
0.00384154
0.00356591
0.0033828
0.00319379
0.00292631
0.00261923
0.0023878
0.00217011
0.00297666
0.00372352
0.00405057
0.00413689
0.00423738
0.00436646
0.0045093
0.00464028
0.00472936
0.00474825
0.00470708
0.00461152
0.00445621
0.00423563
0.00395236
0.00362339
0.00327676
0.00293876
0.00262947
0.00233139
0.00198089
0.00158
0.000782025
0.00431523
0.00417004
0.002139
0.00246398
0.00399147
0.00438677
0.00432909
0.00415224
0.00388821
0.003611
0.00339647
0.00322354
0.00303717
0.00280329
0.00257486
0.00246382
0.0025469
0.00380982
0.0045376
0.00483556
0.00503275
0.00521643
0.00538303
0.00552132
0.00562167
0.00568348
0.00570452
0.0056944
0.00565256
0.00556879
0.00542289
0.00518725
0.00483855
0.00437947
0.00385117
0.00331299
0.00282239
0.0024234
0.00204796
0.00130432
0.00463514
0.00453848
0.00297747
0.00183116
0.0031514
0.00363907
0.0036169
0.00352221
0.00344177
0.00332276
0.00319484
0.00306416
0.0029137
0.00273964
0.00260216
0.0026332
0.00301649
0.00450477
0.00517784
0.00555541
0.00585354
0.00607033
0.00622351
0.00631472
0.00635555
0.00636709
0.00636231
0.00635106
0.00633835
0.00632419
0.0063017
0.00625347
0.00614727
0.0059344
0.0055573
0.00496873
0.00420528
0.00355343
0.00318719
0.00159355
0.00516304
0.00593077
0.00597976
0.00260681
0.00275674
0.00336953
0.00338479
0.00330387
0.00322948
0.00317538
0.00311091
0.00303217
0.00293273
0.00281905
0.00275225
0.002895
0.00351525
0.00493434
0.00573886
0.00631243
0.00669083
0.00692444
0.00703197
0.00704495
0.00700457
0.0069419
0.0068759
0.00681715
0.00677076
0.00673815
0.00671774
0.00670441
0.00668813
0.0066534
0.0065823
0.00645513
0.00622096
0.0057518
0.00526268
0.00170932
0.00966321
0.00403696
0.00353674
0.00384846
0.0038073
0.00372938
0.00359912
0.00347857
0.00340569
0.00334704
0.00327991
0.00320219
0.00317093
0.00339574
0.00424764
0.00529249
0.00629137
0.00703365
0.00751196
0.00777843
0.00786352
0.00782526
0.00772182
0.00759674
0.00747673
0.00737472
0.00729396
0.00723157
0.00718099
0.00713323
0.0070771
0.00699931
0.0068853
0.00671821
0.0064626
0.00603827
0.00513484
0.00181264
0.00433708
0.00343514
0.0046798
0.00456523
0.00439915
0.00413272
0.00384896
0.00355406
0.0034062
0.00334624
0.00331908
0.0032886
0.00327891
0.0034546
0.00405929
0.00498982
0.00608772
0.00714428
0.00787178
0.00822854
0.00830053
0.00820917
0.00805457
0.00790007
0.00777632
0.00769081
0.00763696
0.00760117
0.00756757
0.00752068
0.00744611
0.00732979
0.00715596
0.00690317
0.00653735
0.00598875
0.00526287
0.00203537
0.00125142
0.00127123
0.00254212
0.00186015
0.00147705
0.00141913
0.00140201
0.00139523
0.00139781
0.00140872
0.00141626
0.00142559
0.00143637
0.00144529
0.0014485
0.00143744
0.00143727
0.0014615
0.00150938
0.00157989
0.00167312
0.001758
0.00181768
0.00184974
0.00185965
0.00185513
0.00184317
0.00182885
0.00181517
0.00180326
0.00179285
0.0017828
0.00177151
0.00175728
0.00173819
0.00171159
0.00167289
0.00161318
0.00155632
0.00148521
)
;

boundaryField
{
    floor
    {
        type            compressible::alphatWallFunction;
        Prt             0.85;
        value           nonuniform List<scalar> 
29
(
0.000242292
2.23566e-05
2.37216e-05
2.44322e-05
2.26358e-05
2.12206e-05
1.93292e-05
1.70399e-05
1.61547e-05
1.51357e-05
1.61771e-05
1.85878e-05
2.23381e-05
2.69331e-05
2.92873e-05
2.94378e-05
3.01399e-05
2.94019e-05
2.76076e-05
2.44253e-05
2.44249e-05
3.68481e-05
6.57869e-05
0.000111849
0.000242289
2.23562e-05
4.22126e-05
6.75689e-05
0.000110963
)
;
    }
    ceiling
    {
        type            compressible::alphatWallFunction;
        Prt             0.85;
        value           nonuniform List<scalar> 
43
(
0.000177922
0.000180628
0.00034736
0.000259269
0.000208292
0.00020047
0.000198153
0.000197236
0.000197586
0.000199065
0.000200085
0.000201348
0.000202804
0.000204007
0.000204432
0.000202928
0.000202896
0.000206162
0.000212604
0.000222053
0.000234477
0.000245721
0.000253591
0.000257805
0.000259105
0.000258509
0.000256935
0.000255049
0.000253247
0.000251676
0.000250302
0.000248974
0.000247482
0.0002456
0.000243073
0.000239549
0.00023441
0.000226458
0.000218854
0.000209303
0.000666811
0.000756848
0.000568432
)
;
    }
    sWall
    {
        type            compressible::alphatWallFunction;
        Prt             0.85;
        value           uniform 0.000177165;
    }
    nWall
    {
        type            compressible::alphatWallFunction;
        Prt             0.85;
        value           nonuniform List<scalar> 6(0.000107883 0.000111202 0.000184497 0.000252624 0.00028176 0.000209035);
    }
    sideWalls
    {
        type            empty;
    }
    glass1
    {
        type            compressible::alphatWallFunction;
        Prt             0.85;
        value           nonuniform List<scalar> 9(0.000384014 0.000431449 0.000462568 0.000487131 0.000509739 0.00053324 0.00056068 0.000598835 0.000661291);
    }
    glass2
    {
        type            compressible::alphatWallFunction;
        Prt             0.85;
        value           nonuniform List<scalar> 2(0.000223246 0.000238628);
    }
    sun
    {
        type            compressible::alphatWallFunction;
        Prt             0.85;
        value           nonuniform List<scalar> 
14
(
0.000388096
0.000372343
0.00035805
0.000345972
0.000335827
0.000327038
0.00031922
0.000311975
0.000304962
0.000297871
0.000290371
0.000282034
0.000272171
0.000259314
)
;
    }
    heatsource1
    {
        type            compressible::alphatWallFunction;
        Prt             0.85;
        value           nonuniform List<scalar> 3(0.000138397 0.000127368 0.000107971);
    }
    heatsource2
    {
        type            compressible::alphatWallFunction;
        Prt             0.85;
        value           nonuniform List<scalar> 4(0.000230115 0.000200079 0.000200077 0.00020125);
    }
    Table_master
    {
        type            compressible::alphatWallFunction;
        Prt             0.85;
        value           nonuniform List<scalar> 9(4.43507e-05 2.77895e-05 3.00589e-05 3.57828e-05 4.14902e-05 4.74569e-05 5.40206e-05 6.17298e-05 7.22248e-05);
    }
    Table_slave
    {
        type            compressible::alphatWallFunction;
        Prt             0.85;
        value           nonuniform List<scalar> 9(8.36981e-05 8.60769e-05 8.85182e-05 9.08654e-05 9.30345e-05 9.54696e-05 9.86816e-05 0.000103386 0.000110851);
    }
    inlet
    {
        type            fixedValue;
        value           uniform 1.94e-05;
    }
    outlet
    {
        type            zeroGradient;
    }
}


// ************************************************************************* //
