/*--------------------------------*- C++ -*----------------------------------*\
  =========                 |
  \\      /  F ield         | OpenFOAM: The Open Source CFD Toolbox
   \\    /   O peration     | Website:  https://openfoam.org
    \\  /    A nd           | Version:  6
     \\/     M anipulation  |
\*---------------------------------------------------------------------------*/
FoamFile
{
    version     2.0;
    format      ascii;
    class       surfaceScalarField;
    location    "1600";
    object      phi;
}
// * * * * * * * * * * * * * * * * * * * * * * * * * * * * * * * * * * * * * //

dimensions      [1 0 -1 0 0 0 0];

internalField   nonuniform List<scalar> 
852
(
0.00481655
-0.00479288
0.00876411
-0.00394734
0.0108609
-0.00209661
0.011954
-0.00109283
0.0125864
-0.000632242
0.0129087
-0.000322054
0.0129547
-4.58212e-05
0.0127511
0.00020386
0.0123094
0.00044183
0.0116198
0.000689809
0.0106501
0.000969958
0.00933531
0.00131499
0.00753462
0.00180089
0.00485406
0.00268077
0.0048524
-0.00032396
0.000325824
-0.00036724
4.33244e-05
-0.000341529
-2.56633e-05
-0.0003443
2.82065e-06
-0.000360509
1.62608e-05
-0.00031804
-4.24156e-05
-0.000190983
-0.000127
3.45892e-05
-0.000225511
0.000198433
-0.000163777
0.000297814
-9.93157e-05
0.000370518
-7.26425e-05
0.000437979
-6.74003e-05
0.000513643
-7.56049e-05
0.000554108
-4.04079e-05
0.000540529
1.36362e-05
0.000485007
5.55768e-05
0.000458173
2.68879e-05
0.000374775
8.34499e-05
0.000376668
0.00466578
-0.00939195
0.00720497
-0.00648631
0.00856704
-0.00345846
0.00937027
-0.00189585
0.00987319
-0.00113495
0.0101571
-0.000605776
0.0102454
-0.000133861
0.0101334
0.000316003
0.00981391
0.000761565
0.00927399
0.00122993
0.00850042
0.00174372
0.00749127
0.00232435
0.00629338
0.00299898
0.00520382
0.00377053
0.00550031
0.0045561
0.00202871
0.00347175
0.00202885
0.000526861
-0.000197898
0.000509237
6.10036e-05
0.000340142
0.000143485
0.000187976
0.000155039
4.78348e-05
0.000156454
-0.000126874
0.00013235
-0.000161435
-9.23773e-05
-2.82817e-05
-0.000358596
2.93007e-05
-0.000221285
5.55372e-05
-0.000125477
6.09553e-05
-7.79882e-05
4.00385e-05
-4.64141e-05
-1.89273e-05
-1.65723e-05
-9.79751e-05
3.87043e-05
-0.000175813
9.15313e-05
-0.000275971
0.000155787
-0.000415223
0.000166193
-0.000464492
0.000132773
-8.41901e-05
0.00332799
-0.0126127
0.00491614
-0.00807423
0.00570814
-0.00425024
0.0062199
-0.00240741
0.00659422
-0.00150907
0.00684536
-0.000856723
0.00699002
-0.000278327
0.00701064
0.000295584
0.00687738
0.000895017
0.00656605
0.00154146
0.00606834
0.00224163
0.00540117
0.00299172
0.00462667
0.00377368
0.00384856
0.00454884
0.00308633
0.00531854
0.00165879
0.00489949
0.00368783
-0.000170921
-2.57047e-05
-0.000143111
3.32613e-05
-7.51657e-05
7.56065e-05
-1.0142e-05
9.00799e-05
7.15604e-05
7.48164e-05
0.000171335
3.26393e-05
7.91743e-05
-0.000279196
-0.000500243
-0.000625478
-0.000703225
-0.000749401
-0.000765738
-0.000726804
-0.000635048
-0.000396518
-8.26744e-05
-0.000184637
-4.56247e-05
1.63044e-05
-6.80968e-05
-6.88673e-05
0.00201838
-0.0144845
0.0028957
-0.00895134
0.00327434
-0.00462867
0.00345196
-0.00258484
0.0036697
-0.00172662
0.00387262
-0.00105946
0.0040451
-0.00045064
0.0041483
0.000192568
0.00413718
0.000906315
0.00398373
0.00169508
0.00367662
0.00254892
0.00322024
0.00344829
0.00263036
0.00436376
0.00192084
0.00525856
0.00114962
0.00608995
0.000314098
0.0057352
-0.000358047
0.00436008
-0.000934707
0.000573411
-0.00101096
5.06356e-05
-0.00105237
7.47691e-05
-0.00111009
0.000133428
-0.00119914
0.000179232
-0.00131463
0.000190413
-0.00143933
0.000157441
-0.00153582
9.64376e-05
-0.00156499
2.911e-05
-0.00154948
-1.55572e-05
-0.00150288
-4.6654e-05
-0.00143264
-7.02844e-05
-0.0013423
-9.039e-05
-0.00123183
-0.000110516
-0.00109683
-0.000135043
-0.000925963
-0.000170906
-0.000771389
-0.00023713
-0.000525588
-0.000291302
-0.000235418
-0.000358138
-0.000309453
0.000928983
-0.0152286
0.00131728
-0.00933941
0.00132903
-0.00464021
0.00111833
-0.00237396
0.00123482
-0.00184294
0.00143674
-0.00126122
0.00162751
-0.000641247
0.00174883
7.1419e-05
0.00176845
0.000886856
0.00167675
0.00178696
0.00146422
0.00276164
0.00112461
0.00378809
0.000654842
0.00483372
8.20757e-05
0.00583152
-0.000433403
0.00660562
-0.000851636
0.0061536
-0.000903835
0.00441235
-0.00126036
0.000930024
-0.00146785
0.000258229
-0.00156559
0.000172612
-0.00161677
0.000184702
-0.00163802
0.000200594
-0.00164004
0.000192532
-0.00163392
0.000151426
-0.00162344
8.60573e-05
-0.00161181
1.75872e-05
-0.00158972
-3.75493e-05
-0.00155713
-7.91291e-05
-0.00151652
-0.000110795
-0.00146968
-0.000137116
-0.00141713
-0.000162954
-0.00135713
-0.000194937
-0.00128593
-0.000241992
-0.00121457
-0.00030837
-0.0011082
-0.000397544
-0.000940313
-0.000525907
-0.000542652
-0.000706996
0.000373906
-0.000916645
0.000970704
-0.000596886
0.000986377
-1.3213e-05
-0.0149932
2.78689e-06
-0.00935519
-0.000322539
-0.0043147
-0.000832855
-0.00186348
-0.000806612
-0.00186902
-0.00065143
-0.00141624
-0.000501341
-0.000791173
-0.000419063
-1.06962e-05
-0.000410354
0.000878314
-0.000467906
0.00184469
-0.000601771
0.00289568
-0.000818345
0.00400485
-0.00110953
0.00512509
-0.00142058
0.00614276
-0.00158463
0.00676984
-0.00160447
0.00617357
-0.00134364
0.00415158
-0.00150652
0.001093
-0.00164169
0.000393504
-0.00170166
0.000232686
-0.00170452
0.000187669
-0.00166776
0.000163947
-0.00161
0.000134869
-0.00155008
9.16136e-05
-0.00150031
3.63984e-05
-0.0014629
-1.9719e-05
-0.00143385
-6.649e-05
-0.00141105
-0.000101824
-0.00139421
-0.000127522
-0.00138493
-0.000146293
-0.00138557
-0.000162201
-0.0013983
-0.00018209
-0.00142406
-0.000216127
-0.00145678
-0.000275542
-0.00147877
-0.000375435
-0.00146407
-0.000540502
-0.00135682
-0.000814136
-0.0011065
-0.00116685
-0.000565922
-0.00113735
0.000439531
-0.000999406
-0.013736
-0.00164033
-0.00871403
-0.00222519
-0.00372964
-0.00291518
-0.00117332
-0.00295232
-0.00183171
-0.00282614
-0.00154226
-0.00268689
-0.000930252
-0.00257431
-0.000123112
-0.00249799
0.000802167
-0.00246124
0.00180811
-0.00245398
0.00288861
-0.00246991
0.00402096
-0.00249074
0.00514611
-0.00246367
0.00611587
-0.00228105
0.00658738
-0.001962
0.00585462
-0.00152281
0.00371245
-0.00154839
0.00111867
-0.00158465
0.000429877
-0.00157082
0.000218964
-0.00151068
0.000127644
-0.0014198
7.31793e-05
-0.00131794
3.31183e-05
-0.00122298
-3.24206e-06
-0.00114734
-3.91303e-05
-0.0010947
-7.22428e-05
-0.00106053
-0.00010055
-0.00103985
-0.000122394
-0.00103074
-0.000136516
-0.0010344
-0.000142522
-0.00105517
-0.000141316
-0.00110088
-0.000136276
-0.00118203
-0.000134863
-0.00130664
-0.000150827
-0.00147578
-0.000206184
-0.00169093
-0.000325246
-0.00197637
-0.000528587
-0.0022893
-0.000853818
-0.00212367
-0.00130286
-0.00167008
-0.00358241
-0.00986417
-0.00546763
-0.00682858
-0.00553872
-0.00365834
-0.00575604
-0.000955827
-0.00531425
-0.00227334
-0.00493376
-0.00192258
-0.00467508
-0.00118877
-0.0044821
-0.000315919
-0.00431746
0.000637705
-0.00415045
0.00164128
-0.00395224
0.00269057
-0.00370579
0.00377469
-0.00339411
0.00483461
-0.00299247
0.00571439
-0.00247272
0.00606778
-0.00189785
0.00527985
-0.00136747
0.00318213
-0.0012853
0.00103661
-0.00123463
0.000379317
-0.00114125
0.000125695
-0.00100715
-6.33854e-06
-0.000859359
-7.44922e-05
-0.000727396
-9.87282e-05
-0.00062452
-0.000106002
-0.000551705
-0.00011183
-0.000503054
-0.000120777
-0.000472036
-0.000131451
-0.000453247
-0.000141066
-0.000442804
-0.000146842
-0.00043851
-0.000146698
-0.000440145
-0.000139564
-0.000450412
-0.000125892
-0.000476661
-0.0001085
-0.00053331
-9.40663e-05
-0.000645753
-9.36328e-05
-0.00085696
-0.000113935
-0.00123663
-0.000148815
-0.00179475
-0.000295592
-0.00192371
-0.00117381
-0.00352834
-0.00957201
-0.0164187
-0.0115267
-0.00855012
-0.00807465
-0.00440767
-0.0069137
-0.00343412
-0.0063635
-0.00247261
-0.00608807
-0.00146403
-0.00590274
-0.000501078
-0.00569417
0.000429308
-0.00539747
0.00134475
-0.00499009
0.00228337
-0.00445442
0.0032392
-0.00378441
0.00416477
-0.00299479
0.00492493
-0.00214448
0.00521761
-0.00135705
0.00449252
-0.000710232
0.00253539
-0.000562343
0.000888836
-0.00045807
0.000275163
-0.000296954
-3.52996e-05
-0.000120157
-0.000183015
2.20189e-05
-0.000216547
0.000124408
-0.000200996
0.000194183
-0.000175657
0.00024014
-0.000157665
0.000268823
-0.000149339
0.000285365
-0.000147872
0.000293824
-0.000149403
0.000297808
-0.000150704
0.000300973
-0.00014974
0.000307348
-0.000145815
0.0003214
-0.000139821
0.000347786
-0.000134764
0.000390264
-0.000136424
0.000449206
-0.000152457
0.000521185
-0.0001858
0.000602966
-0.000230485
0.000650705
-0.000343222
0.00044404
-0.000967038
-0.00301119
-0.0092091
0.000282689
-0.00725692
-0.0063596
-0.0068596
-0.00383127
-0.00685802
-0.00247403
-0.00685219
-0.0014697
-0.00674584
-0.000607256
-0.00650508
0.000188711
-0.00612302
0.000962859
-0.00554008
0.0017006
-0.00473619
0.00243548
-0.00371985
0.00314859
-0.00253503
0.00374026
-0.00133989
0.0040226
-0.000175796
0.00332853
0.000610921
0.00174876
0.000826086
0.000673789
0.000950475
0.000150898
0.00104999
-0.000134689
0.00110683
-0.000239727
0.00113049
-0.000240086
0.00113935
-0.000209731
0.00114296
-0.000179142
0.00114364
-0.000158213
0.00114122
-0.000146795
0.00113504
-0.000141568
0.00112508
-0.000139324
0.00111256
-0.00013805
0.00110004
-0.000137102
0.00109149
-0.000137139
0.00109198
-0.000140185
0.00110721
-0.000149868
0.00114249
-0.000171571
0.00120166
-0.00021151
0.00128836
-0.000272381
0.00140283
-0.000344835
0.00146484
-0.000405121
0.00111845
-0.000620534
-0.00187734
-0.000539264
0.000790239
-0.00370915
-0.00318937
-0.00535299
-0.00218725
-0.00648043
-0.00134643
-0.00713983
-0.000810132
-0.0073662
-0.000380718
-0.00719529
1.79621e-05
-0.00671621
0.000483947
-0.0059378
0.000922357
-0.00485144
0.00134928
-0.00347858
0.0017759
-0.0018618
0.00212362
-4.37474e-05
0.0022047
0.00160918
0.00167572
0.00244785
0.00091022
0.0027343
0.000387468
0.00276882
0.000116507
0.00264557
-1.1309e-05
0.00247146
-6.5484e-05
0.00232416
-9.26468e-05
0.00221801
-0.000103453
0.00214597
-0.000106974
0.00209487
-0.000106983
0.00205271
-0.000104511
0.00201141
-0.000100137
0.00196701
-9.47901e-05
0.00191886
-8.97745e-05
0.00186851
-8.66259e-05
0.00181857
-8.70753e-05
0.0017717
-9.31859e-05
0.00172962
-0.00010766
0.00169241
-0.000134238
0.00165898
-0.000177957
0.00163177
-0.000245045
0.00163177
-0.000344716
0.00172504
-0.000498277
0.00187057
-0.000765952
8.73317e-06
0.00399667
0.000753459
0.00147231
-0.00179066
-0.00404984
-0.00546971
-0.00635391
-0.00680896
-0.00686526
-0.00645516
-0.00560632
-0.00433008
-0.00262656
-0.000574455
0.00156065
0.00316949
0.00401487
0.0043395
0.00439551
0.00432647
0.00420644
0.00406193
0.00390852
0.00375279
0.00359776
0.00344558
0.003298
0.00315595
0.00301911
0.00288565
0.002752
0.00261253
0.00245884
0.00227876
0.00205505
0.00176419
0.00137332
0.000828131
1.47716e-05
)
;

boundaryField
{
    floor
    {
        type            calculated;
        value           nonuniform List<scalar> 
29
(
0
0
0
0
0
0
0
0
0
0
0
0
0
0
0
0
0
0
0
0
-1.84378e-06
-3.57613e-06
1.07965e-06
5.30458e-06
1.85882e-06
-1.8211e-06
-3.07991e-06
-1.20933e-06
3.32499e-06
)
;
    }
    ceiling
    {
        type            calculated;
        value           nonuniform List<scalar> 
43
(
0.000169926
0.000164459
7.197e-05
7.4141e-05
7.21048e-05
7.36111e-05
7.42281e-05
7.44936e-05
7.44257e-05
7.4013e-05
7.36866e-05
7.32088e-05
7.25405e-05
7.16795e-05
6.97384e-05
6.70198e-05
6.49857e-05
6.29858e-05
6.06443e-05
5.78701e-05
5.469e-05
5.20038e-05
5.00965e-05
4.8889e-05
4.8188e-05
4.78009e-05
4.75727e-05
4.73941e-05
4.72003e-05
4.6966e-05
4.66963e-05
4.6416e-05
4.61595e-05
4.59648e-05
4.58737e-05
4.59426e-05
4.62677e-05
4.70288e-05
4.75173e-05
4.75515e-05
2.15492e-05
1.84104e-05
3.20936e-05
)
;
    }
    sWall
    {
        type            calculated;
        value           uniform -6.15588e-05;
    }
    nWall
    {
        type            calculated;
        value           nonuniform List<scalar> 6(-1.5763e-05 -1.89655e-05 -1.39239e-05 -1.52903e-05 -1.53872e-05 -2.39432e-05);
    }
    sideWalls
    {
        type            empty;
        value           nonuniform 0();
    }
    glass1
    {
        type            calculated;
        value           nonuniform List<scalar> 9(-2.3464e-05 -6.64938e-05 -0.000107069 -0.000146335 -0.000184638 -0.000221978 -0.000257507 -0.000289196 -0.000313452);
    }
    glass2
    {
        type            calculated;
        value           nonuniform List<scalar> 2(-6.53388e-05 -7.30094e-05);
    }
    sun
    {
        type            calculated;
        value           uniform 0;
    }
    heatsource1
    {
        type            calculated;
        value           nonuniform List<scalar> 3(2.00541e-07 2.00575e-07 2.00651e-07);
    }
    heatsource2
    {
        type            calculated;
        value           nonuniform List<scalar> 4(4.89272e-08 4.93285e-08 0 0);
    }
    Table_master
    {
        type            calculated;
        value           nonuniform List<scalar> 9(-1.52111e-07 -1.52152e-07 -1.52062e-07 -1.51961e-07 -1.51879e-07 -1.51809e-07 -1.51745e-07 -1.51683e-07 -1.51597e-07);
    }
    Table_slave
    {
        type            calculated;
        value           nonuniform List<scalar> 9(1.50565e-07 1.50543e-07 1.50532e-07 1.5053e-07 1.50541e-07 1.50563e-07 1.50594e-07 1.50635e-07 1.50671e-07);
    }
    inlet
    {
        type            calculated;
        value           uniform 0.000376655;
    }
    outlet
    {
        type            calculated;
        value           nonuniform List<scalar> 2(-0.00410457 0.00307921);
    }
}


// ************************************************************************* //
