/*--------------------------------*- C++ -*----------------------------------*\
  =========                 |
  \\      /  F ield         | OpenFOAM: The Open Source CFD Toolbox
   \\    /   O peration     | Website:  https://openfoam.org
    \\  /    A nd           | Version:  6
     \\/     M anipulation  |
\*---------------------------------------------------------------------------*/
FoamFile
{
    version     2.0;
    format      ascii;
    class       volScalarField;
    location    "280";
    object      nut;
}
// * * * * * * * * * * * * * * * * * * * * * * * * * * * * * * * * * * * * * //

dimensions      [0 2 -1 0 0 0 0];

internalField   nonuniform List<scalar> 
459
(
0.000951233
0.00105144
0.00109039
0.00114997
0.00120709
0.00126481
0.00132339
0.0013707
0.00139974
0.00140264
0.00137185
0.00128526
0.00114137
0.000970457
0.000831954
0.000498366
0.00065788
0.000716559
0.000739224
0.000734862
0.000713825
0.000671111
0.000625182
0.000583129
0.000545903
0.000513029
0.000484015
0.00045831
0.000435039
0.000413232
0.000391621
0.000368861
0.000334543
0.000315216
0.00123356
0.00308667
0.00301063
0.00349862
0.00400927
0.00447738
0.0048431
0.00520938
0.00555261
0.00583385
0.00600691
0.00599813
0.00570799
0.00506158
0.00336944
0.00103695
0.000817721
0.000793572
0.00256859
0.00252108
0.00279831
0.00299309
0.00288434
0.00205981
0.00171245
0.00148575
0.0013203
0.00119361
0.00109153
0.000999826
0.000912112
0.000824023
0.00074549
0.00071481
0.00061745
0.000397241
0.00146724
0.00417662
0.00376201
0.00438155
0.00471309
0.00496521
0.00519073
0.00548692
0.00587178
0.00631847
0.0067555
0.00704836
0.00705392
0.00671541
0.00568758
0.00367282
0.00101107
0.000856911
0.00227873
0.00285267
0.00343982
0.0038311
0.00352871
0.000919642
0.000798275
0.000702136
0.000626224
0.000565772
0.000517141
0.000478098
0.000447206
0.000424524
0.000481391
0.00060887
0.000703192
0.000440638
0.00168885
0.00511462
0.00379868
0.00448621
0.00458088
0.00461424
0.00472269
0.00495371
0.00536769
0.00593257
0.00654462
0.00699877
0.00722454
0.00719615
0.00676562
0.00555615
0.00297298
0.00114915
0.00163621
0.002398
0.00339354
0.00427659
0.00479244
0.00435519
0.00101724
0.0009214
0.000853661
0.000802629
0.000760691
0.000722389
0.000686456
0.000649055
0.000605952
0.000569452
0.000608148
0.00080686
0.000498813
0.00191563
0.00630446
0.00397258
0.00440222
0.00443396
0.00435435
0.0043948
0.0045706
0.00501095
0.00564506
0.00629678
0.0068039
0.00709029
0.00716941
0.0070358
0.00651294
0.00541332
0.00468723
0.00494897
0.00543531
0.0059155
0.00624972
0.00636058
0.00609478
0.00495971
0.00441648
0.00410813
0.00389592
0.00370795
0.00348538
0.0031493
0.00270601
0.00217439
0.00163768
0.00123601
0.00114291
0.000818671
0.00056605
0.000556979
0.000535723
0.00216063
0.00767528
0.00507317
0.00446002
0.00460735
0.00442353
0.00436097
0.0044795
0.00490217
0.00556646
0.00626428
0.00679112
0.00706228
0.0071334
0.00711988
0.00706137
0.00693287
0.007049
0.00734716
0.00757743
0.0076688
0.00760424
0.00739385
0.00703777
0.00651539
0.00607063
0.00571729
0.00541691
0.00513539
0.0048392
0.00447395
0.00400721
0.00344123
0.0028145
0.00222493
0.00182804
0.00143305
0.0011302
0.00125854
0.000671781
0.00239202
0.00869023
0.00695277
0.00542526
0.00519548
0.00476999
0.00447232
0.00452727
0.00499368
0.00573663
0.00649567
0.00703794
0.00728789
0.00735365
0.00745025
0.00770283
0.00801299
0.00834616
0.00856283
0.00856246
0.00837377
0.00804084
0.00761028
0.00712666
0.00663595
0.00620605
0.00584202
0.00552405
0.00523283
0.00494839
0.00465036
0.0043303
0.00395108
0.003499
0.00300578
0.00256427
0.00212136
0.00171512
0.00162234
0.000797847
0.00244834
0.0079062
0.00689216
0.00619487
0.00547691
0.0047389
0.00439333
0.00459267
0.00527495
0.00618775
0.00701598
0.00754277
0.00775874
0.00784391
0.00801748
0.00826328
0.00847841
0.00863308
0.00863618
0.00843014
0.00804038
0.0075379
0.00698274
0.00643577
0.0059492
0.00554647
0.00521483
0.0049317
0.00468049
0.00444518
0.00420994
0.00398165
0.00380104
0.00363468
0.00337293
0.00311438
0.00282191
0.00233364
0.00253611
0.000998052
0.00239829
0.00286197
0.00313339
0.00316111
0.00315655
0.00329702
0.00380762
0.00475776
0.00596077
0.00707516
0.00784459
0.00819718
0.00829205
0.00826701
0.00808588
0.00795992
0.00791536
0.0078497
0.0076667
0.00735013
0.00693509
0.00647197
0.00601242
0.00560158
0.00525338
0.0049545
0.00468512
0.0044256
0.00416482
0.00389091
0.00357845
0.00320939
0.00283256
0.00252843
0.00229964
0.00210424
0.00193407
0.00178836
0.00168914
0.00107944
0.000983353
0.0016146
0.00253207
0.00395376
0.00546623
0.00689021
0.00795329
0.00850072
0.00863464
0.00840927
0.00797772
0.00757117
0.00729192
0.00712402
0.00700713
0.00687037
0.00668355
0.00646141
0.00623466
0.00602655
0.00584382
0.00567776
0.00550921
0.00531676
0.00508941
0.00481349
0.00448363
0.00410629
0.00369725
0.00327356
0.00287792
0.00254055
0.00228599
0.00211743
0.00200133
0.00189644
0.00181565
0.00127382
0.00136183
0.00358125
0.0057881
0.00722674
0.00812375
0.00884392
0.00906141
0.00879373
0.00825324
0.00766872
0.00721058
0.00692002
0.00676512
0.00668936
0.00664981
0.0066203
0.00658872
0.00655379
0.00651916
0.00648856
0.00646234
0.00643614
0.00640048
0.00634076
0.00624211
0.00608619
0.00585582
0.0055395
0.00513494
0.00465065
0.00413183
0.00362382
0.00317058
0.00279756
0.00250268
0.0022906
0.00295351
0.00143996
0.00145304
0.00154355
0.0016241
0.00187628
0.0019273
0.00190818
0.00192857
0.00191814
0.00187066
0.00180387
0.00172556
0.0016596
0.00161701
0.00159397
0.00158374
0.00158087
0.00158111
0.00158162
0.00158109
0.00157952
0.00157743
0.00157521
0.00157281
0.0015697
0.00156485
0.001557
0.00154414
0.00152453
0.00149696
0.00146135
0.00141939
0.00137493
0.00133122
0.00129222
0.00126085
0.00123755
0.00121745
0.00119273
0.00121561
0.00118307
)
;

boundaryField
{
    floor
    {
        type            nutkWallFunction;
        Cmu             0.09;
        kappa           0.41;
        E               9.8;
        value           nonuniform List<scalar> 
29
(
0.000100746
5.95082e-05
7.95413e-05
8.67565e-05
8.95249e-05
8.8993e-05
8.64226e-05
8.11755e-05
7.54886e-05
7.02373e-05
6.55503e-05
6.1379e-05
5.76699e-05
5.43609e-05
5.13452e-05
4.85009e-05
4.56634e-05
4.26534e-05
3.80694e-05
3.54613e-05
3.54612e-05
4.64016e-05
5.20706e-05
5.95626e-05
0.000100746
5.95082e-05
9.61186e-05
0.000103739
0.000138131
)
;
    }
    ceiling
    {
        type            nutkWallFunction;
        Cmu             0.09;
        kappa           0.41;
        E               9.8;
        value           nonuniform List<scalar> 
43
(
0.000172828
0.000183001
0.000192001
0.000219898
0.000225505
0.000223424
0.000225662
0.000224523
0.000219321
0.000211975
0.000203324
0.000196005
0.000191263
0.000188692
0.00018755
0.000187229
0.000187257
0.000187314
0.000187255
0.000187079
0.000186844
0.000186596
0.000186328
0.000185979
0.000185436
0.000184557
0.000183117
0.000180917
0.000177819
0.000173808
0.000169068
0.000164029
0.000159057
0.000154605
0.000151013
0.000148339
0.000146027
0.000143178
0.000145816
0.000142065
0.000276484
0.000325592
0.000162476
)
;
    }
    sWall
    {
        type            nutkWallFunction;
        Cmu             0.09;
        kappa           0.41;
        E               9.8;
        value           uniform 0.000172859;
    }
    nWall
    {
        type            nutkWallFunction;
        Cmu             0.09;
        kappa           0.41;
        E               9.8;
        value           nonuniform List<scalar> 6(6.42446e-05 8.12484e-05 9.66341e-05 0.000152512 0.000171408 0.000142077);
    }
    sideWalls
    {
        type            empty;
    }
    glass1
    {
        type            nutkWallFunction;
        Cmu             0.09;
        kappa           0.41;
        E               9.8;
        value           nonuniform List<scalar> 9(0.000115008 0.000147963 0.000174587 0.000199401 0.000224427 0.000251109 0.000276012 0.000282037 0.000276692);
    }
    glass2
    {
        type            nutkWallFunction;
        Cmu             0.09;
        kappa           0.41;
        E               9.8;
        value           nonuniform List<scalar> 2(0.000120513 0.000130058);
    }
    sun
    {
        type            nutkWallFunction;
        Cmu             0.09;
        kappa           0.41;
        E               9.8;
        value           nonuniform List<scalar> 
14
(
0.000114971
0.00012676
0.000131308
0.000138229
0.000144826
0.000151457
0.000158153
0.000163535
0.000166829
0.000167157
0.000163664
0.000153793
0.000137229
0.000117242
)
;
    }
    heatsource1
    {
        type            nutkWallFunction;
        Cmu             0.09;
        kappa           0.41;
        E               9.8;
        value           nonuniform List<scalar> 3(6.8083e-05 6.69395e-05 6.42512e-05);
    }
    heatsource2
    {
        type            nutkWallFunction;
        Cmu             0.09;
        kappa           0.41;
        E               9.8;
        value           nonuniform List<scalar> 4(0.000125065 9.90346e-05 9.90346e-05 0.000122028);
    }
    Table_master
    {
        type            nutkWallFunction;
        Cmu             0.09;
        kappa           0.41;
        E               9.8;
        value           nonuniform List<scalar> 9(0.000111229 9.66894e-05 8.4988e-05 7.56134e-05 6.805e-05 6.18937e-05 5.68997e-05 5.29122e-05 4.99627e-05);
    }
    Table_slave
    {
        type            nutkWallFunction;
        Cmu             0.09;
        kappa           0.41;
        E               9.8;
        value           nonuniform List<scalar> 9(0.000122759 0.000111438 0.000103354 9.72151e-05 9.21352e-05 8.74668e-05 8.30602e-05 7.84442e-05 7.30843e-05);
    }
    inlet
    {
        type            calculated;
        value           uniform 0.000100623;
    }
    outlet
    {
        type            calculated;
        value           nonuniform List<scalar> 2(0.00145304 0.00154355);
    }
}


// ************************************************************************* //
