/*--------------------------------*- C++ -*----------------------------------*\
  =========                 |
  \\      /  F ield         | OpenFOAM: The Open Source CFD Toolbox
   \\    /   O peration     | Website:  https://openfoam.org
    \\  /    A nd           | Version:  6
     \\/     M anipulation  |
\*---------------------------------------------------------------------------*/
FoamFile
{
    version     2.0;
    format      ascii;
    class       volScalarField;
    location    "350";
    object      alphat;
}
// * * * * * * * * * * * * * * * * * * * * * * * * * * * * * * * * * * * * * //

dimensions      [1 -1 -1 0 0 0 0];

internalField   nonuniform List<scalar> 
459
(
0.00116117
0.0014392
0.00146787
0.00141573
0.001353
0.00129418
0.00124041
0.00119151
0.00114657
0.00110349
0.00106042
0.0010153
0.000965244
0.000904742
0.000834509
0.000633864
0.000832594
0.000877011
0.000875703
0.000843372
0.000803626
0.000754108
0.000705753
0.00066258
0.000624729
0.000591523
0.00056219
0.000535903
0.000512246
0.000489985
0.000467619
0.000443876
0.000407848
0.00039473
0.0013788
0.00423021
0.00362946
0.00340422
0.00322115
0.00308288
0.00298726
0.0028941
0.00277479
0.00262634
0.00244037
0.00220639
0.00191706
0.00156768
0.00119188
0.00081769
0.000728913
0.000973611
0.00297669
0.00251495
0.00259311
0.00272792
0.00267508
0.00206376
0.00175113
0.00153746
0.00137907
0.00125705
0.00116105
0.00108541
0.00100588
0.000916318
0.000831426
0.000813847
0.000745506
0.000494578
0.00145016
0.00465409
0.00343636
0.00340651
0.0033513
0.00335267
0.00342784
0.00351092
0.00353053
0.00345245
0.00326399
0.00296782
0.00257971
0.00212531
0.00165176
0.00121421
0.00074202
0.000964326
0.00281696
0.00260584
0.00293309
0.00329681
0.00320588
0.000991119
0.000877045
0.000782667
0.000705142
0.00064128
0.000588383
0.000544464
0.000509627
0.000484507
0.000544359
0.000717364
0.000912625
0.000567018
0.00147889
0.00424249
0.00293598
0.0033898
0.00348671
0.00361554
0.0038613
0.00404655
0.00409299
0.0039977
0.00377452
0.00344279
0.00302696
0.00255604
0.0020631
0.00158624
0.00107312
0.00076167
0.00147233
0.0020601
0.00293305
0.00376727
0.00431626
0.00410764
0.00108098
0.000992839
0.000923023
0.00086225
0.000805146
0.000748513
0.00069013
0.000627903
0.000556868
0.000530669
0.000674711
0.00109477
0.000658868
0.00152149
0.00356383
0.00259318
0.00355482
0.00386613
0.00414783
0.00450579
0.00457365
0.00452065
0.00437405
0.00413678
0.00381701
0.0034355
0.00301969
0.00259806
0.00221413
0.00190813
0.0020454
0.00281631
0.00385543
0.00479854
0.00547729
0.00584776
0.00583478
0.00500171
0.00450206
0.0040052
0.00352026
0.0030375
0.00255337
0.00206547
0.00157498
0.0010823
0.000746714
0.000731327
0.00109696
0.000936239
0.000729577
0.00079244
0.00115308
0.00155437
0.0031389
0.00242957
0.00368886
0.00430257
0.00464444
0.00499379
0.00500647
0.00491914
0.00478564
0.00460083
0.00435595
0.00407836
0.00380187
0.00356983
0.00346857
0.00360306
0.00433922
0.00530126
0.00611835
0.00669396
0.00700734
0.00708827
0.00695975
0.00657517
0.00603427
0.00538553
0.00468791
0.00397235
0.0032561
0.0025496
0.00186419
0.00130622
0.00100615
0.000968017
0.00111373
0.00109167
0.0011645
0.00171654
0.00153471
0.00158752
0.00293682
0.00214716
0.00386646
0.00481179
0.00495548
0.00523624
0.0052768
0.0052387
0.0051847
0.00511232
0.00502367
0.00493892
0.00488763
0.0049423
0.00518996
0.00571106
0.00653972
0.00722665
0.00765711
0.00784216
0.007808
0.0076107
0.00727961
0.00679313
0.00619483
0.00551831
0.00479509
0.00405912
0.00334645
0.002698
0.0021624
0.00180143
0.00163835
0.00158115
0.00151508
0.00130887
0.00164273
0.0031149
0.00209073
0.00160635
0.00275042
0.00165581
0.00391908
0.00550011
0.00543316
0.0053961
0.00532604
0.00532127
0.00535506
0.00540512
0.00547375
0.00557934
0.00575264
0.00603758
0.00648883
0.00707439
0.00766748
0.00801956
0.00809698
0.007941
0.00758555
0.00708814
0.00654745
0.00600147
0.00545048
0.00488529
0.00431777
0.00378179
0.00332193
0.00298064
0.00278336
0.00272073
0.0027218
0.00265441
0.00244824
0.00195381
0.00227024
0.00565292
0.00288973
0.00165935
0.00146865
0.00117084
0.0036097
0.00612989
0.00610372
0.00589721
0.00581886
0.00585986
0.00594117
0.00603816
0.00615498
0.0063062
0.00650975
0.00678092
0.00711856
0.00746278
0.00769566
0.0077028
0.00746995
0.00704691
0.00653264
0.0060166
0.00554618
0.0051396
0.00479315
0.00449942
0.00426574
0.00411068
0.00405239
0.0040972
0.00422943
0.00440024
0.00451837
0.00447099
0.00419507
0.00358042
0.00367751
0.00760374
0.00325794
0.000899868
0.00315138
0.00649198
0.00679152
0.0068771
0.00702398
0.00717562
0.00729838
0.0073928
0.0074698
0.00754035
0.00761191
0.00768523
0.00774843
0.00777008
0.00770873
0.00754483
0.00729975
0.0070143
0.00672739
0.00646435
0.00623835
0.00605485
0.0059177
0.00583297
0.00581014
0.00585914
0.00598517
0.00618235
0.00642582
0.00666296
0.00680923
0.00675476
0.00646244
0.00588506
0.00575383
0.00798285
0.00276922
0.00251895
0.00722937
0.00767008
0.00773555
0.00794069
0.00818283
0.0083745
0.00850012
0.00857228
0.00860642
0.00861415
0.00860339
0.00857957
0.00854559
0.00849996
0.00843616
0.00834627
0.00823058
0.00809924
0.00796477
0.00783588
0.007719
0.00762109
0.00755102
0.00751887
0.00753513
0.00760909
0.00774628
0.00794449
0.00818669
0.00842955
0.00858849
0.0085294
0.00817609
0.00754226
0.00693783
0.00629026
0.0023213
0.00152491
0.00161807
0.00185646
0.00200261
0.00203839
0.00204946
0.00205765
0.00206418
0.00206816
0.00207
0.00207055
0.0020706
0.00207079
0.00207156
0.002073
0.00207454
0.00207489
0.00207258
0.00206711
0.00205914
0.00204992
0.00204063
0.00203223
0.00202546
0.00202099
0.00201946
0.00202146
0.00202749
0.00203783
0.00205219
0.00206936
0.00208646
0.00209821
0.00209703
0.00208111
0.00206049
0.00207212
0.00213556
0.00217738
0.00194818
)
;

boundaryField
{
    floor
    {
        type            compressible::alphatWallFunction;
        Prt             0.85;
        value           nonuniform List<scalar> 
29
(
0.00011907
8.97573e-05
0.00011882
0.000125194
0.000125008
0.000120372
0.000114643
0.000107457
0.000100385
9.40211e-05
8.83996e-05
8.34334e-05
7.90177e-05
7.5036e-05
7.14319e-05
6.8021e-05
6.45744e-05
6.08923e-05
5.52559e-05
5.31893e-05
5.31886e-05
6.8731e-05
7.97537e-05
9.34815e-05
0.000119069
8.97562e-05
0.000138928
0.000137612
0.000108538
)
;
    }
    ceiling
    {
        type            compressible::alphatWallFunction;
        Prt             0.85;
        value           nonuniform List<scalar> 
43
(
0.000214757
0.000227221
0.000258771
0.000277891
0.00028255
0.000283991
0.000285057
0.000285905
0.000286422
0.000286662
0.000286734
0.000286741
0.000286766
0.000286867
0.000287054
0.000287254
0.0002873
0.000287001
0.00028629
0.000285255
0.000284057
0.000282849
0.000281756
0.000280875
0.000280293
0.000280093
0.000280352
0.000281137
0.00028248
0.000284347
0.000286575
0.000288794
0.000290315
0.000290162
0.000288095
0.000285417
0.000286927
0.000295148
0.000300554
0.000270787
0.0002326
0.000207043
0.000344291
)
;
    }
    sWall
    {
        type            compressible::alphatWallFunction;
        Prt             0.85;
        value           uniform 0.000214691;
    }
    nWall
    {
        type            compressible::alphatWallFunction;
        Prt             0.85;
        value           nonuniform List<scalar> 6(0.000164094 0.000216089 0.000289363 0.000375984 0.000319099 0.000270812);
    }
    sideWalls
    {
        type            empty;
    }
    glass1
    {
        type            compressible::alphatWallFunction;
        Prt             0.85;
        value           nonuniform List<scalar> 9(0.000165308 0.000195179 0.000204845 0.000208715 0.000214442 0.000218842 0.00022326 0.000225743 0.000232783);
    }
    glass2
    {
        type            compressible::alphatWallFunction;
        Prt             0.85;
        value           nonuniform List<scalar> 2(0.000392875 0.000438841);
    }
    sun
    {
        type            compressible::alphatWallFunction;
        Prt             0.85;
        value           nonuniform List<scalar> 
14
(
0.000165122
0.000203138
0.00020701
0.000199967
0.000191454
0.000183431
0.00017606
0.000169325
0.000163108
0.000157122
0.00015111
0.00014478
0.000137721
0.00012913
)
;
    }
    heatsource1
    {
        type            compressible::alphatWallFunction;
        Prt             0.85;
        value           nonuniform List<scalar> 3(0.000103654 0.0001128 0.000163803);
    }
    heatsource2
    {
        type            compressible::alphatWallFunction;
        Prt             0.85;
        value           nonuniform List<scalar> 4(0.00011645 0.000103559 0.000103558 0.000105472);
    }
    Table_master
    {
        type            compressible::alphatWallFunction;
        Prt             0.85;
        value           nonuniform List<scalar> 9(0.00014117 0.000124972 0.000111383 0.000100073 9.06438e-05 8.27461e-05 7.6122e-05 7.08205e-05 6.69695e-05);
    }
    Table_slave
    {
        type            compressible::alphatWallFunction;
        Prt             0.85;
        value           nonuniform List<scalar> 9(0.000153779 0.000141415 0.000131532 0.000122857 0.000114639 0.00010642 9.78688e-05 8.86565e-05 7.80015e-05);
    }
    inlet
    {
        type            fixedValue;
        value           uniform 1.94e-05;
    }
    outlet
    {
        type            zeroGradient;
    }
}


// ************************************************************************* //
