// -*- C++ -*-
// File generated by PyFoam - sorry for the ugliness

FoamFile
{
 version 2.0;
 format ascii;
 class volVectorField;
 location "150";
 object U;
}

dimensions [ 0 1 -1 0 0 0 0 ];

internalField nonuniform List<vector> 459
(
  (-0.00831949 0.0755093 0)
  (-0.154893 0.0252435 0)
  (-0.186787 0.00751033 0)
  (-0.203833 -0.00689714 0)
  (-0.196349 -0.02212 0)
  (-0.163989 -0.0393941 0)
  (-0.111758 -0.0560507 0)
  (-0.051744 -0.0673751 0)
  (0.033202 -0.0552768 0)
  (0.0783937 -0.0400661 0)
  (0.114209 -0.0260513 0)
  (0.134713 -0.0131593 0)
  (0.136412 0.000266027 0)
  (0.114237 0.0204937 0)
  (0.10901 0.0647911 0)
  (-0.107641 0.00847915 0)
  (-0.00572721 0.00797747 0)
  (-0.0275189 -0.0143051 0)
  (-0.00232905 -0.0285813 0)
  (0.0268136 -0.0259041 0)
  (0.0503529 -0.0195778 0)
  (0.0678083 -0.0115002 0)
  (0.078537 -0.0069842 0)
  (0.0838849 -0.00518659 0)
  (0.0865512 -0.00435111 0)
  (0.0881877 -0.00372134 0)
  (0.0891475 -0.00312461 0)
  (0.0892453 -0.00241576 0)
  (0.0880031 -0.00128627 0)
  (0.0844546 0.000841074 0)
  (0.0766515 0.00493915 0)
  (0.0637723 0.0110988 0)
  (0.00322928 0.0249984 0)
  (0.126959 0.00542566 0)
  (0.114033 0.1573 0)
  (-0.132606 0.0752285 0)
  (-0.147437 0.0436922 0)
  (-0.165254 0.0133134 0)
  (-0.159629 -0.0219923 0)
  (-0.130711 -0.0599667 0)
  (-0.0848392 -0.0911686 0)
  (-0.0328317 -0.105847 0)
  (0.0247454 -0.0906264 0)
  (0.0653241 -0.0651251 0)
  (0.0967169 -0.0393952 0)
  (0.115948 -0.0141166 0)
  (0.123851 0.011642 0)
  (0.122062 0.039859 0)
  (0.12576 0.0784412 0)
  (0.117622 0.0748064 0)
  (0.0757854 0.0711078 0)
  (-0.165302 0.0187786 0)
  (0.0238471 0.0173899 0)
  (0.0187954 -0.0278979 0)
  (0.0350717 -0.0415442 0)
  (0.052589 -0.0393383 0)
  (0.0682452 -0.0306037 0)
  (0.0762362 -0.0145447 0)
  (0.0786394 -0.00471865 0)
  (0.0789984 -0.000954471 0)
  (0.0793844 0.000534859 0)
  (0.0799162 0.00148446 0)
  (0.0803034 0.00237077 0)
  (0.0804302 0.00354012 0)
  (0.0801316 0.00553692 0)
  (0.0787631 0.009638 0)
  (0.0731945 0.0194134 0)
  (0.0638396 0.0301906 0)
  (-0.000367857 0.0465326 0)
  (0.19595 0.0300703 0)
  (0.226777 0.234061 0)
  (-0.130487 0.114133 0)
  (-0.111589 0.0670296 0)
  (-0.128639 0.0174199 0)
  (-0.122626 -0.0392157 0)
  (-0.0938247 -0.0977129 0)
  (-0.0530937 -0.140216 0)
  (-0.00979287 -0.152986 0)
  (0.0304981 -0.132138 0)
  (0.0629348 -0.0986556 0)
  (0.0880942 -0.0628478 0)
  (0.10419 -0.0279317 0)
  (0.112612 0.00598183 0)
  (0.114524 0.0394114 0)
  (0.114744 0.0728087 0)
  (0.103043 0.0849035 0)
  (0.0797831 0.118564 0)
  (-0.219612 0.0110759 0)
  (0.0772307 -0.0323667 0)
  (0.065854 -0.0510931 0)
  (0.0715082 -0.0565412 0)
  (0.0801433 -0.052348 0)
  (0.088628 -0.0450884 0)
  (0.0885284 -0.033692 0)
  (0.0767311 -0.0215699 0)
  (0.0674069 -0.014874 0)
  (0.0631752 -0.0110365 0)
  (0.0613485 -0.00850613 0)
  (0.0603331 -0.00667125 0)
  (0.0601527 -0.00499688 0)
  (0.061899 -0.00265916 0)
  (0.0676816 0.00302303 0)
  (0.0681366 0.0252585 0)
  (0.0635715 0.0424053 0)
  (-0.00601645 0.0628085 0)
  (0.236662 0.0623988 0)
  (0.330567 0.295265 0)
  (-0.142397 0.146314 0)
  (-0.0769718 0.0881736 0)
  (-0.0911317 0.0226809 0)
  (-0.0794452 -0.0550579 0)
  (-0.0480256 -0.133178 0)
  (-0.0137401 -0.182152 0)
  (0.0188007 -0.19034 0)
  (0.0450902 -0.165114 0)
  (0.0676888 -0.124787 0)
  (0.0845768 -0.0806652 0)
  (0.0951854 -0.0382506 0)
  (0.101212 0.000885868 0)
  (0.104013 0.0369452 0)
  (0.108331 0.0704819 0)
  (0.115959 0.095739 0)
  (0.128042 0.129892 0)
  (0.159885 0.0418431 0)
  (0.105598 0.0109871 0)
  (0.118526 -0.0302071 0)
  (0.112004 -0.0519431 0)
  (0.105016 -0.0572729 0)
  (0.0998544 -0.0528689 0)
  (0.093665 -0.0425364 0)
  (0.0941091 -0.0252148 0)
  (0.104313 -0.0151317 0)
  (0.110133 -0.00934415 0)
  (0.10932 -0.00546309 0)
  (0.104527 -0.00247284 0)
  (0.0973691 2.57986e-05 0)
  (0.0880714 0.00236199 0)
  (0.0759756 0.00504369 0)
  (0.0573275 0.00900259 0)
  (0.0472209 0.032831 0)
  (0.0542729 0.0501694 0)
  (-0.00879904 0.0697665 0)
  (0.261309 0.104796 0)
  (0.423405 0.341526 0)
  (-0.163071 0.170066 0)
  (-0.0449117 0.100951 0)
  (-0.0507942 0.0240876 0)
  (-0.0238192 -0.0751028 0)
  (0.00888072 -0.166339 0)
  (0.0333554 -0.211885 0)
  (0.05136 -0.214214 0)
  (0.0650624 -0.185093 0)
  (0.0751833 -0.139606 0)
  (0.0813671 -0.0899573 0)
  (0.0842094 -0.0433501 0)
  (0.0857502 -0.00230501 0)
  (0.0877836 0.0333817 0)
  (0.0943265 0.0636538 0)
  (0.107069 0.0853156 0)
  (0.126674 0.0967727 0)
  (0.147877 0.0474456 0)
  (0.15063 0.0131058 0)
  (0.144507 -0.0213236 0)
  (0.13101 -0.0411515 0)
  (0.116217 -0.0468917 0)
  (0.103022 -0.0430471 0)
  (0.0917712 -0.0324885 0)
  (0.0856863 -0.0153138 0)
  (0.0837857 -0.00359908 0)
  (0.0803056 0.00320494 0)
  (0.074672 0.00749651 0)
  (0.0678824 0.0106934 0)
  (0.0605645 0.013437 0)
  (0.0528041 0.0162404 0)
  (0.0446651 0.0197266 0)
  (0.0354164 0.0247312 0)
  (0.0304266 0.0371797 0)
  (0.0457312 0.047899 0)
  (0.0120128 0.0563991 0)
  (0.146596 0.101197 0)
  (0.117358 0.087989 0)
  (-0.125534 0.0794441 0)
  (0.433728 -0.0151351 0)
  (0.499247 0.377 0)
  (-0.187218 0.182066 0)
  (-0.0150461 0.0959724 0)
  (0.00575548 0.00334912 0)
  (0.0465216 -0.109396 0)
  (0.071814 -0.189941 0)
  (0.0847012 -0.227926 0)
  (0.0884149 -0.224469 0)
  (0.0863351 -0.190593 0)
  (0.0808341 -0.140991 0)
  (0.0736827 -0.0884019 0)
  (0.0666176 -0.0408511 0)
  (0.0614956 -0.00125393 0)
  (0.0609706 0.0302598 0)
  (0.0673721 0.0537757 0)
  (0.0804574 0.0675483 0)
  (0.100583 0.0678027 0)
  (0.117725 0.038556 0)
  (0.123153 0.00844782 0)
  (0.11926 -0.0154102 0)
  (0.108646 -0.0291346 0)
  (0.0947952 -0.0330808 0)
  (0.0805505 -0.0296115 0)
  (0.0675369 -0.0209238 0)
  (0.0574248 -0.00873221 0)
  (0.0497598 0.0013671 0)
  (0.0434989 0.00802821 0)
  (0.0376462 0.012411 0)
  (0.031892 0.0157697 0)
  (0.0263146 0.0187751 0)
  (0.0210136 0.0218967 0)
  (0.0163746 0.0255179 0)
  (0.0123721 0.0296576 0)
  (0.0114234 0.0348031 0)
  (0.0255244 0.0371176 0)
  (0.00547526 0.0283142 0)
  (0.0591261 0.064965 0)
  (0.0651309 0.0734972 0)
  (-0.157733 0.0862886 0)
  (0.421778 -0.040062 0)
  (0.572645 0.406592 0)
  (-0.19684 0.162372 0)
  (0.0289878 0.0339583 0)
  (0.0907544 -0.0606167 0)
  (0.128173 -0.147337 0)
  (0.142637 -0.208185 0)
  (0.139874 -0.23126 0)
  (0.124684 -0.217735 0)
  (0.102511 -0.178149 0)
  (0.0781666 -0.12614 0)
  (0.0558236 -0.0738408 0)
  (0.0381185 -0.0290319 0)
  (0.0261845 0.00516118 0)
  (0.0248912 0.0284877 0)
  (0.0319253 0.0438418 0)
  (0.0452727 0.0510814 0)
  (0.0633677 0.0474836 0)
  (0.0771683 0.0280795 0)
  (0.0818511 0.00713717 0)
  (0.0787921 -0.00866939 0)
  (0.0694637 -0.0175768 0)
  (0.056675 -0.0196596 0)
  (0.0428711 -0.0161399 0)
  (0.0299232 -0.00877371 0)
  (0.0186949 0.000653138 0)
  (0.0108606 0.0085383 0)
  (0.00573354 0.0137832 0)
  (0.0015962 0.0174029 0)
  (-0.00205577 0.0203467 0)
  (-0.00515779 0.0229468 0)
  (-0.00755612 0.0254631 0)
  (-0.0087374 0.0278345 0)
  (-0.00846946 0.0294388 0)
  (-0.00599858 0.0294188 0)
  (0.00471064 0.0273434 0)
  (-0.00884651 0.0193582 0)
  (0.0177708 0.0544508 0)
  (0.0534466 0.0918439 0)
  (-0.21468 0.11151 0)
  (0.514104 -0.0499503 0)
  (0.671434 0.387432 0)
  (0.000243879 0.124989 0)
  (0.124113 -0.0563644 0)
  (0.215514 -0.130246 0)
  (0.236351 -0.176928 0)
  (0.223264 -0.206278 0)
  (0.19189 -0.209857 0)
  (0.149269 -0.186243 0)
  (0.102315 -0.143278 0)
  (0.0573594 -0.0927945 0)
  (0.0211192 -0.0457716 0)
  (-0.00378468 -0.00878669 0)
  (-0.0154678 0.0131267 0)
  (-0.0145977 0.0254245 0)
  (-0.0070052 0.0333945 0)
  (0.00591158 0.0365616 0)
  (0.0204975 0.0325167 0)
  (0.0303949 0.0202156 0)
  (0.0329052 0.00724386 0)
  (0.029276 -0.00225882 0)
  (0.0208819 -0.00702533 0)
  (0.00946628 -0.00700919 0)
  (-0.00324441 -0.00293936 0)
  (-0.0144519 0.0030968 0)
  (-0.022017 0.00903482 0)
  (-0.0264667 0.0138183 0)
  (-0.0291196 0.0174109 0)
  (-0.0308255 0.0202492 0)
  (-0.0318562 0.0226029 0)
  (-0.0321301 0.024503 0)
  (-0.0313439 0.0258802 0)
  (-0.029001 0.0264419 0)
  (-0.0248034 0.0256786 0)
  (-0.0185269 0.0234357 0)
  (-0.00906224 0.0213105 0)
  (-0.00841966 0.0193863 0)
  (0.0131158 0.0465314 0)
  (0.0708684 0.0952089 0)
  (-0.180773 0.099897 0)
  (0.877586 0.017936 0)
  (0.810844 0.37889 0)
  (0.382362 0.265694 0)
  (0.399703 0.145661 0)
  (0.405358 0.0125141 0)
  (0.361914 -0.083585 0)
  (0.290828 -0.133516 0)
  (0.212215 -0.142968 0)
  (0.134884 -0.122162 0)
  (0.0641821 -0.0838174 0)
  (0.0040449 -0.0409865 0)
  (-0.0349647 -0.007869 0)
  (-0.0535321 0.0095229 0)
  (-0.0576055 0.0174752 0)
  (-0.0547553 0.0221454 0)
  (-0.0476711 0.0253506 0)
  (-0.0379491 0.0263961 0)
  (-0.0281855 0.0240437 0)
  (-0.0223203 0.0179421 0)
  (-0.0220542 0.0114561 0)
  (-0.0265167 0.00697597 0)
  (-0.0336443 0.00534659 0)
  (-0.0419017 0.00640347 0)
  (-0.0492521 0.00902427 0)
  (-0.0545575 0.0120997 0)
  (-0.0576667 0.0151733 0)
  (-0.0589416 0.0180071 0)
  (-0.0589277 0.0204945 0)
  (-0.0579855 0.0226105 0)
  (-0.0562238 0.0242651 0)
  (-0.0535726 0.025285 0)
  (-0.0498367 0.0254518 0)
  (-0.0447651 0.0244849 0)
  (-0.038216 0.022172 0)
  (-0.0301441 0.0187857 0)
  (-0.0205562 0.0155497 0)
  (-0.0117071 0.0133422 0)
  (0.0112122 0.0268407 0)
  (0.064915 0.0673559 0)
  (-0.14158 0.0598547 0)
  (0.860245 0.0610522 0)
  (0.201128 -0.0883599 0)
  (0.250538 -0.105496 0)
  (0.226838 -0.112321 0)
  (0.158964 -0.102287 0)
  (0.0841338 -0.0797592 0)
  (0.0124786 -0.0462746 0)
  (-0.0468557 -0.00950504 0)
  (-0.0811762 0.0107126 0)
  (-0.0976305 0.0203529 0)
  (-0.101445 0.0236981 0)
  (-0.10011 0.0249129 0)
  (-0.0960924 0.0256953 0)
  (-0.0904545 0.026401 0)
  (-0.084083 0.0265942 0)
  (-0.078406 0.0257175 0)
  (-0.0752207 0.023685 0)
  (-0.0751068 0.0215756 0)
  (-0.0773204 0.0202607 0)
  (-0.0805579 0.020135 0)
  (-0.0836174 0.0210991 0)
  (-0.085624 0.0226345 0)
  (-0.0862594 0.0242583 0)
  (-0.0855616 0.0257511 0)
  (-0.0837077 0.0270101 0)
  (-0.080899 0.0279308 0)
  (-0.0772883 0.0283895 0)
  (-0.0729797 0.0282383 0)
  (-0.0680595 0.0273134 0)
  (-0.0626178 0.0254506 0)
  (-0.0567923 0.0224899 0)
  (-0.0508416 0.0183327 0)
  (-0.0451503 0.0130579 0)
  (-0.040053 0.00713468 0)
  (-0.0350176 0.00267868 0)
  (-0.0228701 0.0121403 0)
  (-0.0102118 0.039759 0)
  (-0.196246 0.0327025 0)
  (0.52405 0.0915999 0)
  (-0.198445 -0.0540137 0)
  (0.0192622 -0.0639306 0)
  (-0.0093571 -0.0782619 0)
  (-0.0487514 -0.0833214 0)
  (-0.0868746 -0.0839234 0)
  (-0.11737 -0.0814922 0)
  (-0.135267 -0.0801565 0)
  (-0.141684 -0.0816207 0)
  (-0.143141 -0.0840111 0)
  (-0.141733 -0.0862787 0)
  (-0.138915 -0.0869783 0)
  (-0.135071 -0.0861313 0)
  (-0.13036 -0.0844836 0)
  (-0.125089 -0.0831115 0)
  (-0.119913 -0.0830153 0)
  (-0.115664 -0.0846649 0)
  (-0.112749 -0.0876022 0)
  (-0.111014 -0.0910445 0)
  (-0.109964 -0.0942201 0)
  (-0.109016 -0.0966365 0)
  (-0.107702 -0.0981834 0)
  (-0.105763 -0.0989191 0)
  (-0.103085 -0.0989345 0)
  (-0.099635 -0.0983733 0)
  (-0.0954269 -0.0974417 0)
  (-0.0905191 -0.0963899 0)
  (-0.085027 -0.0955117 0)
  (-0.0791435 -0.0951581 0)
  (-0.0731719 -0.0957439 0)
  (-0.0676107 -0.0977199 0)
  (-0.0632919 -0.101437 0)
  (-0.0612973 -0.106726 0)
  (-0.0619363 -0.11162 0)
  (-0.0629306 -0.109739 0)
  (-0.0620753 -0.0915265 0)
  (-0.0747978 -0.0555961 0)
  (-0.155499 -0.0391619 0)
  (0.404868 0.00487633 0)
  (0.0608574 -0.165858 0)
  (-0.188754 0.016043 0)
  (-0.160168 0.329412 0)
  (-0.152761 0.283164 0)
  (-0.174649 0.257498 0)
  (-0.192352 0.261983 0)
  (-0.202739 0.275118 0)
  (-0.204821 0.287401 0)
  (-0.201185 0.298594 0)
  (-0.194903 0.308426 0)
  (-0.188247 0.315883 0)
  (-0.182274 0.320825 0)
  (-0.177075 0.323333 0)
  (-0.172124 0.324305 0)
  (-0.166889 0.324858 0)
  (-0.161105 0.32605 0)
  (-0.15489 0.328639 0)
  (-0.148644 0.332849 0)
  (-0.142742 0.338292 0)
  (-0.137343 0.34431 0)
  (-0.13239 0.350234 0)
  (-0.127679 0.355597 0)
  (-0.122986 0.360197 0)
  (-0.118138 0.363984 0)
  (-0.113014 0.366981 0)
  (-0.107545 0.369263 0)
  (-0.101731 0.37092 0)
  (-0.0956638 0.372035 0)
  (-0.0895312 0.372693 0)
  (-0.0836145 0.37303 0)
  (-0.0782823 0.373294 0)
  (-0.0740228 0.373915 0)
  (-0.0714534 0.375491 0)
  (-0.070845 0.378293 0)
  (-0.0707454 0.380401 0)
  (-0.0686114 0.375084 0)
  (-0.0713851 0.356779 0)
  (-0.107022 0.331331 0)
  (-0.176214 0.326359 0)
  (0.504683 0.363032 0)
)
;

boundaryField
{
  floor
  {
    type noSlip;
  }
  ceiling
  {
    type noSlip;
  }
  sWall
  {
    type noSlip;
  }
  nWall
  {
    type noSlip;
  }
  sideWalls
  {
    type empty;
  }
  glass1
  {
    type noSlip;
  }
  glass2
  {
    type noSlip;
  }
  sun
  {
    type noSlip;
  }
  heatsource1
  {
    type noSlip;
  }
  heatsource2
  {
    type noSlip;
  }
  Table_master
  {
    type noSlip;
  }
  Table_slave
  {
    type noSlip;
  }
  inlet
  {
    type fixedValue;
    value uniform (0.277164 -0.114805 0);
  }
  outlet
  {
    type zeroGradient;
  }
} 	// ************************************************************************* //

