/*--------------------------------*- C++ -*----------------------------------*\
  =========                 |
  \\      /  F ield         | OpenFOAM: The Open Source CFD Toolbox
   \\    /   O peration     | Website:  https://openfoam.org
    \\  /    A nd           | Version:  6
     \\/     M anipulation  |
\*---------------------------------------------------------------------------*/
FoamFile
{
    version     2.0;
    format      ascii;
    class       volScalarField;
    location    "700";
    object      epsilon;
}
// * * * * * * * * * * * * * * * * * * * * * * * * * * * * * * * * * * * * * //

dimensions      [0 2 -3 0 0 0 0];

internalField   nonuniform List<scalar> 
459
(
0.000105317
0.000118394
9.69239e-05
0.000101599
0.000108851
0.000116186
0.000118865
0.000117431
0.000112868
0.0001069
0.000100878
9.54695e-05
9.07346e-05
8.62688e-05
8.09826e-05
1.62595e-05
1.90836e-05
1.8105e-05
1.66529e-05
1.53266e-05
1.49942e-05
1.3916e-05
1.43771e-05
1.56565e-05
1.70413e-05
1.72857e-05
1.62945e-05
1.48712e-05
1.32654e-05
1.15138e-05
9.89348e-06
8.00555e-06
6.16937e-06
4.07234e-06
0.00053141
0.000875836
0.000214048
0.000154065
0.00012562
0.00011184
9.73173e-05
8.69869e-05
7.92259e-05
7.45519e-05
7.26898e-05
7.3429e-05
7.67712e-05
8.28235e-05
9.31459e-05
0.000124526
3.59807e-05
3.53976e-05
2.89835e-05
2.70391e-05
2.50435e-05
2.28786e-05
2.05123e-05
1.65544e-05
1.9301e-05
2.43997e-05
2.87777e-05
3.06046e-05
2.95544e-05
2.62374e-05
2.19233e-05
1.74032e-05
1.35453e-05
1.07066e-05
1.10628e-05
6.65557e-06
0.00127116
0.00347488
0.00130135
0.000993333
0.000589575
0.000330085
0.000195619
0.000140094
0.000110303
9.57105e-05
8.94614e-05
8.83688e-05
9.15142e-05
9.88643e-05
0.000111283
0.000134103
0.00019238
9.49892e-05
5.82941e-05
4.68245e-05
4.02282e-05
3.44633e-05
2.82123e-05
1.49033e-05
1.60794e-05
1.82073e-05
1.97809e-05
2.07005e-05
2.15866e-05
2.35277e-05
2.8925e-05
4.23563e-05
3.472e-05
4.05219e-05
8.27179e-05
3.52856e-05
0.00149409
0.00253168
0.00236832
0.00240148
0.00240728
0.00132127
0.00050541
0.000267
0.000170949
0.000133714
0.000119021
0.00011392
0.00011452
0.000119782
0.000129625
0.000145352
0.00017331
0.00023638
7.69562e-05
6.38512e-05
5.87061e-05
5.84748e-05
6.25676e-05
7.30388e-05
9.51917e-05
9.32635e-05
9.18631e-05
9.07021e-05
9.02951e-05
9.13399e-05
9.50319e-05
0.000103953
0.000124822
7.57356e-05
0.000108878
0.000229014
0.000107365
0.00954457
0.00573981
0.00383008
0.00286034
0.00246077
0.0020084
0.00144582
0.000549053
0.000270705
0.000188585
0.000161556
0.000152205
0.000150176
0.000152258
0.000155963
0.000157327
0.00015047
0.000130014
0.000100288
8.7132e-05
8.1468e-05
7.9467e-05
7.91915e-05
7.94591e-05
7.93789e-05
7.78319e-05
7.62876e-05
7.48686e-05
7.37294e-05
7.30698e-05
7.31298e-05
7.41767e-05
7.63242e-05
7.87833e-05
8.82558e-05
0.000106034
0.000135136
0.000120073
0.000133243
0.00012907
0.0167693
0.0101994
0.00549932
0.00337094
0.00251202
0.00198231
0.00144102
0.000892389
0.000419233
0.000259159
0.000215862
0.000203744
0.000201048
0.000202712
0.000206454
0.000208335
0.000202348
0.000185056
0.000163967
0.000148831
0.000139532
0.000134054
0.00013097
0.000128945
0.000127032
0.000124966
0.000122957
0.000120983
0.000119098
0.000117451
0.000116239
0.000115678
0.000116009
0.000117527
0.000121055
0.000127791
0.00014119
0.000172279
0.00025709
0.000251315
0.0248019
0.020206
0.00839661
0.00393639
0.0025058
0.00187386
0.00134761
0.000870415
0.000531959
0.00034654
0.000286336
0.000276631
0.000276946
0.000279894
0.000285257
0.000290715
0.000290376
0.000280189
0.000264432
0.000249636
0.000238228
0.000230122
0.000224688
0.000221023
0.000218258
0.000215939
0.00021384
0.000211691
0.000209386
0.000207121
0.000205281
0.000204294
0.000204529
0.000206156
0.000209242
0.000215072
0.00023082
0.000282797
0.000467342
0.000414108
0.0372067
0.0479165
0.0202903
0.00509646
0.00236407
0.00175778
0.00125729
0.000837887
0.000564106
0.000432299
0.000403311
0.00041013
0.000419024
0.000423376
0.000426945
0.000432344
0.000436195
0.000433071
0.000423883
0.000412643
0.000402156
0.000393521
0.000387044
0.000382559
0.000379755
0.000378177
0.000377358
0.00037643
0.000374655
0.000372205
0.000369855
0.000368477
0.000368762
0.000370866
0.000374067
0.000377694
0.000386988
0.000436285
0.000701762
0.000625386
0.0619357
0.1252
0.154827
0.0198605
0.00314163
0.00198226
0.00135114
0.000947547
0.000744848
0.000690369
0.000720355
0.000760179
0.000780334
0.000779974
0.000769619
0.000759351
0.000752417
0.000746083
0.000738246
0.000729175
0.00072009
0.000711952
0.000705194
0.00070023
0.000697949
0.000698286
0.000701197
0.000704477
0.000705329
0.000703645
0.000701076
0.000699421
0.000700034
0.000703443
0.000708669
0.000712859
0.000714786
0.000735115
0.000896714
0.000865426
0.393913
0.165456
0.0134968
0.00394467
0.00244475
0.00188723
0.0016805
0.00169504
0.00177491
0.00184768
0.00187407
0.00185259
0.00180021
0.00173805
0.00168163
0.00163601
0.00160063
0.00157276
0.00154983
0.0015311
0.00151652
0.00150606
0.00149939
0.00149789
0.00150507
0.00151529
0.00152002
0.00151794
0.00151262
0.00150772
0.00150567
0.00150728
0.00151098
0.00151101
0.00149631
0.00145722
0.00142849
0.00131818
0.166536
0.0713471
0.0235259
0.00944255
0.00519541
0.00388967
0.00370472
0.00399906
0.0044143
0.00471601
0.00482597
0.00477697
0.00463371
0.00445367
0.00427673
0.00411846
0.00398113
0.00386467
0.0037694
0.00369434
0.00363833
0.0036005
0.00358097
0.00357987
0.00359275
0.00361546
0.00362996
0.00363054
0.00362336
0.00361567
0.00361162
0.00361118
0.00360925
0.00359555
0.00356032
0.00349653
0.00331701
0.00230949
0.000859062
0.00151562
0.0330113
0.0236598
0.0147409
0.00935568
0.00628411
0.00452658
0.00354388
0.00304629
0.00284568
0.00280004
0.00280833
0.00281306
0.00279458
0.00275843
0.00271198
0.00266348
0.00261833
0.00257847
0.0025439
0.0025138
0.00248706
0.00246265
0.0024395
0.00241667
0.00239337
0.00236705
0.00234102
0.00231175
0.00227581
0.00223322
0.00218464
0.00212969
0.00206597
0.00198834
0.00188824
0.00174871
0.00151544
0.000979759
)
;

boundaryField
{
    floor
    {
        Cmu             0.09;
        kappa           0.41;
        E               9.8;
        type            epsilonWallFunction;
        value           nonuniform List<scalar> 
29
(
8.09826e-05
1.62595e-05
1.90836e-05
1.8105e-05
1.66529e-05
1.53266e-05
1.49942e-05
1.3916e-05
1.43771e-05
1.56565e-05
1.70413e-05
1.72857e-05
1.62945e-05
1.48712e-05
1.32654e-05
1.15138e-05
9.89348e-06
8.00555e-06
6.16937e-06
4.07234e-06
4.07234e-06
6.65557e-06
3.52856e-05
0.000107365
8.09826e-05
1.62595e-05
3.53976e-05
9.49892e-05
0.00023638
)
;
    }
    ceiling
    {
        Cmu             0.09;
        kappa           0.41;
        E               9.8;
        type            epsilonWallFunction;
        value           nonuniform List<scalar> 
43
(
0.000859062
0.00151562
0.0330113
0.0236598
0.0147409
0.00935568
0.00628411
0.00452658
0.00354388
0.00304629
0.00284568
0.00280004
0.00280833
0.00281306
0.00279458
0.00275843
0.00271198
0.00266348
0.00261833
0.00257847
0.0025439
0.0025138
0.00248706
0.00246265
0.0024395
0.00241667
0.00239337
0.00236705
0.00234102
0.00231175
0.00227581
0.00223322
0.00218464
0.00212969
0.00206597
0.00198834
0.00188824
0.00174871
0.00151544
0.000979759
0.0619357
0.1252
0.166536
)
;
    }
    sWall
    {
        Cmu             0.09;
        kappa           0.41;
        E               9.8;
        type            epsilonWallFunction;
        value           uniform 0.000859062;
    }
    nWall
    {
        Cmu             0.09;
        kappa           0.41;
        E               9.8;
        type            epsilonWallFunction;
        value           nonuniform List<scalar> 6(0.00012907 0.000251315 0.000414108 0.00131818 0.00230949 0.000979759);
    }
    sideWalls
    {
        type            empty;
    }
    glass1
    {
        Cmu             0.09;
        kappa           0.41;
        E               9.8;
        type            epsilonWallFunction;
        value           nonuniform List<scalar> 9(0.000105317 0.00053141 0.00127116 0.00149409 0.00954457 0.0167693 0.0248019 0.0372067 0.0619357);
    }
    glass2
    {
        Cmu             0.09;
        kappa           0.41;
        E               9.8;
        type            epsilonWallFunction;
        value           nonuniform List<scalar> 2(0.000625386 0.000865426);
    }
    sun
    {
        Cmu             0.09;
        kappa           0.41;
        E               9.8;
        type            epsilonWallFunction;
        value           nonuniform List<scalar> 
14
(
0.000105317
0.000118394
9.69239e-05
0.000101599
0.000108851
0.000116186
0.000118865
0.000117431
0.000112868
0.0001069
0.000100878
9.54695e-05
9.07346e-05
8.62688e-05
)
;
    }
    heatsource1
    {
        Cmu             0.09;
        kappa           0.41;
        E               9.8;
        type            epsilonWallFunction;
        value           nonuniform List<scalar> 3(0.000120073 0.000133243 0.00012907);
    }
    heatsource2
    {
        Cmu             0.09;
        kappa           0.41;
        E               9.8;
        type            epsilonWallFunction;
        value           nonuniform List<scalar> 4(0.000124526 3.59807e-05 3.59807e-05 0.00019238);
    }
    Table_master
    {
        Cmu             0.09;
        kappa           0.41;
        E               9.8;
        type            epsilonWallFunction;
        value           nonuniform List<scalar> 9(1.49033e-05 1.60794e-05 1.82073e-05 1.97809e-05 2.07005e-05 2.15866e-05 2.35277e-05 2.8925e-05 4.23563e-05);
    }
    Table_slave
    {
        Cmu             0.09;
        kappa           0.41;
        E               9.8;
        type            epsilonWallFunction;
        value           nonuniform List<scalar> 9(9.51917e-05 9.32635e-05 9.18631e-05 9.07021e-05 9.02951e-05 9.13399e-05 9.50319e-05 0.000103953 0.000124822);
    }
    inlet
    {
        type            turbulentMixingLengthDissipationRateInlet;
        mixingLength    0.01;
        phi             phi;
        k               k;
        value           uniform 0.393913;
    }
    outlet
    {
        type            zeroGradient;
    }
}


// ************************************************************************* //
