/*--------------------------------*- C++ -*----------------------------------*\
  =========                 |
  \\      /  F ield         | OpenFOAM: The Open Source CFD Toolbox
   \\    /   O peration     | Website:  https://openfoam.org
    \\  /    A nd           | Version:  6
     \\/     M anipulation  |
\*---------------------------------------------------------------------------*/
FoamFile
{
    version     2.0;
    format      ascii;
    class       volScalarField;
    location    "100";
    object      epsilon;
}
// * * * * * * * * * * * * * * * * * * * * * * * * * * * * * * * * * * * * * //

dimensions      [0 2 -3 0 0 0 0];

internalField   nonuniform List<scalar> 
459
(
0.000741744
0.00105961
0.00138471
0.00149056
0.00120157
0.000765064
0.000485371
0.000342904
0.000248827
0.000193178
0.000167516
0.000150476
0.000138009
0.000125785
0.000112474
1.84812e-05
2.02441e-05
1.78459e-05
1.94869e-05
1.89662e-05
1.19031e-05
5.83745e-06
2.77261e-06
1.64022e-06
1.19564e-06
1.01979e-06
9.76474e-07
1.09364e-06
1.69016e-06
3.53341e-06
7.5447e-06
1.56542e-05
2.70776e-05
2.27537e-05
0.00108117
0.00131485
0.0021999
0.00254076
0.00239687
0.00191347
0.00141817
0.000942052
0.000589489
0.000349569
0.000200691
0.000139909
0.000112973
0.00010035
9.88612e-05
0.000125819
5.23673e-05
5.45376e-05
3.9028e-05
2.56381e-05
2.29464e-05
2.0469e-05
1.5328e-05
5.76158e-06
2.81123e-06
1.77254e-06
1.34141e-06
1.15103e-06
1.08244e-06
1.12787e-06
1.51566e-06
3.37115e-06
1.01193e-05
2.2518e-05
7.35641e-05
5.0432e-05
0.00104075
0.00168776
0.00267033
0.002969
0.00306242
0.00288942
0.00241173
0.00186351
0.00135831
0.000921711
0.000522292
0.000288334
0.000180686
0.000131924
0.000112149
0.000115243
0.000154416
0.000100817
5.51534e-05
3.56195e-05
3.2156e-05
3.09168e-05
2.81506e-05
8.14132e-06
2.93953e-06
1.83444e-06
1.41352e-06
1.24072e-06
1.18649e-06
1.21852e-06
1.47266e-06
4.50389e-06
2.25634e-05
2.70497e-05
6.16443e-05
7.07959e-05
0.00122793
0.00318637
0.00334388
0.00308368
0.00274608
0.00247671
0.00223834
0.00196674
0.00164386
0.00128912
0.000940843
0.00064213
0.000345287
0.000201179
0.000143257
0.000124209
0.000129143
0.000163272
7.46305e-05
5.201e-05
4.20166e-05
4.27857e-05
4.70442e-05
5.64911e-05
8.05679e-05
7.17582e-05
6.54078e-05
5.97558e-05
5.48109e-05
5.22469e-05
5.28992e-05
5.56187e-05
5.99697e-05
3.99951e-05
3.46501e-05
5.59798e-05
8.91365e-05
0.00714472
0.00784093
0.00600662
0.00447003
0.00342461
0.00268383
0.00219098
0.0018561
0.00158335
0.00131165
0.00103058
0.000764368
0.000532827
0.00030969
0.000190589
0.000140429
0.000115962
9.5542e-05
7.21771e-05
5.81902e-05
5.65578e-05
5.97049e-05
6.39571e-05
6.74278e-05
6.88728e-05
6.65926e-05
6.31879e-05
5.88448e-05
5.39387e-05
4.91199e-05
4.62801e-05
4.56836e-05
4.62524e-05
4.42484e-05
4.22271e-05
4.84241e-05
6.25305e-05
9.84529e-05
7.62512e-05
5.14578e-05
0.00918382
0.012089
0.00712854
0.0043095
0.00307534
0.00235857
0.00191568
0.00162854
0.00141009
0.00119987
0.00097573
0.000749641
0.000544496
0.000370684
0.000234666
0.000166646
0.000133413
0.000110719
9.29426e-05
8.43668e-05
8.51939e-05
9.07677e-05
9.75881e-05
0.000102978
0.000105522
0.000105032
0.000101877
9.57761e-05
8.68946e-05
7.66231e-05
6.77145e-05
6.2713e-05
6.13603e-05
6.16216e-05
6.30806e-05
6.66302e-05
7.57201e-05
7.72274e-05
8.5028e-05
7.41319e-05
0.0103925
0.0141162
0.00726137
0.00257472
0.00182032
0.00163821
0.00147857
0.00133404
0.0011971
0.00104584
0.000870308
0.00068299
0.000506781
0.000359375
0.000252592
0.000189248
0.000157123
0.00013942
0.00012831
0.000125188
0.000130456
0.000140857
0.000152764
0.000162973
0.000169635
0.000172385
0.000170627
0.000162962
0.000148471
0.000128676
0.000108382
9.3097e-05
8.60857e-05
8.70373e-05
9.57777e-05
0.000113795
0.000141113
0.000132442
0.000139277
9.44242e-05
0.0116387
0.0149801
0.010004
0.00262016
0.00132059
0.00123914
0.00116921
0.00110079
0.00101548
0.000903719
0.000763104
0.000608053
0.000460614
0.000338865
0.000253704
0.000206209
0.000186791
0.000181115
0.000181961
0.000191453
0.000208428
0.000229228
0.000250275
0.00026889
0.000283286
0.000292646
0.000295456
0.000288427
0.000268167
0.000234474
0.000193511
0.000155293
0.000129301
0.000116872
0.000113568
0.000119786
0.000135811
0.000162749
0.000201816
0.000232917
0.0133979
0.0206952
0.0210613
0.00545673
0.00134834
0.00103655
0.000980765
0.00094845
0.000896936
0.000813224
0.000694048
0.000559642
0.00043902
0.000345166
0.000285719
0.000260148
0.000261156
0.000278356
0.000303325
0.00033784
0.000379836
0.000420126
0.000455103
0.000484677
0.000509487
0.000529321
0.000541404
0.000539932
0.000517878
0.000471002
0.000404844
0.000330376
0.000266315
0.000235974
0.000218985
0.000215627
0.00023256
0.000287657
0.000421408
0.000753334
0.0398835
0.00935054
0.00175945
0.00106849
0.000986622
0.000953201
0.000910663
0.000837246
0.000734408
0.000615309
0.000527414
0.000478131
0.000467961
0.00049459
0.000550522
0.000624791
0.000706824
0.000791382
0.000878676
0.000947608
0.000997953
0.00103671
0.00107023
0.00110062
0.00112433
0.0011332
0.00111815
0.00107455
0.00100482
0.000918591
0.000820488
0.000707615
0.000617757
0.000572011
0.000569075
0.000603504
0.000619451
0.00113473
0.00570979
0.00283896
0.00199213
0.00113154
0.000860914
0.000796995
0.000779537
0.000760638
0.000742503
0.000747641
0.000799427
0.000899221
0.0010547
0.00125958
0.00149438
0.00173535
0.0019664
0.00217956
0.00236271
0.00249154
0.00257761
0.00264228
0.00270118
0.0027586
0.00280847
0.0028398
0.00284495
0.0028252
0.00278738
0.00273417
0.00260379
0.00227396
0.00194813
0.00170481
0.00160324
0.00169706
0.00203485
0.00205493
0.00111641
0.000948664
0.00103719
0.00103133
0.00105044
0.00104632
0.00111805
0.00119213
0.00122945
0.00123572
0.00121848
0.00119333
0.00118096
0.00118245
0.00119579
0.00122275
0.00126049
0.00130457
0.00135045
0.00139409
0.00143186
0.00146976
0.00149481
0.00150653
0.00150905
0.00150616
0.00149992
0.00149203
0.00148587
0.00148578
0.00149219
0.00149544
0.00146529
0.00141187
0.00132208
0.00122001
0.00111866
0.00102162
0.000983137
0.000788573
)
;

boundaryField
{
    floor
    {
        Cmu             0.09;
        kappa           0.41;
        E               9.8;
        type            epsilonWallFunction;
        value           nonuniform List<scalar> 
29
(
0.000112474
1.84812e-05
2.02441e-05
1.78459e-05
1.94869e-05
1.89662e-05
1.19031e-05
5.83745e-06
2.77261e-06
1.64022e-06
1.19564e-06
1.01979e-06
9.76474e-07
1.09364e-06
1.69016e-06
3.53341e-06
7.5447e-06
1.56542e-05
2.70776e-05
2.27537e-05
2.27537e-05
5.0432e-05
7.07959e-05
8.91365e-05
0.000112474
1.84812e-05
5.45376e-05
0.000100817
0.000163272
)
;
    }
    ceiling
    {
        Cmu             0.09;
        kappa           0.41;
        E               9.8;
        type            epsilonWallFunction;
        value           nonuniform List<scalar> 
43
(
0.00111641
0.000948664
0.00103719
0.00103133
0.00105044
0.00104632
0.00111805
0.00119213
0.00122945
0.00123572
0.00121848
0.00119333
0.00118096
0.00118245
0.00119579
0.00122275
0.00126049
0.00130457
0.00135045
0.00139409
0.00143186
0.00146976
0.00149481
0.00150653
0.00150905
0.00150616
0.00149992
0.00149203
0.00148587
0.00148578
0.00149219
0.00149544
0.00146529
0.00141187
0.00132208
0.00122001
0.00111866
0.00102162
0.000983137
0.000788573
0.0133979
0.0206952
0.00570979
)
;
    }
    sWall
    {
        Cmu             0.09;
        kappa           0.41;
        E               9.8;
        type            epsilonWallFunction;
        value           uniform 0.00111641;
    }
    nWall
    {
        Cmu             0.09;
        kappa           0.41;
        E               9.8;
        type            epsilonWallFunction;
        value           nonuniform List<scalar> 6(5.14578e-05 7.41319e-05 9.44242e-05 0.00113473 0.00205493 0.000788573);
    }
    sideWalls
    {
        type            empty;
    }
    glass1
    {
        Cmu             0.09;
        kappa           0.41;
        E               9.8;
        type            epsilonWallFunction;
        value           nonuniform List<scalar> 9(0.000741744 0.00108117 0.00104075 0.00122793 0.00714472 0.00918382 0.0103925 0.0116387 0.0133979);
    }
    glass2
    {
        Cmu             0.09;
        kappa           0.41;
        E               9.8;
        type            epsilonWallFunction;
        value           nonuniform List<scalar> 2(0.000232917 0.000753334);
    }
    sun
    {
        Cmu             0.09;
        kappa           0.41;
        E               9.8;
        type            epsilonWallFunction;
        value           nonuniform List<scalar> 
14
(
0.000741744
0.00105961
0.00138471
0.00149056
0.00120157
0.000765064
0.000485371
0.000342904
0.000248827
0.000193178
0.000167516
0.000150476
0.000138009
0.000125785
)
;
    }
    heatsource1
    {
        Cmu             0.09;
        kappa           0.41;
        E               9.8;
        type            epsilonWallFunction;
        value           nonuniform List<scalar> 3(9.84529e-05 7.62512e-05 5.14578e-05);
    }
    heatsource2
    {
        Cmu             0.09;
        kappa           0.41;
        E               9.8;
        type            epsilonWallFunction;
        value           nonuniform List<scalar> 4(0.000125819 5.23673e-05 5.23673e-05 0.000154416);
    }
    Table_master
    {
        Cmu             0.09;
        kappa           0.41;
        E               9.8;
        type            epsilonWallFunction;
        value           nonuniform List<scalar> 9(8.14132e-06 2.93953e-06 1.83444e-06 1.41352e-06 1.24072e-06 1.18649e-06 1.21852e-06 1.47266e-06 4.50389e-06);
    }
    Table_slave
    {
        Cmu             0.09;
        kappa           0.41;
        E               9.8;
        type            epsilonWallFunction;
        value           nonuniform List<scalar> 9(8.05679e-05 7.17582e-05 6.54078e-05 5.97558e-05 5.48109e-05 5.22469e-05 5.28992e-05 5.56187e-05 5.99697e-05);
    }
    inlet
    {
        type            turbulentMixingLengthDissipationRateInlet;
        mixingLength    0.01;
        phi             phi;
        k               k;
        value           uniform 3.77337e-06;
    }
    outlet
    {
        type            zeroGradient;
    }
}


// ************************************************************************* //
