/*--------------------------------*- C++ -*----------------------------------*\
  =========                 |
  \\      /  F ield         | OpenFOAM: The Open Source CFD Toolbox
   \\    /   O peration     | Website:  https://openfoam.org
    \\  /    A nd           | Version:  6
     \\/     M anipulation  |
\*---------------------------------------------------------------------------*/
FoamFile
{
    version     2.0;
    format      ascii;
    class       surfaceScalarField;
    location    "30";
    object      phi;
}
// * * * * * * * * * * * * * * * * * * * * * * * * * * * * * * * * * * * * * //

dimensions      [1 0 -1 0 0 0 0];

internalField   nonuniform List<scalar> 
852
(
0.00304726
-0.00306312
0.00430277
-0.00125498
0.00564712
-0.00134383
0.00665432
-0.00100669
0.00726881
-0.000614004
0.00762836
-0.000359105
0.00781824
-0.000189485
0.00786722
-4.86512e-05
0.00778155
8.59112e-05
0.00755179
0.00022991
0.00714624
0.000405542
0.00649743
0.000648627
0.00546481
0.00103216
0.00368461
0.00177936
0.00367879
0.000198795
-0.000207148
0.00010267
9.60581e-05
6.05948e-06
9.65499e-05
2.98075e-05
-2.37931e-05
0.000110732
-8.09618e-05
0.000188911
-7.82173e-05
0.000218562
-2.96967e-05
0.000216553
1.95292e-06
0.000209522
6.96677e-06
0.000204018
5.43581e-06
0.000198577
5.36964e-06
0.000191889
6.616e-06
0.00017978
1.20365e-05
0.000148068
3.16389e-05
6.4967e-05
8.30255e-05
-7.52084e-05
0.000140099
-0.0002359
0.00016062
-0.000351022
0.000115065
-0.000359403
0.00157895
-0.00468895
0.00313784
-0.0028135
0.00440074
-0.00260634
0.0051724
-0.00177797
0.00566125
-0.00110246
0.00596549
-0.000662962
0.00613022
-0.000353834
0.00617984
-9.79204e-05
0.00612408
0.000141979
0.00596324
0.00039099
0.00568841
0.000680465
0.00528638
0.00105055
0.00476498
0.00155316
0.00431859
0.00222492
0.00495528
0.00304067
0.00238033
0.00257286
0.00237717
-0.000294659
6.79282e-05
-0.000205907
7.24744e-06
-7.19832e-05
-3.74167e-05
2.38446e-05
-0.000119649
0.000108467
-0.000165606
0.000186189
-0.000155958
0.000211262
-5.47918e-05
0.000209762
3.42756e-06
0.000208147
8.5543e-06
0.000206463
7.09325e-06
0.000204963
6.84231e-06
0.000203415
8.13602e-06
0.000201403
1.40204e-05
0.000199503
3.3507e-05
0.00018674
9.57486e-05
0.000186323
0.000140472
0.000143725
0.000203173
0.000165213
9.35368e-05
-0.000214756
0.000767979
-0.00553456
0.00208917
-0.00413448
0.00305904
-0.00357599
0.00357247
-0.00229113
0.0039121
-0.00144179
0.00413996
-0.000890511
0.00427996
-0.000493504
0.00435004
-0.000167672
0.0043563
0.000136002
0.00429898
0.000448513
0.00417829
0.000801197
0.00400203
0.00122662
0.0037991
0.00175558
0.00361538
0.0024077
0.00341601
0.00323851
0.00231351
0.00367311
0.00468742
-0.000444044
0.000482703
-0.000193551
-0.00024341
-5.41468e-06
-0.000225628
8.35098e-05
-0.000208608
0.000136095
-0.000218211
0.000222172
-0.000242049
0.000167516
0.000171079
0.00017977
0.000187001
0.000193982
0.000202257
0.000216417
0.000250061
0.00034594
0.000518306
-3.19145e-05
0.000634249
8.72071e-05
0.0005686
0.000159162
0.00032341
0.000179601
-0.00582303
0.00100084
-0.00495562
0.00160519
-0.00418023
0.00192649
-0.00261223
0.00216091
-0.00167596
0.00233717
-0.0010665
0.00247481
-0.000630871
0.00258105
-0.000273662
0.0026521
6.51313e-05
0.00268362
0.000417054
0.00267909
0.000805604
0.0026471
0.00125823
0.00260074
0.00180119
0.00254853
0.0024587
0.00253737
0.00324787
0.00251909
0.00368884
0.00326802
0.00393506
0.00115681
0.00207328
0.000913806
0.00072375
0.000482829
0.000186846
0.00031148
-5.44905e-05
0.000236733
-0.000133929
0.000187241
-0.000168746
0.000107219
-0.00016204
0.000188527
-8.1466e-05
0.000229432
-4.10593e-05
0.000257123
-2.78438e-05
0.000281722
-2.47518e-05
0.000311212
-2.9641e-05
0.00035305
-4.19895e-05
0.000414753
-6.18538e-05
0.000504034
-8.9431e-05
0.000632753
-0.000128868
0.000739273
-0.000138436
0.000905235
-7.87593e-05
0.000945729
0.000118658
0.00122954
-0.000395858
-0.00556655
-0.000255204
-0.00509628
0.000171816
-0.00460722
0.000440597
-0.00288083
0.000614196
-0.00184935
0.000762356
-0.00121446
0.000896878
-0.000765222
0.00101448
-0.000391154
0.001111
-3.13718e-05
0.00118482
0.000343095
0.00124168
0.000748373
0.00129276
0.00120647
0.00135418
0.0017387
0.00145264
0.00235867
0.00165018
0.00304817
0.00185562
0.0034805
0.00205837
0.00372867
0.00183577
0.00229218
0.0012671
0.00129014
0.000830587
0.000622418
0.000542313
0.00023347
0.000378039
3.02456e-05
0.000280433
-7.11739e-05
0.000221549
-0.000103172
0.00022115
-8.10751e-05
0.000238325
-5.82388e-05
0.000257354
-4.68769e-05
0.000279025
-4.64246e-05
0.000306059
-5.6677e-05
0.000341642
-7.75743e-05
0.000388751
-0.000108963
0.00044955
-0.00015023
0.000514653
-0.000193971
0.00058876
-0.000212542
0.000699431
-0.00018943
0.000907157
-8.9073e-05
0.00150252
0.000634157
0.000235915
0.00126632
-0.00102677
0.00126248
-0.00108013
-0.0010614
-0.00467407
-0.00129186
-0.00486589
-0.000985839
-0.00491329
-0.000804029
-0.00306251
-0.000670544
-0.00198268
-0.000544653
-0.00134024
-0.000430827
-0.000878996
-0.000334127
-0.000487887
-0.00025019
-0.00011547
-0.000173711
0.000266263
-9.82303e-05
0.00067228
-9.39599e-06
0.00111669
0.00011302
0.0016149
0.000296388
0.00217342
0.000570336
0.00277176
0.000846619
0.00320111
0.00120583
0.00336588
0.00119649
0.00229853
0.000992127
0.00149285
0.000758469
0.000855383
0.000562878
0.000428808
0.000423859
0.000169175
0.000329448
2.32034e-05
0.00027006
-4.37988e-05
0.000247175
-5.81978e-05
0.000245005
-5.60741e-05
0.000252584
-5.44587e-05
0.000266089
-5.99324e-05
0.00028475
-7.53397e-05
0.000308687
-0.000101513
0.000337216
-0.000137492
0.00036641
-0.000179424
0.000387689
-0.000215248
0.000394669
-0.00021952
0.000364213
-0.000158972
0.000225028
5.01078e-05
9.63871e-05
0.000762776
-0.000263451
0.00162609
-0.000625671
0.00162476
-0.00175893
-0.00166457
-0.00320551
-0.00221254
-0.00431804
-0.00197932
-0.00514662
-0.00181029
-0.0032315
-0.00168299
-0.0021099
-0.00158149
-0.00144169
-0.00150415
-0.00095638
-0.00144437
-0.000547825
-0.0013916
-0.000168539
-0.00133408
0.00020824
-0.00126019
0.000597627
-0.00115601
0.00101143
-0.00100267
0.00146008
-0.000775586
0.0019444
-0.000444881
0.00243863
-4.52341e-05
0.0027986
0.000440961
0.00287678
0.000602256
0.00213523
0.000627601
0.00146649
0.000569092
0.000913461
0.000484337
0.000513394
0.000403665
0.000249781
0.000336477
9.0364e-05
0.00028706
5.60482e-06
0.00025892
-3.00651e-05
0.00024635
-4.35082e-05
0.000243418
-5.153e-05
0.000246628
-6.31452e-05
0.000254186
-8.29002e-05
0.000264902
-0.00011223
0.000276977
-0.000149567
0.000287216
-0.000189663
0.000291086
-0.000219116
0.000283462
-0.000211892
0.000249279
-0.000124782
0.000160212
0.000139181
8.47546e-05
0.000838232
-5.29644e-05
0.00176381
2.2157e-05
0.00154972
-0.00178892
-0.00202501
-0.00139956
-0.00313855
-0.00320468
-0.00285289
-0.00543245
-0.00247335
-0.00361109
-0.00235218
-0.00223103
-0.00232053
-0.00147334
-0.00230895
-0.000968051
-0.0022989
-0.000558074
-0.00227978
-0.000187999
-0.0022393
0.000167248
-0.00216423
0.00052183
-0.00204128
0.000887489
-0.00185353
0.00127104
-0.00157912
0.00166837
-0.00119189
0.00204947
-0.00070882
0.00231341
-0.000161952
0.00232796
0.000144286
0.0018278
0.00030716
0.00130304
0.000370828
0.000849545
0.000376124
0.000507995
0.000352457
0.000273405
0.000317703
0.000125098
0.000283463
3.98339e-05
0.000257102
-3.70998e-06
0.000239079
-2.54904e-05
0.000227279
-3.97329e-05
0.000219777
-5.56463e-05
0.000215148
-7.82744e-05
0.000212231
-0.000109314
0.000209641
-0.000146979
0.000207766
-0.000187788
0.000210299
-0.000221645
0.000227093
-0.000228678
0.000278406
-0.00017608
0.000412358
5.2473e-06
0.000778595
0.000472014
0.00142982
0.00111262
0.00216025
0.000819375
2.36364e-06
-0.00169177
-0.00494473
-0.0028887
-0.00748868
-0.00234193
-0.00415804
-0.00259101
-0.00198195
-0.00277154
-0.00129282
-0.00286736
-0.000872311
-0.00291389
-0.000511723
-0.00292225
-0.000179916
-0.00288855
0.000133142
-0.00280063
0.000433348
-0.00264837
0.000734491
-0.00241804
0.00103977
-0.0020936
0.0013428
-0.00166118
0.00161577
-0.0011383
0.00178922
-0.000579921
0.00176847
-0.000191839
0.00143906
5.65265e-05
0.00105436
0.000199423
0.000706514
0.000268994
0.000438367
0.000290942
0.00025143
0.000285029
0.000130996
0.000266116
5.87386e-05
0.000244145
1.82548e-05
0.000223316
-4.66628e-06
0.000204064
-2.04844e-05
0.000186243
-3.78291e-05
0.000169117
-6.11517e-05
0.000151594
-9.17934e-05
0.000131325
-0.000126711
0.000110943
-0.000167403
9.86442e-05
-0.00020934
0.000112476
-0.000242494
0.000193244
-0.00025682
0.000426591
-0.000228059
0.000960131
-6.1481e-05
0.0018171
0.000255706
0.00243358
0.000202979
0.0020331
0.0010944
-0.00234542
-0.00182086
-0.00124312
-0.00270432
-0.00109851
-0.00307233
-0.000924822
-0.00327209
-0.000672609
-0.00337045
-0.000413481
-0.00339035
-0.000160201
-0.00334537
8.78962e-05
-0.00323498
0.000322597
-0.00304803
0.000547067
-0.00277341
0.000764577
-0.00240242
0.000971132
-0.00193395
0.00114658
-0.0013922
0.00124676
-0.000838634
0.00121434
-0.000406934
0.00100702
-0.000108299
0.000755563
7.98811e-05
0.000518262
0.00018948
0.000328736
0.000240964
0.000199929
0.000253836
0.000118115
0.000244769
6.77979e-05
0.000225234
3.77844e-05
0.000201918
1.86442e-05
0.000177502
3.92713e-06
0.000151866
-1.2198e-05
0.000123706
-3.29959e-05
9.07211e-05
-5.88117e-05
4.88773e-05
-8.48691e-05
-6.40022e-07
-0.000117883
-5.41402e-05
-0.000155828
-0.000103492
-0.000193115
-0.000133295
-0.000226969
-0.000114841
-0.000246444
-1.8852e-05
-0.00015739
7.44961e-05
0.000162444
-5.60045e-05
0.000333581
0.00190764
-0.00237289
-3.78454e-05
-0.00253035
-0.00108563
-0.00276522
-0.000863615
-0.00310915
-0.000580883
-0.00341144
-0.000370352
-0.00362588
-0.000199116
-0.0037272
-5.89948e-05
-0.00371088
7.14187e-05
-0.00359746
0.000208961
-0.0033858
0.00033514
-0.00307237
0.000450832
-0.00265651
0.00055492
-0.00214763
0.000637338
-0.00157739
0.000676188
-0.0010088
0.000645486
-0.000538302
0.000536375
-0.000188967
0.000406151
4.39401e-05
0.000285318
0.000173797
0.000198861
0.000227693
0.000146022
0.000238779
0.00010702
0.000226279
8.02916e-05
0.000202043
6.20143e-05
0.000172383
4.82987e-05
0.000140584
3.57207e-05
0.000106158
2.22223e-05
6.46147e-05
8.54219e-06
1.1669e-05
-5.87023e-06
-4.79364e-05
-2.52651e-05
-0.000122395
-4.34198e-05
-0.000216881
-6.13224e-05
-0.000332582
-7.73736e-05
-0.000467696
-9.17862e-05
-0.000617948
-9.60956e-05
-0.000724865
-5.03605e-05
-0.000676461
0.000114155
-0.000867411
0.000524652
0.000950875
-0.00201116
0.000128392
-1.94321e-05
-0.00120294
-0.00216168
-0.00283684
-0.00330151
-0.00359555
-0.00375021
-0.00377476
-0.00366181
-0.00342268
-0.00306774
-0.00260841
-0.00206612
-0.00148417
-0.000931852
-0.000487408
-0.000171967
2.36469e-05
0.00013354
0.000191162
0.000210166
0.000202699
0.000177121
0.000137935
8.62429e-05
2.11043e-05
-5.76624e-05
-0.000150795
-0.000263338
-0.000394176
-0.000543121
-0.000708377
-0.000888295
-0.00107244
-0.00120998
-0.00118131
-0.000741995
)
;

boundaryField
{
    floor
    {
        type            calculated;
        value           nonuniform List<scalar> 
29
(
0
0
0
0
0
0
0
0
0
0
0
0
0
0
0
0
0
0
0
0
8.33554e-06
2.05333e-05
3.04163e-05
3.95894e-05
4.3161e-06
8.29129e-06
1.95344e-05
2.90813e-05
3.41034e-05
)
;
    }
    ceiling
    {
        type            calculated;
        value           nonuniform List<scalar> 
43
(
0.000163198
0.000178449
0.000110149
9.79371e-05
9.51612e-05
9.42844e-05
9.43047e-05
9.48845e-05
9.56119e-05
9.58967e-05
9.59106e-05
9.58985e-05
9.57651e-05
9.5448e-05
9.49065e-05
9.41165e-05
9.30809e-05
9.18793e-05
9.06816e-05
8.9689e-05
8.89573e-05
8.83923e-05
8.80079e-05
8.77506e-05
8.75839e-05
8.74768e-05
8.7404e-05
8.73522e-05
8.73002e-05
8.72546e-05
8.7274e-05
8.74236e-05
8.76469e-05
8.79369e-05
8.82245e-05
8.81678e-05
8.73201e-05
8.56203e-05
8.5476e-05
9.43474e-05
5.24029e-05
4.80885e-05
6.53872e-05
)
;
    }
    sWall
    {
        type            calculated;
        value           uniform 0.000164724;
    }
    nWall
    {
        type            calculated;
        value           nonuniform List<scalar> 6(5.32696e-05 5.32436e-05 5.22802e-05 6.95717e-05 8.94837e-05 0.000114669);
    }
    sideWalls
    {
        type            empty;
        value           nonuniform 0();
    }
    glass1
    {
        type            calculated;
        value           nonuniform List<scalar> 9(1.63729e-05 4.72601e-05 7.788e-05 0.000109031 0.000139456 0.000168934 0.000195984 0.000219002 0.000239752);
    }
    glass2
    {
        type            calculated;
        value           nonuniform List<scalar> 2(0.000369098 0.000402966);
    }
    sun
    {
        type            calculated;
        value           uniform 0;
    }
    heatsource1
    {
        type            calculated;
        value           nonuniform List<scalar> 3(1.99534e-07 1.99364e-07 1.99458e-07);
    }
    heatsource2
    {
        type            calculated;
        value           nonuniform List<scalar> 4(5.01699e-08 5.03491e-08 0 0);
    }
    Table_master
    {
        type            calculated;
        value           nonuniform List<scalar> 9(-1.50131e-07 -1.50259e-07 -1.50274e-07 -1.50279e-07 -1.50279e-07 -1.50277e-07 -1.50272e-07 -1.5026e-07 -1.50193e-07);
    }
    Table_slave
    {
        type            calculated;
        value           nonuniform List<scalar> 9(1.49987e-07 1.50087e-07 1.50086e-07 1.50082e-07 1.50074e-07 1.50061e-07 1.50041e-07 1.5001e-07 1.49927e-07);
    }
    inlet
    {
        type            calculated;
        value           uniform -0.00623774;
    }
    outlet
    {
        type            calculated;
        value           nonuniform List<scalar> 2(0.00168363 -0.00231762);
    }
}


// ************************************************************************* //
