/*--------------------------------*- C++ -*----------------------------------*\
  =========                 |
  \\      /  F ield         | OpenFOAM: The Open Source CFD Toolbox
   \\    /   O peration     | Website:  https://openfoam.org
    \\  /    A nd           | Version:  6
     \\/     M anipulation  |
\*---------------------------------------------------------------------------*/
FoamFile
{
    version     2.0;
    format      ascii;
    class       volScalarField;
    location    "120";
    object      nut;
}
// * * * * * * * * * * * * * * * * * * * * * * * * * * * * * * * * * * * * * //

dimensions      [0 2 -1 0 0 0 0];

internalField   nonuniform List<scalar> 
459
(
0.000859369
0.00113476
0.00122974
0.00121362
0.0011775
0.001139
0.00110175
0.00106601
0.00103346
0.00100205
0.000969974
0.000935186
0.000894926
0.000844126
0.00078217
0.000593676
0.000759376
0.000851961
0.000900944
0.00089165
0.000861343
0.000808232
0.000753764
0.000704918
0.000662396
0.000625516
0.000593404
0.000565049
0.000539817
0.000516616
0.000493793
0.000469119
0.000432608
0.0003967
0.000818854
0.00225474
0.00272587
0.00294125
0.00295074
0.00290557
0.00286455
0.00283301
0.00276086
0.0026455
0.00247804
0.0022477
0.00194783
0.00157784
0.00117487
0.000782988
0.000700276
0.000780557
0.00279025
0.00291794
0.00333058
0.00361344
0.0034732
0.00246245
0.00202223
0.00173942
0.00153762
0.00138697
0.00127209
0.00118505
0.0011037
0.00100911
0.000914354
0.000849984
0.000715074
0.00045707
0.00103165
0.00254318
0.00285227
0.00320588
0.00334933
0.0034484
0.00357786
0.00371948
0.00378125
0.00372112
0.0035249
0.00319783
0.00276085
0.00224827
0.00171711
0.00123323
0.000721456
0.000824965
0.00283975
0.00320732
0.00396226
0.00453142
0.00418261
0.00108352
0.000946447
0.000835602
0.000746243
0.00067383
0.000614794
0.000566598
0.000529132
0.000504081
0.000589258
0.000745698
0.000848405
0.000504647
0.00125277
0.00306307
0.0029156
0.00354093
0.00385065
0.00410391
0.0044024
0.00461826
0.00466297
0.00454382
0.00427826
0.00388721
0.00339834
0.00284695
0.00227444
0.00172658
0.00113043
0.000765728
0.00145016
0.00245838
0.00380263
0.00499251
0.00570029
0.00517452
0.00121057
0.00110993
0.00103102
0.000961941
0.000896308
0.000830404
0.000761635
0.000687462
0.000601366
0.000578981
0.00071563
0.00105292
0.000575735
0.00138749
0.00313942
0.00277099
0.00399296
0.00456595
0.00501057
0.00540401
0.00546762
0.00539423
0.00521512
0.00493297
0.00455576
0.00410756
0.00362132
0.00313641
0.00272106
0.0024418
0.00278172
0.00384541
0.00510882
0.00623574
0.0070586
0.00749979
0.00737909
0.00608962
0.00537654
0.00469532
0.00405282
0.00343137
0.00282425
0.00222771
0.00165016
0.00109515
0.000760616
0.000787486
0.00113863
0.000869764
0.00063467
0.00057493
0.000514784
0.0014839
0.00283595
0.00254739
0.00429538
0.00516779
0.00571588
0.00613606
0.00618059
0.00609831
0.00595456
0.00575046
0.0054815
0.00518131
0.0048917
0.00467538
0.00464913
0.00493988
0.00585802
0.00695763
0.0078662
0.00851333
0.00887886
0.00897113
0.0087645
0.00815747
0.00734641
0.00642406
0.00547101
0.00452348
0.00359836
0.00268753
0.00186407
0.00125249
0.000962033
0.000981861
0.00119341
0.0010817
0.000882169
0.000922132
0.000582938
0.00157376
0.00271434
0.0021715
0.00444983
0.00562792
0.0060685
0.00649497
0.0066214
0.00662387
0.00658891
0.00652829
0.00645161
0.006387
0.00637377
0.00649429
0.00683657
0.00746343
0.00835467
0.00910829
0.00959776
0.00983329
0.00983243
0.0096243
0.00920893
0.0085423
0.00767021
0.00668191
0.00564106
0.00459792
0.00359652
0.00268277
0.00193385
0.00144479
0.00124907
0.00124321
0.00124708
0.00116976
0.00107772
0.00136348
0.00073339
0.00149561
0.0028324
0.00157587
0.00432823
0.00607435
0.00634128
0.00654643
0.00661335
0.00668071
0.00676425
0.00685959
0.00697594
0.00713668
0.00737645
0.00773721
0.00825768
0.00889903
0.00953085
0.0099402
0.0100804
0.00998579
0.00967519
0.00917808
0.00855262
0.00781984
0.00698904
0.00608468
0.0051452
0.00421997
0.00336442
0.00263643
0.00209471
0.00178212
0.00167935
0.00167161
0.00162549
0.00149802
0.00145358
0.00262006
0.00128773
0.00138618
0.00130508
0.00100477
0.0038063
0.00636936
0.00661888
0.00658208
0.00659283
0.00668788
0.00682823
0.00699974
0.0072066
0.00746084
0.00777622
0.00815982
0.00859792
0.00902217
0.00931823
0.0093855
0.00920316
0.0087995
0.00824444
0.00761461
0.00695145
0.00627705
0.0055957
0.00491383
0.00425466
0.00365827
0.0031722
0.00284066
0.00269302
0.00272286
0.00285135
0.00292931
0.00283997
0.00257679
0.00254275
0.00426518
0.00159603
0.000816356
0.00320808
0.00635691
0.00675505
0.00687156
0.00700417
0.00714847
0.00729105
0.00743424
0.00758494
0.00774828
0.00792391
0.0081011
0.00825234
0.0083291
0.0082777
0.00807635
0.00774867
0.00733999
0.00689631
0.00645166
0.00602475
0.00562348
0.00525232
0.00492094
0.00464723
0.00445436
0.00436498
0.00439431
0.00453923
0.00475968
0.00496367
0.00503398
0.00489175
0.00454822
0.00428496
0.00511845
0.00151884
0.00222714
0.00668913
0.00710766
0.00713897
0.00726167
0.00742167
0.00755614
0.00765327
0.00772201
0.00777303
0.00781314
0.00784435
0.00786351
0.00786177
0.00782502
0.00773897
0.00759759
0.00740866
0.00718917
0.00695683
0.00672448
0.00650097
0.00629426
0.0061136
0.00597012
0.00587674
0.00584749
0.00589581
0.0060304
0.00624597
0.00650751
0.00673723
0.00682558
0.00667539
0.00627735
0.00575409
0.00483532
0.00141787
0.00143106
0.00152432
0.00169199
0.00178522
0.00180122
0.00178996
0.00178052
0.00177469
0.0017713
0.00176984
0.00177018
0.00177226
0.00177587
0.00178045
0.00178492
0.00178764
0.00178672
0.00178076
0.00176986
0.00175542
0.00173927
0.00172301
0.00170786
0.00169467
0.00168411
0.0016768
0.00167344
0.00167482
0.00168169
0.00169449
0.00171279
0.00173436
0.0017542
0.00176465
0.00175898
0.00173882
0.00171583
0.00168991
0.00159876
0.00131915
)
;

boundaryField
{
    floor
    {
        type            nutkWallFunction;
        Cmu             0.09;
        kappa           0.41;
        E               9.8;
        value           nonuniform List<scalar> 
29
(
9.47468e-05
7.15756e-05
9.19879e-05
0.000103159
0.000109013
0.000107908
0.000104288
9.79063e-05
9.13101e-05
8.53469e-05
8.01156e-05
7.5546e-05
7.15408e-05
6.79824e-05
6.47974e-05
6.18528e-05
5.89403e-05
5.57726e-05
5.10468e-05
4.63486e-05
4.63485e-05
5.42135e-05
6.03191e-05
6.93133e-05
9.47468e-05
7.15756e-05
9.4544e-05
9.99104e-05
9.27576e-05
)
;
    }
    ceiling
    {
        type            nutkWallFunction;
        Cmu             0.09;
        kappa           0.41;
        E               9.8;
        value           nonuniform List<scalar> 
43
(
0.000170395
0.000180901
0.00019962
0.000209942
0.000211712
0.000210471
0.000209429
0.000208785
0.00020841
0.000208248
0.000208287
0.000208518
0.000208917
0.000209423
0.000209917
0.000210219
0.000210116
0.000209458
0.000208254
0.000206657
0.000204869
0.000203067
0.000201387
0.000199923
0.00019875
0.000197937
0.000197563
0.000197715
0.000198477
0.000199897
0.000201926
0.000204315
0.000206508
0.00020766
0.00020703
0.000204798
0.00020225
0.000199374
0.000189228
0.000157686
0.000165249
0.000156023
0.000258106
)
;
    }
    sWall
    {
        type            nutkWallFunction;
        Cmu             0.09;
        kappa           0.41;
        E               9.8;
        value           uniform 0.000170401;
    }
    nWall
    {
        type            nutkWallFunction;
        Cmu             0.09;
        kappa           0.41;
        E               9.8;
        value           nonuniform List<scalar> 6(6.16035e-05 7.02201e-05 8.88253e-05 0.000180303 0.000168909 0.000157692);
    }
    sideWalls
    {
        type            empty;
    }
    glass1
    {
        type            nutkWallFunction;
        Cmu             0.09;
        kappa           0.41;
        E               9.8;
        value           nonuniform List<scalar> 9(0.000104031 9.91684e-05 0.000124453 0.000150066 0.000165422 0.000176313 0.0001864 0.000177633 0.000165272);
    }
    glass2
    {
        type            nutkWallFunction;
        Cmu             0.09;
        kappa           0.41;
        E               9.8;
        value           nonuniform List<scalar> 2(0.000154102 0.000188933);
    }
    sun
    {
        type            nutkWallFunction;
        Cmu             0.09;
        kappa           0.41;
        E               9.8;
        value           nonuniform List<scalar> 
14
(
0.000104028
0.000136446
0.000147409
0.000145558
0.000141396
0.000136945
0.00013262
0.000128455
0.000124648
0.000120961
0.000117182
0.000113068
0.000108284
0.000102211
)
;
    }
    heatsource1
    {
        type            nutkWallFunction;
        Cmu             0.09;
        kappa           0.41;
        E               9.8;
        value           nonuniform List<scalar> 3(7.66619e-05 6.92018e-05 6.16013e-05);
    }
    heatsource2
    {
        type            nutkWallFunction;
        Cmu             0.09;
        kappa           0.41;
        E               9.8;
        value           nonuniform List<scalar> 4(9.48465e-05 8.47708e-05 8.47708e-05 8.73642e-05);
    }
    Table_master
    {
        type            nutkWallFunction;
        Cmu             0.09;
        kappa           0.41;
        E               9.8;
        value           nonuniform List<scalar> 9(0.000130528 0.000114423 0.000101201 9.03934e-05 8.15227e-05 7.42061e-05 6.817e-05 6.34346e-05 6.02455e-05);
    }
    Table_slave
    {
        type            nutkWallFunction;
        Cmu             0.09;
        kappa           0.41;
        E               9.8;
        value           nonuniform List<scalar> 9(0.000145254 0.000133609 0.000124395 0.000116263 0.000108473 0.000100584 9.2273e-05 8.32077e-05 7.25359e-05);
    }
    inlet
    {
        type            calculated;
        value           uniform 0.000100623;
    }
    outlet
    {
        type            calculated;
        value           nonuniform List<scalar> 2(0.00143106 0.00152432);
    }
}


// ************************************************************************* //
