/*--------------------------------*- C++ -*----------------------------------*\
  =========                 |
  \\      /  F ield         | OpenFOAM: The Open Source CFD Toolbox
   \\    /   O peration     | Website:  https://openfoam.org
    \\  /    A nd           | Version:  6
     \\/     M anipulation  |
\*---------------------------------------------------------------------------*/
FoamFile
{
    version     2.0;
    format      ascii;
    class       surfaceScalarField;
    location    "120";
    object      phi;
}
// * * * * * * * * * * * * * * * * * * * * * * * * * * * * * * * * * * * * * //

dimensions      [1 0 -1 0 0 0 0];

internalField   nonuniform List<scalar> 
852
(
-0.000834084
0.00083875
0.000589838
-0.00142401
0.00254363
-0.0019539
0.00391219
-0.00136868
0.00471384
-0.000801756
0.00512549
-0.000411757
0.00528126
-0.000155869
0.00526086
2.0302e-05
0.00510844
0.000152326
0.0048462
0.000262157
0.00447656
0.000369555
0.00397517
0.000501322
0.00327154
0.000703558
0.00216306
0.00110842
0.00216024
-0.000264862
0.000260517
-0.000460224
0.000195224
-4.87378e-05
-0.000411619
0.000574432
-0.000623298
0.0010817
-0.000507399
0.00143293
-0.000351369
0.00163966
-0.00020688
0.0017522
-0.00011268
0.00182695
-7.4908e-05
0.00188395
-5.71526e-05
0.0019277
-4.3907e-05
0.0019581
-3.05616e-05
0.00196852
-1.05871e-05
0.00194088
2.74791e-05
0.00183631
0.000104398
0.00158804
0.000248101
0.00113801
0.000449859
0.000369375
0.00076846
0.000363261
0.000295397
0.000557203
0.0013407
-0.00246942
0.00258638
-0.00319973
0.00352303
-0.00230548
0.00406074
-0.0013396
0.00430094
-0.000652086
0.00434885
-0.00020389
0.00426503
0.000103999
0.0040885
0.00032875
0.00384618
0.000504378
0.00355057
0.000665069
0.00320581
0.000845994
0.00282578
0.00108351
0.00253298
0.00140114
0.00289178
0.00180137
0.00137113
0.00152053
0.00137101
-5.51558e-05
0.000305132
0.000405644
-0.000265723
0.000881339
-0.000887437
0.00123898
-0.000981059
0.00151969
-0.000788233
0.00169947
-0.000531285
0.00174009
-0.000247637
0.00175348
-0.000126204
0.00176665
-8.82242e-05
0.00177799
-6.86409e-05
0.00178702
-5.30911e-05
0.00179412
-3.78232e-05
0.001797
-1.36326e-05
0.00178763
3.6684e-05
0.00172666
0.000165196
0.00147919
0.0004954
0.00109421
0.000834675
0.000623105
0.00123939
0.000969808
0.00130681
-0.00072679
0.00160758
-0.00277031
0.00231928
-0.00391161
0.00282615
-0.00281252
0.00305242
-0.00156602
0.00308993
-0.00068974
0.00301567
-0.000129773
0.00288611
0.000233429
0.0027419
0.000472832
0.00259718
0.000648986
0.00245416
0.00080797
0.00231739
0.00098266
0.00220431
0.00119649
0.00214092
0.00146445
0.00210005
0.00184217
0.00153265
0.00208786
0.00290359
0.00038499
-9.61066e-05
0.00130042
-0.00118128
0.00171159
-0.00129872
0.00189009
-0.00115968
0.0019923
-0.000890561
0.00204817
-0.000587288
0.00180055
0.00167437
0.00158615
0.00151752
0.00146443
0.0014266
0.00141295
0.00144962
0.0016148
0.00127988
0.00083014
0.00101502
0.00109936
0.000729194
0.00152505
0.00167316
0.000699223
-0.00139331
0.000828055
-0.0028993
0.00145037
-0.00453415
0.00170489
-0.00306725
0.00168689
-0.0015482
0.00157611
-0.000579134
0.00146019
-1.40138e-05
0.00138805
0.000305422
0.00136461
0.000496123
0.00137074
0.000642717
0.00139538
0.000783205
0.00143964
0.000938283
0.00151341
0.00112261
0.00162976
0.001348
0.00183807
0.00163376
0.00216302
0.00176283
0.00331257
0.00175397
0.00274536
0.000549291
0.0030564
-0.000407225
0.00275109
-0.000876053
0.00253466
-0.00108238
0.00237701
-0.00100214
0.0022678
-0.00078148
0.0021737
-0.00049332
0.00232543
-0.000152033
0.00232464
4.81166e-07
0.00224071
8.3606e-05
0.00209976
0.000140627
0.00191118
0.000188256
0.00167682
0.000234025
0.00139092
0.000285559
0.00103711
0.000353471
0.000568496
0.000468265
0.000670546
0.000727893
0.000740505
0.00102922
0.000854653
0.00141073
0.00249463
-0.000453463
-0.000897022
-0.000299861
-0.00305309
0.000255536
-0.0050898
0.000431418
-0.0032434
0.000320192
-0.00143719
0.000202351
-0.000461483
0.000168552
1.96059e-05
0.000213393
0.000260408
0.000299698
0.000409654
0.000411749
0.00053051
0.00054607
0.000648738
0.000707718
0.0007765
0.000910919
0.000919286
0.00118436
0.00107444
0.00159085
0.00122717
0.00210743
0.00124615
0.00275454
0.00110676
0.00296509
0.000338653
0.00288757
-0.000329798
0.00268646
-0.00067505
0.0024072
-0.000803239
0.00214477
-0.000739841
0.00192267
-0.000559535
0.00174724
-0.000318049
0.001653
-5.7974e-05
0.0015265
0.000126794
0.00137233
0.000237579
0.00120035
0.000312403
0.00101288
0.000375518
0.00080817
0.000438529
0.000582904
0.000510613
0.000344219
0.000591945
0.00016797
0.000644306
0.000222412
0.000673236
0.000550524
0.000700912
0.00129875
0.000662328
0.00247375
0.00131946
0.00138538
0.001088
0.000305616
0.00107938
0.000293197
-0.00118118
0.000338081
-0.00120594
-0.00302854
-0.000826688
-0.00546931
-0.000582909
-0.00348753
-0.000588275
-0.00143208
-0.000604374
-0.0004456
-0.000572477
-1.24947e-05
-0.000495997
0.000183735
-0.000383373
0.000296846
-0.000238953
0.000385915
-6.14126e-05
0.000471032
0.000153926
0.000561008
0.000415184
0.000657882
0.000739843
0.000749646
0.00115199
0.000814889
0.00161446
0.000783561
0.00211252
0.000608584
0.0022984
0.000152662
0.00220983
-0.000241359
0.00200093
-0.000466291
0.00172566
-0.000528117
0.00144477
-0.000459123
0.00119009
-0.000305046
0.000973376
-0.000101535
0.000803887
0.000111305
0.000659116
0.000271347
0.000519613
0.000376857
0.000376254
0.000455533
0.000225505
0.000526036
6.71835e-05
0.000596619
-8.83938e-05
0.000665961
-0.000208053
0.000711375
-0.00024011
0.000676134
-0.000110849
0.000543756
0.000171456
0.000418419
0.000496153
0.000337459
0.00085385
0.000961598
0.000644462
0.00129722
0.000166019
0.00155765
0.000443966
-0.00135961
0.00176457
-0.00176866
-0.00261971
-0.00139149
-0.00584675
-0.00104582
-0.00383364
-0.000985757
-0.00149243
-0.000977699
-0.000453896
-0.000952424
-3.79928e-05
-0.000890396
0.000121496
-0.000790903
0.000197151
-0.000656345
0.000251163
-0.000487513
0.000302016
-0.000280595
0.000353915
-2.72868e-05
0.000404406
0.000273681
0.000448519
0.000616985
0.000471433
0.000969093
0.000431303
0.00127591
0.000301618
0.0013632
6.52173e-05
0.00126439
-0.000142718
0.00105804
-0.000260128
0.000799844
-0.000270116
0.000533319
-0.000192812
0.000285419
-5.73732e-05
7.99272e-05
0.000103721
-6.64742e-05
0.000257463
-0.000173589
0.000378213
-0.000267656
0.000470675
-0.000360095
0.000547723
-0.00045138
0.000617073
-0.000533805
0.000678797
-0.000590049
0.000721963
-0.00059637
0.000717457
-0.000541307
0.000620841
-0.000435747
0.00043799
-0.000298654
0.000281148
-0.000179801
0.000218437
8.73995e-05
0.000694236
0.000144636
0.00123981
-0.000103504
0.0018056
0.000323
-9.38843e-05
0.00193468
-0.00148155
-0.00123223
-0.00119069
-0.00613785
-0.000889389
-0.00413549
-0.0010161
-0.00136604
-0.00113733
-0.000332928
-0.00118558
1.00199e-05
-0.00116836
0.000104046
-0.00110272
0.000131291
-0.000999974
0.000148201
-0.000865899
0.000167735
-0.000702609
0.000190427
-0.000511634
0.000213239
-0.000295577
0.000232276
-6.34438e-05
0.000239115
0.000150298
0.000217375
0.000295289
0.000156436
0.000305256
5.50491e-05
0.000195549
-3.32256e-05
5.26135e-06
-7.00684e-05
-0.000220253
-4.48423e-05
-0.000441566
2.82486e-05
-0.000626284
0.000127084
-0.00075573
0.0002329
-0.000835494
0.000336958
-0.000886492
0.000428944
-0.000923285
0.000507201
-0.000950242
0.000574417
-0.000963847
0.000630419
-0.000954555
0.000669253
-0.000909413
0.000676577
-0.000820804
0.000628617
-0.000704728
0.000504555
-0.000596909
0.000329986
-0.000503901
0.000187975
-0.000438386
0.000152761
-0.000180508
0.000436205
5.71969e-05
0.00100193
0.000510534
0.00135206
0.000773018
0.001992
0.000731884
5.41089e-05
-0.00546018
-0.000318468
-0.00376359
-0.000979639
-0.000705206
-0.00133489
2.2051e-05
-0.00147493
0.000149792
-0.00150489
0.000133757
-0.00147813
0.00010429
-0.00141792
8.77557e-05
-0.00133497
8.45506e-05
-0.00123523
9.04616e-05
-0.00112384
0.00010163
-0.00100685
0.00011506
-0.000894636
0.000126684
-0.000807187
0.000129698
-0.000769022
0.000118036
-0.000804492
9.02724e-05
-0.000905727
6.77512e-05
-0.00104632
7.02579e-05
-0.00119255
0.000101107
-0.00131568
0.000151102
-0.00140154
0.000212661
-0.00144966
0.000280731
-0.00146369
0.000350705
-0.00145207
0.00041705
-0.00142126
0.000476112
-0.00137234
0.000525236
-0.00130236
0.000560174
-0.00120667
0.00057332
-0.00108308
0.000552745
-0.00093918
0.000484502
-0.000799349
0.000364525
-0.000688919
0.000219373
-0.000602998
0.000101877
-0.00052268
7.22671e-05
-0.000336043
0.0002494
-4.42288e-05
0.000709946
0.00049912
0.000808509
0.00120723
0.00255813
-0.00164353
-0.000369847
-0.00083615
-0.0014684
0.000393015
-0.00183355
0.000386912
-0.00194363
0.000259589
-0.00196933
0.000159186
-0.00196218
9.68744e-05
-0.00193922
6.45384e-05
-0.00190698
5.20433e-05
-0.00186915
5.23771e-05
-0.00182923
6.14592e-05
-0.00179121
7.67716e-05
-0.00176036
9.55772e-05
-0.00174444
0.000113508
-0.00175196
0.000125276
-0.00179015
0.00012818
-0.00185189
0.000129197
-0.00191914
0.000137211
-0.00197367
0.000155342
-0.00200472
0.000181851
-0.00200745
0.000215091
-0.00198076
0.000253751
-0.00192572
0.000295378
-0.0018453
0.000336346
-0.00174248
0.000373023
-0.0016194
0.000401882
-0.00147817
0.000418696
-0.00132288
0.000417776
-0.00116236
0.00039199
-0.00101326
0.00033518
-0.000897754
0.000248805
-0.00082805
0.000149459
-0.000794624
6.82422e-05
-0.000781251
5.86889e-05
-0.000742711
0.000210659
-0.000539009
0.000506046
-0.000162734
0.000432017
0.00102936
-0.00191955
0.000236586
-0.00278766
3.16274e-05
-0.00265959
0.000264614
-0.00255997
0.000286986
-0.00250874
0.00020806
-0.00248618
0.000136331
-0.00247999
9.03944e-05
-0.0024808
6.50626e-05
-0.00248266
5.36062e-05
-0.00248218
5.16053e-05
-0.00247761
5.65963e-05
-0.00246829
6.71541e-05
-0.00245483
8.18165e-05
-0.00243977
9.81426e-05
-0.00242748
0.000112674
-0.00242234
0.000122733
-0.00242312
0.000129658
-0.00242287
0.000136646
-0.00241341
0.00014558
-0.00238872
0.000156851
-0.00234461
0.000170677
-0.00227807
0.000186913
-0.00218746
0.000204474
-0.00207282
0.000221422
-0.00193563
0.000235562
-0.00177869
0.000244664
-0.00160654
0.000246287
-0.00142667
0.000237655
-0.00125102
0.000216087
-0.00109666
0.00018059
-0.000982703
0.000134608
-0.000921245
8.77678e-05
-0.000907853
5.4615e-05
-0.00090625
5.68512e-05
-0.000819913
0.000124088
-0.000560339
0.000246236
-0.000447066
0.000318495
0.000563097
-0.00444945
-0.00389736
-0.00372258
-0.00375058
-0.00354555
-0.00331883
-0.00317152
-0.00309624
-0.00306709
-0.00306338
-0.00307118
-0.003081
-0.00308579
-0.00307996
-0.00305942
-0.00302252
-0.00297115
-0.00290988
-0.00284193
-0.00276732
-0.0026841
-0.00258993
-0.00248221
-0.00235848
-0.00221732
-0.00205926
-0.00188698
-0.00170539
-0.00152178
-0.00134624
-0.00119152
-0.00107144
-0.000996511
-0.000967791
-0.000971977
-0.000974049
-0.000909117
-0.000722483
-0.000466247
)
;

boundaryField
{
    floor
    {
        type            calculated;
        value           nonuniform List<scalar> 
29
(
0
0
0
0
0
0
0
0
0
0
0
0
0
0
0
0
0
0
0
0
5.95756e-06
1.63968e-05
2.56782e-05
3.30182e-05
2.75385e-06
4.19806e-06
1.0373e-05
1.60311e-05
1.78423e-05
)
;
    }
    ceiling
    {
        type            calculated;
        value           nonuniform List<scalar> 
43
(
7.10054e-05
6.72546e-05
6.14755e-05
5.92917e-05
5.92633e-05
5.9941e-05
6.04316e-05
6.07319e-05
6.09183e-05
6.10303e-05
6.10847e-05
6.10906e-05
6.10564e-05
6.09966e-05
6.09367e-05
6.09139e-05
6.09696e-05
6.11305e-05
6.1388e-05
6.17066e-05
6.20449e-05
6.23681e-05
6.26507e-05
6.28735e-05
6.30197e-05
6.30707e-05
6.30036e-05
6.27918e-05
6.24104e-05
6.1845e-05
6.11071e-05
6.02556e-05
5.94178e-05
5.87849e-05
5.85325e-05
5.86472e-05
5.88758e-05
5.9314e-05
6.19617e-05
7.21922e-05
2.72387e-05
2.77883e-05
3.91322e-05
)
;
    }
    sWall
    {
        type            calculated;
        value           uniform 2.77482e-05;
    }
    nWall
    {
        type            calculated;
        value           nonuniform List<scalar> 6(1.19585e-05 1.49662e-05 1.71401e-05 1.48678e-05 1.89335e-05 2.43554e-05);
    }
    sideWalls
    {
        type            empty;
        value           nonuniform 0();
    }
    glass1
    {
        type            calculated;
        value           nonuniform List<scalar> 9(-4.7351e-06 -1.39122e-05 -2.28711e-05 -3.28056e-05 -4.29681e-05 -5.40973e-05 -6.70251e-05 -7.63681e-05 -8.46917e-05);
    }
    glass2
    {
        type            calculated;
        value           nonuniform List<scalar> 2(6.02426e-05 6.46515e-05);
    }
    sun
    {
        type            calculated;
        value           uniform 0;
    }
    heatsource1
    {
        type            calculated;
        value           nonuniform List<scalar> 3(2.0326e-07 2.03684e-07 2.03908e-07);
    }
    heatsource2
    {
        type            calculated;
        value           nonuniform List<scalar> 4(5.112e-08 5.12961e-08 0 0);
    }
    Table_master
    {
        type            calculated;
        value           nonuniform List<scalar> 9(-1.52866e-07 -1.53003e-07 -1.53037e-07 -1.53051e-07 -1.53055e-07 -1.53049e-07 -1.53035e-07 -1.52999e-07 -1.52919e-07);
    }
    Table_slave
    {
        type            calculated;
        value           nonuniform List<scalar> 9(1.5252e-07 1.52562e-07 1.52532e-07 1.5253e-07 1.52546e-07 1.52578e-07 1.52623e-07 1.52682e-07 1.52764e-07);
    }
    inlet
    {
        type            calculated;
        value           uniform -0.00637497;
    }
    outlet
    {
        type            calculated;
        value           nonuniform List<scalar> 2(0.00435038 -0.00061968);
    }
}


// ************************************************************************* //
