/*--------------------------------*- C++ -*----------------------------------*\
  =========                 |
  \\      /  F ield         | OpenFOAM: The Open Source CFD Toolbox
   \\    /   O peration     | Website:  https://openfoam.org
    \\  /    A nd           | Version:  6
     \\/     M anipulation  |
\*---------------------------------------------------------------------------*/
FoamFile
{
    version     2.0;
    format      ascii;
    class       volScalarField;
    location    "120";
    object      nut;
}
// * * * * * * * * * * * * * * * * * * * * * * * * * * * * * * * * * * * * * //

dimensions      [0 2 -1 0 0 0 0];

internalField   nonuniform List<scalar> 
459
(
0.00126128
0.00156551
0.00176168
0.0016912
0.00161721
0.00153803
0.00146425
0.00139668
0.00133518
0.00127899
0.00122423
0.00116745
0.00110473
0.00102961
0.000939984
0.000607638
0.000780465
0.000892666
0.000915815
0.000902488
0.000870195
0.000819319
0.000767449
0.000720364
0.000678781
0.000642232
0.000610006
0.000581217
0.000555311
0.000531263
0.000507467
0.000481725
0.00044389
0.000406127
0.00155993
0.00528496
0.00547741
0.00488891
0.00489343
0.00468974
0.00444914
0.00425491
0.004044
0.00375734
0.0034078
0.00299295
0.00251033
0.0019677
0.00142773
0.000927156
0.000812124
0.000826235
0.0030043
0.00302917
0.00342123
0.00366087
0.00350047
0.00253402
0.00209555
0.00181045
0.00160397
0.00144687
0.00132442
0.00122938
0.00114028
0.00103859
0.000937739
0.000871707
0.000732343
0.000467144
0.00180067
0.00664188
0.00583924
0.00465798
0.00515931
0.00524335
0.00517393
0.00516512
0.00511669
0.00491661
0.00455183
0.00403941
0.00341339
0.00272238
0.00204309
0.00144045
0.000831616
0.000836008
0.00267008
0.0033908
0.00418792
0.00468385
0.0042579
0.00109661
0.000961406
0.000852282
0.000764055
0.000692059
0.000632709
0.000583523
0.000544489
0.000517563
0.000598654
0.000759233
0.000867349
0.000518114
0.00201748
0.00736724
0.00549439
0.00409617
0.00520768
0.00555251
0.00553867
0.00563328
0.0056552
0.0054796
0.00511923
0.00460772
0.00398638
0.00330546
0.00261775
0.00197077
0.0012931
0.000866792
0.00154347
0.00265415
0.00402935
0.00517684
0.00581311
0.00522911
0.0012227
0.00111634
0.0010316
0.000956942
0.00088615
0.000815516
0.000742398
0.00066422
0.000573513
0.00057981
0.000729818
0.00108282
0.000596663
0.00220624
0.00759913
0.00484582
0.00369533
0.00540077
0.00603274
0.00603384
0.00617911
0.0060957
0.0058545
0.00551273
0.00507357
0.00455456
0.00399937
0.0034509
0.00298531
0.00268087
0.00306044
0.00414662
0.00538362
0.00645281
0.00719938
0.0075624
0.00736948
0.00600857
0.00520794
0.0044847
0.00382255
0.00319396
0.00258401
0.00199267
0.0014367
0.000905536
0.000700783
0.000802894
0.00119488
0.00091884
0.000674432
0.000613595
0.000513619
0.00234858
0.00745891
0.00410056
0.00338891
0.00553859
0.00645329
0.00646554
0.00665819
0.00657043
0.00634521
0.00609439
0.00580969
0.00547999
0.00517137
0.00493825
0.00490748
0.00520892
0.0061595
0.00722578
0.00807425
0.00864403
0.00892766
0.00894254
0.00865705
0.00795072
0.00702073
0.00602134
0.0050262
0.0040565
0.00309409
0.00219998
0.00150868
0.00105391
0.000956509
0.00106766
0.00130792
0.00118866
0.000936789
0.000775106
0.000489443
0.00239764
0.00690259
0.00331706
0.0030287
0.00558835
0.0067734
0.00673334
0.00692733
0.00693003
0.00682204
0.00672927
0.00665411
0.00659934
0.00660099
0.00673027
0.00707972
0.00770843
0.00858375
0.00925917
0.00966446
0.009813
0.00973176
0.00945081
0.0089458
0.00816353
0.0071942
0.00613002
0.005041
0.00397815
0.00299064
0.00216646
0.00161295
0.00136048
0.00135381
0.0013915
0.00134797
0.00122751
0.000937251
0.000804704
0.000454101
0.00230547
0.00561771
0.00268599
0.00269882
0.00538083
0.00697255
0.00695276
0.0069734
0.00689613
0.00687779
0.00694172
0.00706253
0.00723931
0.00749453
0.00786148
0.00836931
0.00898398
0.00956096
0.00988162
0.00993819
0.00975676
0.00936338
0.0087936
0.00810735
0.00731328
0.0064271
0.0054802
0.00452321
0.00361951
0.00284163
0.00226778
0.00195292
0.00187387
0.00191014
0.0018761
0.00169503
0.00141404
0.0011245
0.00108588
0.000504928
0.00215788
0.00206772
0.00164572
0.0024569
0.00513739
0.00703193
0.00711608
0.00689419
0.00677872
0.00683613
0.00698858
0.00719552
0.00745008
0.00775778
0.00812105
0.0085218
0.00889421
0.00912278
0.00911461
0.00885182
0.0083767
0.00777291
0.00711493
0.00644016
0.00576502
0.00509379
0.00443853
0.00383275
0.00332606
0.00297111
0.00280762
0.00283823
0.00299679
0.00313868
0.00310332
0.00282405
0.00235684
0.00194772
0.002032
0.000711692
0.000644463
0.00295184
0.00594677
0.0071191
0.00711695
0.00706329
0.0071476
0.007301
0.00746833
0.00763259
0.00779215
0.00794661
0.00808809
0.00819371
0.00822214
0.00812708
0.00789353
0.00754835
0.00713668
0.00670129
0.00627153
0.00586288
0.00548252
0.00513723
0.00483999
0.00461149
0.00447586
0.00445398
0.00455405
0.0047565
0.00499746
0.00517118
0.00516815
0.00491906
0.00443412
0.00388403
0.00361349
0.000960974
0.00239019
0.00744152
0.00784079
0.00735067
0.00720692
0.00732588
0.00754035
0.00774415
0.0079028
0.00801456
0.00808642
0.00812487
0.00813325
0.00811054
0.00805087
0.00794644
0.00779415
0.00760141
0.00738349
0.00715526
0.0069273
0.0067076
0.00650467
0.00632912
0.00619356
0.0061124
0.00610071
0.00617173
0.00633099
0.00656556
0.0068312
0.00704839
0.00711734
0.00694964
0.00652371
0.00592434
0.00504475
0.00129234
0.00153756
0.00165334
0.00182897
0.00192078
0.00190474
0.00187659
0.0018638
0.00186373
0.00186685
0.00186977
0.00187194
0.00187364
0.00187528
0.00187698
0.00187835
0.00187831
0.00187528
0.00186806
0.00185666
0.00184226
0.00182642
0.00181051
0.00179561
0.00178256
0.0017721
0.00176498
0.00176207
0.00176431
0.00177255
0.00178722
0.00180766
0.00183122
0.00185264
0.00186476
0.00186155
0.00184213
0.00181127
0.00176979
0.00168059
0.00132937
)
;

boundaryField
{
    floor
    {
        type            nutkWallFunction;
        Cmu             0.09;
        kappa           0.41;
        E               9.8;
        value           nonuniform List<scalar> 
29
(
0.000113641
7.3307e-05
9.45447e-05
0.000108025
0.000110787
0.000109202
0.000105348
9.92412e-05
9.29684e-05
8.7231e-05
8.21271e-05
7.76102e-05
7.36018e-05
6.99993e-05
6.67392e-05
6.36962e-05
6.06683e-05
5.73731e-05
5.24897e-05
4.75622e-05
4.75622e-05
5.54943e-05
6.20211e-05
7.19294e-05
0.000113641
7.33069e-05
0.000100061
0.000101245
0.000104932
)
;
    }
    ceiling
    {
        type            nutkWallFunction;
        Cmu             0.09;
        kappa           0.41;
        E               9.8;
        value           nonuniform List<scalar> 
43
(
0.000182424
0.000195363
0.000214808
0.000224898
0.000223147
0.000220062
0.000218661
0.000218653
0.000218995
0.000219316
0.000219554
0.000219741
0.000219921
0.000220109
0.00022026
0.000220255
0.000219923
0.000219129
0.000217875
0.00021629
0.000214545
0.000212791
0.000211146
0.000209705
0.000208549
0.000207762
0.000207439
0.000207686
0.000208596
0.000210216
0.00021247
0.000215066
0.000217422
0.000218753
0.000218398
0.000216261
0.000212861
0.00020828
0.000198385
0.000158861
0.000250553
0.000240779
0.000275646
)
;
    }
    sWall
    {
        type            nutkWallFunction;
        Cmu             0.09;
        kappa           0.41;
        E               9.8;
        value           uniform 0.00018244;
    }
    nWall
    {
        type            nutkWallFunction;
        Cmu             0.09;
        kappa           0.41;
        E               9.8;
        value           nonuniform List<scalar> 6(6.14242e-05 5.83311e-05 5.37862e-05 0.000116203 0.000154645 0.000158871);
    }
    sideWalls
    {
        type            empty;
    }
    glass1
    {
        type            nutkWallFunction;
        Cmu             0.09;
        kappa           0.41;
        E               9.8;
        value           nonuniform List<scalar> 9(0.000151107 0.000184936 0.000211679 0.000235429 0.000255884 0.000271186 0.000276431 0.000266554 0.000250652);
    }
    glass2
    {
        type            nutkWallFunction;
        Cmu             0.09;
        kappa           0.41;
        E               9.8;
        value           nonuniform List<scalar> 2(6.03753e-05 8.62601e-05);
    }
    sun
    {
        type            nutkWallFunction;
        Cmu             0.09;
        kappa           0.41;
        E               9.8;
        value           nonuniform List<scalar> 
14
(
0.000151059
0.000185507
0.000207305
0.000199491
0.00019126
0.000182408
0.000174115
0.00016648
0.000159495
0.000153081
0.000146799
0.000140254
0.00013298
0.000124207
)
;
    }
    heatsource1
    {
        type            nutkWallFunction;
        Cmu             0.09;
        kappa           0.41;
        E               9.8;
        value           nonuniform List<scalar> 3(8.1579e-05 7.40324e-05 6.14248e-05);
    }
    heatsource2
    {
        type            nutkWallFunction;
        Cmu             0.09;
        kappa           0.41;
        E               9.8;
        value           nonuniform List<scalar> 4(0.000112124 9.83651e-05 9.83651e-05 0.000100712);
    }
    Table_master
    {
        type            nutkWallFunction;
        Cmu             0.09;
        kappa           0.41;
        E               9.8;
        value           nonuniform List<scalar> 9(0.000132068 0.000116199 0.000103204 9.25551e-05 8.37573e-05 7.64224e-05 7.02806e-05 6.53616e-05 6.19434e-05);
    }
    Table_slave
    {
        type            nutkWallFunction;
        Cmu             0.09;
        kappa           0.41;
        E               9.8;
        value           nonuniform List<scalar> 9(0.00014667 0.000134369 0.000124474 0.000115679 0.000107265 9.87912e-05 8.99273e-05 8.03335e-05 6.90285e-05);
    }
    inlet
    {
        type            calculated;
        value           uniform 0.000100623;
    }
    outlet
    {
        type            calculated;
        value           nonuniform List<scalar> 2(0.00153756 0.00165334);
    }
}


// ************************************************************************* //
