/*--------------------------------*- C++ -*----------------------------------*\
  =========                 |
  \\      /  F ield         | OpenFOAM: The Open Source CFD Toolbox
   \\    /   O peration     | Website:  https://openfoam.org
    \\  /    A nd           | Version:  6
     \\/     M anipulation  |
\*---------------------------------------------------------------------------*/
FoamFile
{
    version     2.0;
    format      ascii;
    class       volScalarField;
    location    "10";
    object      T;
}
// * * * * * * * * * * * * * * * * * * * * * * * * * * * * * * * * * * * * * //

dimensions      [0 0 0 1 0 0 0];

internalField   nonuniform List<scalar> 
459
(
305.331
305.362
305.372
305.377
305.385
305.398
305.411
305.42
305.426
305.43
305.432
305.433
305.433
305.428
305.401
305.367
305.412
305.427
305.431
305.431
305.429
305.423
305.42
305.419
305.419
305.419
305.419
305.419
305.419
305.42
305.422
305.42
305.406
305.369
305.323
305.36
305.381
305.395
305.405
305.414
305.425
305.434
305.441
305.447
305.451
305.453
305.454
305.454
305.451
305.464
305.472
305.426
305.448
305.455
305.457
305.459
305.459
305.459
305.459
305.46
305.46
305.46
305.46
305.46
305.46
305.458
305.456
305.453
305.446
305.424
305.211
305.253
305.301
305.346
305.376
305.397
305.414
305.428
305.439
305.448
305.454
305.458
305.46
305.462
305.463
305.467
305.47
305.448
305.46
305.464
305.465
305.467
305.467
305.469
305.47
305.471
305.471
305.471
305.471
305.471
305.471
305.468
305.466
305.463
305.458
305.441
305.027
305.056
305.132
305.234
305.308
305.355
305.389
305.414
305.431
305.444
305.453
305.459
305.462
305.465
305.467
305.469
305.469
305.461
305.465
305.467
305.468
305.469
305.47
305.471
305.473
305.474
305.474
305.474
305.474
305.474
305.474
305.474
305.473
305.471
305.468
305.465
305.452
304.777
304.757
304.852
305.054
305.201
305.293
305.353
305.393
305.42
305.438
305.45
305.458
305.463
305.466
305.468
305.47
305.47
305.469
305.469
305.47
305.471
305.471
305.472
305.472
305.473
305.474
305.474
305.474
305.474
305.474
305.474
305.474
305.473
305.472
305.471
305.47
305.469
305.478
305.493
305.514
304.467
304.348
304.441
304.806
305.061
305.215
305.31
305.369
305.407
305.431
305.447
305.456
305.463
305.466
305.469
305.47
305.471
305.471
305.471
305.471
305.472
305.472
305.472
305.473
305.473
305.474
305.474
305.474
305.474
305.474
305.474
305.474
305.473
305.473
305.473
305.473
305.475
305.485
305.508
305.555
304.107
303.829
303.902
304.509
304.905
305.136
305.269
305.347
305.395
305.425
305.444
305.455
305.462
305.466
305.469
305.47
305.471
305.471
305.472
305.472
305.472
305.472
305.473
305.473
305.473
305.473
305.473
305.473
305.473
305.473
305.473
305.473
305.473
305.473
305.474
305.475
305.478
305.488
305.514
305.596
303.719
303.209
303.201
304.21
304.77
305.071
305.236
305.332
305.388
305.422
305.442
305.455
305.462
305.466
305.469
305.47
305.471
305.471
305.472
305.472
305.472
305.472
305.472
305.472
305.472
305.472
305.472
305.472
305.472
305.473
305.473
305.473
305.473
305.473
305.474
305.476
305.48
305.492
305.523
305.663
303.349
302.483
302.181
303.951
304.694
305.042
305.225
305.327
305.387
305.422
305.443
305.455
305.462
305.466
305.468
305.47
305.47
305.471
305.471
305.471
305.471
305.471
305.471
305.471
305.471
305.471
305.471
305.471
305.471
305.471
305.471
305.472
305.472
305.472
305.473
305.475
305.48
305.492
305.525
305.672
300.893
303.81
304.719
305.069
305.242
305.338
305.393
305.426
305.445
305.456
305.462
305.466
305.468
305.469
305.469
305.469
305.469
305.469
305.469
305.47
305.47
305.47
305.47
305.47
305.47
305.47
305.47
305.47
305.47
305.47
305.47
305.47
305.471
305.473
305.478
305.489
305.516
305.595
303.911
304.512
304.91
305.154
305.286
305.362
305.407
305.433
305.448
305.457
305.461
305.464
305.465
305.466
305.466
305.466
305.466
305.466
305.466
305.466
305.466
305.466
305.466
305.466
305.466
305.466
305.466
305.466
305.466
305.466
305.466
305.467
305.467
305.469
305.473
305.482
305.504
305.546
305.445
305.382
305.123
304.892
305.018
305.248
305.348
305.396
305.423
305.439
305.448
305.452
305.455
305.456
305.456
305.456
305.456
305.456
305.456
305.456
305.456
305.456
305.456
305.456
305.456
305.456
305.456
305.456
305.456
305.456
305.456
305.456
305.456
305.456
305.456
305.457
305.459
305.465
305.478
305.502
)
;

boundaryField
{
    floor
    {
        type            wallHeatTransfer;
        Tinf            uniform 297.65;
        alphaWall       uniform 0.24;
        value           nonuniform List<scalar> 
29
(
304.839
304.622
304.788
304.849
304.865
304.855
304.812
304.721
304.66
304.636
304.629
304.628
304.628
304.63
304.639
304.668
304.726
304.742
304.702
304.595
304.595
304.771
304.867
304.942
304.839
304.622
304.843
304.968
305.043
)
;
    }
    ceiling
    {
        type            wallHeatTransfer;
        Tinf            uniform 297.65;
        alphaWall       uniform 0.24;
        value           nonuniform List<scalar> 
43
(
304.765
304.628
304.496
304.423
304.578
304.813
304.919
304.974
305.005
305.022
305.03
305.034
305.035
305.035
305.034
305.032
305.031
305.029
305.028
305.028
305.027
305.026
305.026
305.025
305.024
305.023
305.023
305.022
305.022
305.021
305.02
305.019
305.017
305.016
305.014
305.013
305.016
305.025
305.029
305.003
303.06
302.249
303.562
)
;
    }
    sWall
    {
        type            wallHeatTransfer;
        Tinf            uniform 298.15;
        alphaWall       uniform 0.36;
        value           uniform 304.531;
    }
    nWall
    {
        type            wallHeatTransfer;
        Tinf            uniform 299.15;
        alphaWall       uniform 0.36;
        value           nonuniform List<scalar> 6(304.887 305.039 305.16 305.166 305.044 304.915);
    }
    sideWalls
    {
        type            empty;
    }
    glass1
    {
        type            wallHeatTransfer;
        Tinf            uniform 298.15;
        alphaWall       uniform 4.3;
        value           nonuniform List<scalar> 9(301.553 301.89 302.021 302.024 301.943 301.777 301.538 301.227 300.805);
    }
    glass2
    {
        type            wallHeatTransfer;
        Tinf            uniform 299.15;
        alphaWall       uniform 4.3;
        value           nonuniform List<scalar> 2(302.961 303.019);
    }
    sun
    {
        type            wallHeatTransfer;
        Tinf            uniform 297.65;
        alphaWall       uniform 0.24;
        value           nonuniform List<scalar> 
14
(
304.879
304.925
304.907
304.878
304.864
304.868
304.883
304.899
304.912
304.92
304.924
304.924
304.917
304.897
)
;
    }
    heatsource1
    {
        type            fixedGradient;
        gradient        uniform 0;
    }
    heatsource2
    {
        type            fixedGradient;
        gradient        uniform 0;
    }
    Table_master
    {
        type            zeroGradient;
    }
    Table_slave
    {
        type            zeroGradient;
    }
    inlet
    {
        type            fixedValue;
        value           uniform 299.15;
    }
    outlet
    {
        type            zeroGradient;
    }
}


// ************************************************************************* //
