/*--------------------------------*- C++ -*----------------------------------*\
  =========                 |
  \\      /  F ield         | OpenFOAM: The Open Source CFD Toolbox
   \\    /   O peration     | Website:  https://openfoam.org
    \\  /    A nd           | Version:  6
     \\/     M anipulation  |
\*---------------------------------------------------------------------------*/
FoamFile
{
    version     2.0;
    format      ascii;
    class       surfaceScalarField;
    location    "1400";
    object      phi;
}
// * * * * * * * * * * * * * * * * * * * * * * * * * * * * * * * * * * * * * //

dimensions      [1 0 -1 0 0 0 0];

internalField   nonuniform List<scalar> 
852
(
-0.00293636
0.00299261
-0.00397438
0.00103802
-0.00476301
0.000788635
-0.00537989
0.000616878
-0.00579583
0.000415935
-0.00598816
0.000192331
-0.00593501
-5.31511e-05
-0.00561883
-0.000316184
-0.00505192
-0.000566908
-0.00428617
-0.000765747
-0.0034023
-0.000883877
-0.00248918
-0.000913115
-0.00162177
-0.000867407
-0.00082241
-0.000799365
-0.000820968
-0.000675418
0.000678105
-0.000345199
-0.000330219
0.000262357
-0.000607557
0.000735171
-0.000472814
0.00104855
-0.000313384
0.00124306
-0.000194501
0.00134862
-0.000105567
0.001401
-5.2375e-05
0.00143049
-2.94969e-05
0.00144846
-1.7966e-05
0.00145839
-9.92853e-06
0.00146137
-2.98595e-06
0.00145546
5.91257e-06
0.00143224
2.32152e-05
0.00136927
6.29683e-05
0.00122884
0.000140435
0.000996409
0.00023243
0.000705944
0.000290465
0.000709557
-0.00209477
0.00523885
-0.00309972
0.00204298
-0.00390529
0.0015942
-0.004509
0.00122059
-0.00491512
0.000822054
-0.00511003
0.000387244
-0.00506848
-9.47013e-05
-0.00477597
-0.0006087
-0.00425585
-0.00108703
-0.00356952
-0.00145207
-0.00279922
-0.00165418
-0.00202551
-0.00168683
-0.00132066
-0.00157225
-0.000772802
-0.00134722
-0.000569388
-0.00102438
-7.65828e-05
-0.000492857
-7.66344e-05
0.000379314
0.000306445
0.000802692
-0.000753597
0.00105078
-0.000855646
0.00125907
-0.0006811
0.00141385
-0.000468171
0.00150418
-0.000284824
0.00151804
-0.000119433
0.00152181
-5.61426e-05
0.00152635
-3.40428e-05
0.00153016
-2.17741e-05
0.00153271
-1.2481e-05
0.00153397
-4.2457e-06
0.00153307
6.8126e-06
0.00152645
2.98346e-05
0.00148531
0.00010411
0.00131048
0.000315262
0.00100837
0.000534547
0.000627544
0.000671287
0.00134641
-0.00146607
0.00693657
-0.0023292
0.00290611
-0.00303762
0.00230261
-0.00354872
0.00173169
-0.00389823
0.00117156
-0.00406815
0.000557161
-0.00401374
-0.000149111
-0.00371295
-0.000909488
-0.00321082
-0.00158916
-0.00258321
-0.00207968
-0.00191193
-0.00232547
-0.00126109
-0.00233766
-0.000681477
-0.00215187
-0.000224455
-0.00180425
7.97939e-05
-0.00132863
0.000279924
-0.000692987
0.00020329
0.00148245
-0.00116798
0.00169642
-0.000967567
0.00167573
-0.000834954
0.00167633
-0.000681702
0.00169804
-0.000489887
0.00170913
-0.000295912
0.00158985
0.00153386
0.00149997
0.00147835
0.00146602
0.00146193
0.00146889
0.00149888
0.00160314
0.00132275
0.000595657
0.000981965
0.00087533
0.000548641
0.00110461
0.00190924
-0.00102392
0.0082604
-0.00170579
0.00358798
-0.00216708
0.0027639
-0.00249426
0.00205887
-0.0027177
0.001395
-0.00280522
0.000644681
-0.00268199
-0.000272342
-0.00233584
-0.00125563
-0.00185044
-0.00207456
-0.00130908
-0.00262104
-0.000778947
-0.0028556
-0.000295568
-0.00282104
0.000123275
-0.00257071
0.000472462
-0.00215343
0.000779081
-0.00163525
0.001147
-0.00106091
0.00190615
-0.000555855
0.00243994
-0.000526514
0.00203873
-0.000766777
0.00191251
-0.000841344
0.00180356
-0.000726006
0.00171101
-0.000589151
0.00166129
-0.000440166
0.00164233
-0.000276957
0.00175662
-0.000114444
0.00182952
-7.30504e-05
0.00188873
-5.9362e-05
0.00193451
-4.59298e-05
0.00195289
-1.85376e-05
0.0019228
2.99375e-05
0.00181951
0.000103135
0.00161068
0.000208683
0.00124221
0.000368309
0.00111104
0.00072683
0.000824243
0.00116213
0.000386431
0.00154242
0.00231429
-0.000717969
0.00933627
-0.00123441
0.00410442
-0.00132121
0.0028507
-0.00137279
0.00211046
-0.00139368
0.0014159
-0.00130393
0.00055493
-0.00102306
-0.000553214
-0.000613794
-0.0016649
-0.000181869
-0.00250649
0.000206441
-0.00300935
0.000524523
-0.00317368
0.00076985
-0.00306637
0.000955454
-0.00275632
0.00110953
-0.00230751
0.00126262
-0.00178835
0.0014661
-0.0012644
0.00175034
-0.000840089
0.00188762
-0.000663799
0.00179075
-0.000669907
0.00161691
-0.000667497
0.00147111
-0.000580204
0.00135245
-0.000470493
0.00127169
-0.000359405
0.00124184
-0.000247109
0.00128387
-0.000156477
0.00133199
-0.000121171
0.00138496
-0.000112336
0.00143936
-0.000100331
0.00148466
-6.38318e-05
0.00150128
1.3315e-05
0.00146871
0.000135707
0.00137502
0.000302368
0.00122096
0.000522373
0.00108645
0.000861338
0.000942149
0.00130643
0.000622532
0.00186204
0.000549841
0.00238698
-0.00096909
0.00151873
-0.00143167
0.000462378
-0.00138469
-0.000626685
0.0103698
-0.00098007
0.00445781
-0.000552946
0.00242357
-0.000186929
0.00174444
9.499e-05
0.00113398
0.000485922
0.000163998
0.000985165
-0.00105246
0.00140563
-0.00208537
0.00169084
-0.0027917
0.00183698
-0.00315549
0.00187381
-0.0032105
0.00182972
-0.00302228
0.00173501
-0.00266161
0.00162577
-0.00219827
0.00153503
-0.00169761
0.00148835
-0.00121771
0.00147986
-0.000831596
0.00142585
-0.000609787
0.00128253
-0.000526594
0.00109325
-0.000478213
0.000926935
-0.00041389
0.000800359
-0.000343918
0.000719449
-0.000278495
0.000691709
-0.000219369
0.000714164
-0.000178932
0.000762595
-0.000169603
0.000826248
-0.00017599
0.00090051
-0.000174594
0.000979831
-0.000143153
0.00105229
-5.91404e-05
0.00110019
8.77991e-05
0.00111925
0.000283313
0.00111744
0.000524178
0.00114201
0.000836767
0.00124059
0.00120785
0.00142641
0.00167621
0.00186865
0.00194474
0.00212944
0.00125793
0.00174123
0.000850587
0.000413103
-0.000680989
0.0115018
-0.000559511
0.00433633
0.000577325
0.00128674
0.00137423
0.000947529
0.00206166
0.000446551
0.00276417
-0.00053851
0.0033069
-0.00159519
0.00359209
-0.00237055
0.0036249
-0.00282451
0.00345098
-0.00298158
0.00313259
-0.00289211
0.00273086
-0.00262056
0.00229906
-0.00222981
0.00188387
-0.00178308
0.00152068
-0.00133442
0.00122551
-0.000922551
0.000996859
-0.000602942
0.00079945
-0.000412378
0.000600521
-0.000327665
0.000411181
-0.000288874
0.000256337
-0.000259046
0.000145766
-0.000233347
8.06516e-05
-0.000213381
6.13691e-05
-0.000200087
8.13586e-05
-0.000198922
0.000125718
-0.000213962
0.00018512
-0.000235392
0.000258554
-0.000248027
0.000350155
-0.000234755
0.000464852
-0.000173837
0.000590387
-3.77367e-05
0.000716124
0.000157576
0.000852937
0.000387365
0.00103859
0.000651111
0.00132127
0.000925173
0.00176245
0.00123504
0.00242853
0.00127866
0.00296925
0.000717216
0.00299255
0.000827279
0.00346682
0.00259595
0.00941058
0.00330139
0.00363089
0.00370542
0.000882705
0.00439841
0.000254532
0.00521587
-0.000370906
0.0058436
-0.00116624
0.00606221
-0.0018138
0.00590145
-0.0022098
0.00543853
-0.00236159
0.00476584
-0.00230888
0.00397885
-0.00210512
0.00316156
-0.00180327
0.0023754
-0.00144365
0.00166936
-0.00107703
0.00107614
-0.000741195
0.000602084
-0.000448497
0.000252435
-0.000253294
-1.64876e-06
-0.000158294
-0.000197107
-0.000132207
-0.000350704
-0.000135278
-0.000467016
-0.000142734
-0.000548185
-0.000152179
-0.000597663
-0.000163903
-0.000618964
-0.000178787
-0.000618716
-0.000199171
-0.000606945
-0.000225734
-0.000589431
-0.000252906
-0.000565278
-0.00027218
-0.000526199
-0.000273835
-0.00045352
-0.000246517
-0.00031818
-0.000173077
-0.000135895
-2.47093e-05
7.84666e-05
0.000173003
0.000348359
0.000381218
0.000685177
0.000588354
0.00112938
0.000790831
0.0016178
0.000790251
0.0018255
0.000509506
0.00108518
0.00156761
0.00480148
0.00996421
0.0135871
0.0124575
0.0020123
0.0117514
0.000960601
0.0110947
0.000285818
0.010212
-0.000283574
0.00906455
-0.000666322
0.00775716
-0.00090241
0.00638408
-0.000988515
0.00501898
-0.000943774
0.00372896
-0.000815106
0.00256663
-0.00064094
0.00155289
-0.000429911
0.000712282
-0.000236423
5.15291e-05
-8.0443e-05
-0.000413472
1.65032e-05
-0.000700474
3.37081e-05
-0.000878446
1.96766e-05
-0.00100475
-5.90432e-06
-0.00110638
-3.36469e-05
-0.0011895
-5.96194e-05
-0.00125664
-8.50316e-05
-0.00131141
-0.000109132
-0.00135802
-0.000132178
-0.00140305
-0.000154148
-0.00145482
-0.00017396
-0.00152092
-0.000186806
-0.00160855
-0.000184552
-0.00172634
-0.000156042
-0.00188469
-8.81746e-05
-0.00208925
3.1485e-05
-0.00232694
0.00021298
-0.00262429
0.000470357
-0.00306323
0.000820158
-0.00373541
0.00126053
-0.00470737
0.00176279
-0.00609535
0.00217823
-0.00778081
0.00219496
-0.00730746
0.00109425
-0.00222998
0.00467806
0.003512
0.00378862
0.00185003
0.00416817
-9.3723e-05
0.0041739
-0.000289306
0.00376935
-0.000261774
0.00313802
-0.000271078
0.00238666
-0.000237159
0.00158318
-0.000140289
0.000769609
-1.53952e-06
-1.26113e-06
0.00012993
-0.000638513
0.000207341
-0.00108816
0.000213225
-0.00137349
0.000204889
-0.00153617
0.000179177
-0.0016385
0.000136037
-0.00171192
9.31031e-05
-0.00177314
5.53101e-05
-0.00183085
2.40663e-05
-0.00188987
-6.03006e-07
-0.00195201
-2.28907e-05
-0.00201798
-4.31596e-05
-0.00208961
-6.05547e-05
-0.00217014
-7.36165e-05
-0.00226208
-8.2014e-05
-0.00236639
-8.24998e-05
-0.00248198
-6.89615e-05
-0.00260486
-3.3167e-05
-0.00272731
3.42812e-05
-0.00283727
0.000141445
-0.00293148
0.000307183
-0.00301766
0.000556537
-0.00310126
0.00090376
-0.00317803
0.00133731
-0.00320257
0.00178733
-0.00312221
0.00209786
-0.00275711
0.00182987
-0.00149576
-0.0001671
-0.00365371
-0.000539806
0.00411656
0.000296023
0.0010142
-8.39108e-05
0.000286211
-0.000459328
8.61108e-05
-0.000790516
6.94139e-05
-0.00115133
8.97364e-05
-0.0015172
0.00012871
-0.00183544
0.000177945
-0.00205961
0.000222638
-0.00218423
0.000254546
-0.00224037
0.000263485
-0.00226519
0.000238039
-0.00226339
0.000203087
-0.00225148
0.000167266
-0.00224811
0.000132668
-0.002258
0.000102996
-0.00228091
7.82204e-05
-0.0023146
5.77504e-05
-0.00235595
4.07462e-05
-0.0024063
2.74593e-05
-0.00246467
1.52121e-05
-0.00252894
3.7161e-06
-0.00259641
-6.14277e-06
-0.00266489
-1.35363e-05
-0.00273054
-1.68536e-05
-0.00278647
-1.30294e-05
-0.0028218
2.16262e-06
-0.00282624
3.87197e-05
-0.00278967
0.000104874
-0.00269047
0.00020798
-0.00249735
0.000363421
-0.00218363
0.000590042
-0.00173034
0.000884007
-0.0011094
0.0011664
-0.000149823
0.00113828
0.00114435
0.00053569
0.0015801
-0.000602849
-0.00199472
-0.00723213
-0.0101337
-0.00597435
-0.0049402
-0.00464281
-0.00454979
-0.00447607
-0.00438402
-0.00425459
-0.0040773
-0.00385653
-0.003605
-0.00334565
-0.00311278
-0.00291576
-0.00275528
-0.00262995
-0.00253473
-0.00246461
-0.00241521
-0.002383
-0.0023642
-0.00235773
-0.00236279
-0.00237767
-0.00239988
-0.00242528
-0.0024467
-0.00245272
-0.00242194
-0.00232473
-0.00212414
-0.00176782
-0.0011846
-0.000307159
0.00085288
0.00198477
0.00251383
0.00190397
)
;

boundaryField
{
    floor
    {
        type            calculated;
        value           nonuniform List<scalar> 
29
(
0
0
0
0
0
0
0
0
0
0
0
0
0
0
0
0
0
0
0
0
-3.614e-06
-9.30902e-06
-1.41936e-05
-1.8615e-05
-1.44141e-06
-2.68798e-06
-7.65371e-06
-8.02331e-06
-7.27593e-06
)
;
    }
    ceiling
    {
        type            calculated;
        value           nonuniform List<scalar> 
43
(
-4.54272e-05
-4.41061e-05
-4.27967e-05
-1.99528e-05
-1.11714e-05
-6.91789e-06
-4.29796e-06
-2.31982e-06
-7.14499e-07
6.49493e-07
1.86927e-06
3.01496e-06
4.1326e-06
5.17343e-06
6.06617e-06
6.78376e-06
7.34255e-06
7.77296e-06
8.10222e-06
8.35071e-06
8.5337e-06
8.66139e-06
8.74054e-06
8.76927e-06
8.74337e-06
8.66872e-06
8.5495e-06
8.38701e-06
8.18234e-06
7.93613e-06
7.66711e-06
7.3858e-06
7.1005e-06
6.82205e-06
6.57006e-06
6.35887e-06
6.39151e-06
6.62891e-06
7.01854e-06
8.24507e-06
1.10792e-05
8.0317e-06
-6.47525e-05
)
;
    }
    sWall
    {
        type            calculated;
        value           uniform -0.00027489;
    }
    nWall
    {
        type            calculated;
        value           nonuniform List<scalar> 6(-4.7187e-05 -5.65598e-05 -6.11666e-05 -7.20216e-05 -7.88973e-05 -9.89961e-05);
    }
    sideWalls
    {
        type            empty;
        value           nonuniform 0();
    }
    glass1
    {
        type            calculated;
        value           nonuniform List<scalar> 9(-5.62544e-05 -0.000151468 -0.000231648 -0.000299921 -0.000357897 -0.000406802 -0.000451077 -0.000504711 -0.00056471);
    }
    glass2
    {
        type            calculated;
        value           nonuniform List<scalar> 2(-0.000249478 -0.000276002);
    }
    sun
    {
        type            calculated;
        value           uniform 0;
    }
    heatsource1
    {
        type            calculated;
        value           nonuniform List<scalar> 3(2.03964e-07 2.0392e-07 2.03937e-07);
    }
    heatsource2
    {
        type            calculated;
        value           nonuniform List<scalar> 4(5.10999e-08 5.12218e-08 0 0);
    }
    Table_master
    {
        type            calculated;
        value           nonuniform List<scalar> 9(-1.52972e-07 -1.53053e-07 -1.53082e-07 -1.53102e-07 -1.53116e-07 -1.53125e-07 -1.53129e-07 -1.53123e-07 -1.5309e-07);
    }
    Table_slave
    {
        type            calculated;
        value           nonuniform List<scalar> 9(1.52849e-07 1.52874e-07 1.52857e-07 1.52843e-07 1.52838e-07 1.52842e-07 1.52858e-07 1.529e-07 1.5298e-07);
    }
    inlet
    {
        type            calculated;
        value           uniform -0.00617776;
    }
    outlet
    {
        type            calculated;
        value           nonuniform List<scalar> 2(0.00755245 0.00294568);
    }
}


// ************************************************************************* //
