/*--------------------------------*- C++ -*----------------------------------*\
  =========                 |
  \\      /  F ield         | OpenFOAM: The Open Source CFD Toolbox
   \\    /   O peration     | Website:  https://openfoam.org
    \\  /    A nd           | Version:  6
     \\/     M anipulation  |
\*---------------------------------------------------------------------------*/
FoamFile
{
    version     2.0;
    format      ascii;
    class       volScalarField;
    location    "520";
    object      epsilon;
}
// * * * * * * * * * * * * * * * * * * * * * * * * * * * * * * * * * * * * * //

dimensions      [0 2 -3 0 0 0 0];

internalField   nonuniform List<scalar> 
459
(
9.87001e-05
0.000136929
0.000158801
0.000188539
0.000220589
0.000257606
0.000298617
0.000337399
0.000366958
0.000376591
0.000341069
0.000267137
0.00019488
0.000132846
8.78556e-05
2.17586e-05
5.83927e-05
7.36652e-05
7.8056e-05
7.68526e-05
7.11006e-05
6.03868e-05
5.00314e-05
4.15427e-05
3.47917e-05
2.94099e-05
2.5119e-05
2.1637e-05
1.87377e-05
1.62338e-05
1.3951e-05
1.17025e-05
8.74689e-06
6.23708e-06
0.000191294
0.000230317
0.000124626
0.00012798
0.000139086
0.000159541
0.000189219
0.00022157
0.000247055
0.000256047
0.00023805
0.000194264
0.000152398
0.000118974
8.94992e-05
0.000144746
8.03939e-05
7.49769e-05
0.000143535
8.22198e-05
6.70976e-05
5.91144e-05
5.38825e-05
5.48322e-05
4.60287e-05
3.73877e-05
3.02576e-05
2.45839e-05
2.01423e-05
1.66628e-05
1.39214e-05
1.18895e-05
1.08536e-05
1.16358e-05
9.56978e-06
1.07276e-05
0.000303154
0.000424902
0.000123872
0.000113171
0.000124836
0.000148908
0.000183145
0.000218916
0.000248174
0.00026315
0.000252255
0.000215834
0.000174773
0.000138066
0.000105603
0.00010086
0.000129065
9.33397e-05
0.000100541
8.12563e-05
7.06433e-05
6.28605e-05
6.15831e-05
0.000145751
9.80803e-05
6.85172e-05
4.97919e-05
3.75315e-05
2.92559e-05
2.35478e-05
1.95896e-05
1.69917e-05
1.3164e-05
1.25437e-05
1.1422e-05
1.37936e-05
0.000443773
0.000773261
0.000148509
0.000106329
0.000117839
0.000147948
0.000190378
0.000228873
0.000262417
0.000283668
0.000275861
0.000239733
0.00019453
0.000154718
0.00012244
0.000105106
0.000105959
0.000186307
0.000134328
0.000104477
8.90318e-05
7.86695e-05
7.0427e-05
7.00196e-05
0.000192533
0.000145861
0.000118593
0.000100892
8.78149e-05
7.64586e-05
6.64109e-05
5.67833e-05
4.66783e-05
2.73505e-05
1.85396e-05
1.84365e-05
1.9181e-05
0.000629681
0.00133484
0.00023268
0.000110476
0.000118717
0.000167507
0.000222763
0.0002615
0.000299076
0.000323471
0.000312949
0.000267764
0.000209625
0.000159972
0.000125374
0.000106019
0.000104794
0.000114632
0.000110877
0.000106609
0.000100465
9.18607e-05
8.18591e-05
7.32271e-05
7.40774e-05
7.04189e-05
6.66648e-05
6.27695e-05
5.83349e-05
5.30692e-05
4.71929e-05
4.11088e-05
3.51888e-05
2.76839e-05
2.10523e-05
2.24093e-05
2.12578e-05
2.86223e-05
2.94757e-05
3.06732e-05
0.00088836
0.00205265
0.000484983
0.000167013
0.000149556
0.000243521
0.000293718
0.000325363
0.00036254
0.000387401
0.000369089
0.000305753
0.000226245
0.000160882
0.000120659
0.000103953
0.000106457
0.000117323
0.000124214
0.000124467
0.000118486
0.000107786
9.48261e-05
8.26392e-05
7.50456e-05
7.13981e-05
6.93504e-05
6.7005e-05
6.36174e-05
5.88782e-05
5.25779e-05
4.51469e-05
3.79369e-05
3.14234e-05
2.55808e-05
2.43938e-05
2.47756e-05
2.77758e-05
0.000108517
7.31699e-05
0.00119903
0.00258731
0.0010824
0.000490385
0.0003938
0.000423083
0.000418326
0.00042852
0.000462744
0.000484231
0.000448848
0.000356742
0.00024795
0.000164627
0.000120341
0.000108898
0.000117864
0.000133521
0.000143126
0.000142987
0.000134795
0.000121669
0.000107144
9.46535e-05
8.70882e-05
8.42152e-05
8.27873e-05
8.08566e-05
7.80193e-05
7.44831e-05
7.03393e-05
6.42585e-05
5.70818e-05
5.10275e-05
4.67299e-05
4.52306e-05
4.63607e-05
5.31518e-05
0.000165184
0.000126146
0.00129825
0.00325842
0.00179294
0.00120458
0.000925026
0.000713596
0.000598824
0.00057955
0.00061355
0.000624859
0.000554377
0.000416861
0.000271051
0.000174297
0.000134986
0.000131525
0.000144228
0.000159555
0.000166067
0.000162282
0.000151821
0.000138894
0.000127138
0.000118722
0.000114179
0.000112053
0.000109921
0.000106645
0.000102817
0.000100268
0.000101015
0.000106094
0.0001126
0.000121322
0.000140512
0.000171221
0.00022202
0.000280558
0.00103169
0.000283469
0.00124307
0.00208552
0.00158545
0.00119524
0.000920231
0.000751069
0.000708072
0.000764971
0.000836554
0.000819141
0.00066966
0.000463117
0.000285488
0.0002116
0.000189575
0.000190017
0.000199563
0.000208633
0.000210791
0.000205832
0.000198787
0.000192114
0.000187815
0.00018557
0.000184076
0.000181356
0.000175087
0.000164329
0.000150702
0.000138583
0.000133255
0.00013874
0.000156651
0.00018662
0.000231126
0.000293933
0.000375603
0.000473081
0.000578884
0.00032525
0.000294724
0.000443247
0.00062185
0.000839687
0.0010879
0.00125928
0.00125066
0.00103138
0.000663938
0.000456461
0.000374458
0.000351254
0.000349027
0.000355452
0.000364353
0.000372154
0.000377376
0.00038071
0.000383261
0.000387472
0.00039466
0.000400178
0.00040154
0.000396599
0.000380942
0.000350897
0.000306729
0.00025602
0.000210987
0.000185688
0.000176811
0.000187102
0.000217579
0.000268076
0.000332514
0.000394476
0.00044548
0.00041141
0.00045147
0.00344628
0.00373484
0.0036342
0.00308878
0.0025355
0.00198066
0.00148773
0.00111086
0.000910642
0.000829943
0.000808172
0.000811393
0.000827514
0.000853101
0.000885652
0.000920716
0.0009549
0.000987281
0.00101724
0.00104263
0.00106396
0.00108042
0.00109076
0.0010845
0.00104843
0.000973792
0.000866363
0.000739774
0.00060756
0.000492827
0.000407451
0.000357288
0.000339053
0.000341448
0.000356495
0.000743668
0.00053935
0.000903513
0.00104999
0.00121732
0.00197094
0.00188314
0.00163295
0.00139156
0.001224
0.00107346
0.000926729
0.000800476
0.000717184
0.000673344
0.000654075
0.00064829
0.000649088
0.000651761
0.000653281
0.000652514
0.000649718
0.000645458
0.000640095
0.000634052
0.00062707
0.000618235
0.000602908
0.00057848
0.000544567
0.000505188
0.000463569
0.000423229
0.000388934
0.000362047
0.000343984
0.000334923
0.000332995
0.000331797
0.000317592
0.000313204
0.000294455
)
;

boundaryField
{
    floor
    {
        Cmu             0.09;
        kappa           0.41;
        E               9.8;
        type            epsilonWallFunction;
        value           nonuniform List<scalar> 
29
(
8.78556e-05
2.17586e-05
5.83927e-05
7.36652e-05
7.8056e-05
7.68526e-05
7.11006e-05
6.03868e-05
5.00314e-05
4.15427e-05
3.47917e-05
2.94099e-05
2.5119e-05
2.1637e-05
1.87377e-05
1.62338e-05
1.3951e-05
1.17025e-05
8.74689e-06
6.23708e-06
6.23708e-06
1.07276e-05
1.37936e-05
1.9181e-05
8.78556e-05
2.17586e-05
7.49769e-05
9.33397e-05
0.000186307
)
;
    }
    ceiling
    {
        Cmu             0.09;
        kappa           0.41;
        E               9.8;
        type            epsilonWallFunction;
        value           nonuniform List<scalar> 
43
(
0.000903513
0.00104999
0.00121732
0.00197094
0.00188314
0.00163295
0.00139156
0.001224
0.00107346
0.000926729
0.000800476
0.000717184
0.000673344
0.000654075
0.00064829
0.000649088
0.000651761
0.000653281
0.000652514
0.000649718
0.000645458
0.000640095
0.000634052
0.00062707
0.000618235
0.000602908
0.00057848
0.000544567
0.000505188
0.000463569
0.000423229
0.000388934
0.000362047
0.000343984
0.000334923
0.000332995
0.000331797
0.000317592
0.000313204
0.000294455
0.00124307
0.00208552
0.00045147
)
;
    }
    sWall
    {
        Cmu             0.09;
        kappa           0.41;
        E               9.8;
        type            epsilonWallFunction;
        value           uniform 0.000903513;
    }
    nWall
    {
        Cmu             0.09;
        kappa           0.41;
        E               9.8;
        type            epsilonWallFunction;
        value           nonuniform List<scalar> 6(3.06732e-05 7.31699e-05 0.000126146 0.00041141 0.00053935 0.000294455);
    }
    sideWalls
    {
        type            empty;
    }
    glass1
    {
        Cmu             0.09;
        kappa           0.41;
        E               9.8;
        type            epsilonWallFunction;
        value           nonuniform List<scalar> 9(9.87001e-05 0.000191294 0.000303154 0.000443773 0.000629681 0.00088836 0.00119903 0.00129825 0.00124307);
    }
    glass2
    {
        Cmu             0.09;
        kappa           0.41;
        E               9.8;
        type            epsilonWallFunction;
        value           nonuniform List<scalar> 2(0.000283469 0.00032525);
    }
    sun
    {
        Cmu             0.09;
        kappa           0.41;
        E               9.8;
        type            epsilonWallFunction;
        value           nonuniform List<scalar> 
14
(
9.87001e-05
0.000136929
0.000158801
0.000188539
0.000220589
0.000257606
0.000298617
0.000337399
0.000366958
0.000376591
0.000341069
0.000267137
0.00019488
0.000132846
)
;
    }
    heatsource1
    {
        Cmu             0.09;
        kappa           0.41;
        E               9.8;
        type            epsilonWallFunction;
        value           nonuniform List<scalar> 3(2.86223e-05 2.94757e-05 3.06732e-05);
    }
    heatsource2
    {
        Cmu             0.09;
        kappa           0.41;
        E               9.8;
        type            epsilonWallFunction;
        value           nonuniform List<scalar> 4(0.000144746 8.03939e-05 8.03939e-05 0.000129065);
    }
    Table_master
    {
        Cmu             0.09;
        kappa           0.41;
        E               9.8;
        type            epsilonWallFunction;
        value           nonuniform List<scalar> 9(0.000145751 9.80803e-05 6.85172e-05 4.97919e-05 3.75315e-05 2.92559e-05 2.35478e-05 1.95896e-05 1.69917e-05);
    }
    Table_slave
    {
        Cmu             0.09;
        kappa           0.41;
        E               9.8;
        type            epsilonWallFunction;
        value           nonuniform List<scalar> 9(0.000192533 0.000145861 0.000118593 0.000100892 8.78149e-05 7.64586e-05 6.64109e-05 5.67833e-05 4.66783e-05);
    }
    inlet
    {
        type            turbulentMixingLengthDissipationRateInlet;
        mixingLength    0.01;
        phi             phi;
        k               k;
        value           uniform 0.000101881;
    }
    outlet
    {
        type            zeroGradient;
    }
}


// ************************************************************************* //
