/*--------------------------------*- C++ -*----------------------------------*\
  =========                 |
  \\      /  F ield         | OpenFOAM: The Open Source CFD Toolbox
   \\    /   O peration     | Website:  https://openfoam.org
    \\  /    A nd           | Version:  6
     \\/     M anipulation  |
\*---------------------------------------------------------------------------*/
FoamFile
{
    version     2.0;
    format      ascii;
    class       volScalarField;
    location    "1200";
    object      alphat;
}
// * * * * * * * * * * * * * * * * * * * * * * * * * * * * * * * * * * * * * //

dimensions      [1 -1 -1 0 0 0 0];

internalField   nonuniform List<scalar> 
459
(
0.000811103
0.000841386
0.000814956
0.000843919
0.000871026
0.000895465
0.00091784
0.00093897
0.000959842
0.000981364
0.00099945
0.0010127
0.00101997
0.00102078
0.00101218
0.000495366
0.000614622
0.000633766
0.000632196
0.000617577
0.000577384
0.000508468
0.000451074
0.000398135
0.000350131
0.000308899
0.000275641
0.00025058
0.000232987
0.000221428
0.000215863
0.000250441
0.000464819
0.000386512
0.00128732
0.00205848
0.00166072
0.00200111
0.00215138
0.00231203
0.00247571
0.00262991
0.00275652
0.00283758
0.00287916
0.00285008
0.00270312
0.00236569
0.00176902
0.00106808
0.000716873
0.000586143
0.00255451
0.00267887
0.00272578
0.00244269
0.00190732
0.0015049
0.00116183
0.000924284
0.000763805
0.000661338
0.00060166
0.000572797
0.000565726
0.000572395
0.00058524
0.000518284
0.000989355
0.000512545
0.0017265
0.00324644
0.00177278
0.0028469
0.00309784
0.00326175
0.00339651
0.00350612
0.00359199
0.00364925
0.00367635
0.00363566
0.00347885
0.00313985
0.00256592
0.00182458
0.00111848
0.000917551
0.00329987
0.00333495
0.00293925
0.00228994
0.00153202
0.000542741
0.000449512
0.000401108
0.000368582
0.000345359
0.000328351
0.000315667
0.000306033
0.000299646
0.000382455
0.000442385
0.00125021
0.000642244
0.00217081
0.00497718
0.0018165
0.00317865
0.00365889
0.00382204
0.00393099
0.00401391
0.00408078
0.0041329
0.00417715
0.00419432
0.00414769
0.00396729
0.00354634
0.00280033
0.00184707
0.00117132
0.00233767
0.00324057
0.00301863
0.00243744
0.00183968
0.00121129
0.000669942
0.000661031
0.000669414
0.000685269
0.000702723
0.000714658
0.000713245
0.000691116
0.000659171
0.00067934
0.000711248
0.00141916
0.000727675
0.00261099
0.00713357
0.00235569
0.00299448
0.00390349
0.00411507
0.00421741
0.00428558
0.00433826
0.00438677
0.00444572
0.00453868
0.00465541
0.00476151
0.0047884
0.00464976
0.00430518
0.00378527
0.00328094
0.00290596
0.002482
0.00219775
0.0021206
0.00221818
0.00239987
0.00257537
0.00269816
0.0027817
0.00284764
0.00287331
0.00283636
0.00271557
0.00239858
0.00199266
0.00156082
0.00124753
0.00128146
0.0008129
0.000879269
0.0010078
0.00304739
0.00932166
0.00397171
0.00265997
0.00366789
0.00410931
0.0043032
0.00440023
0.00442725
0.00441869
0.00443363
0.0045338
0.00469803
0.0049105
0.00511312
0.00517482
0.00492567
0.00429997
0.00347614
0.00273189
0.00223398
0.00198688
0.00194691
0.00209725
0.00236585
0.00261471
0.0028151
0.0029889
0.00312242
0.00321299
0.00324627
0.00321309
0.00307616
0.002759
0.00232298
0.00162954
0.00145423
0.00123897
0.001622
0.00107687
0.00347577
0.0110676
0.00707804
0.00372713
0.00292211
0.00325627
0.00379778
0.00421737
0.00445052
0.0043614
0.00431434
0.00437381
0.00448688
0.00466217
0.00488697
0.00507578
0.00505604
0.00468003
0.00397685
0.00317192
0.00250013
0.00204775
0.00180724
0.0018254
0.00206428
0.00236639
0.00262405
0.00284263
0.00303483
0.0031955
0.00330612
0.00337908
0.00341525
0.00327707
0.00293286
0.00246207
0.00217104
0.00203797
0.00199704
0.00127159
0.00358406
0.0112102
0.00894501
0.00695427
0.00508057
0.00396407
0.00368237
0.00388547
0.00421942
0.00425209
0.0042077
0.00419376
0.00422031
0.00428649
0.00439332
0.00452612
0.00461369
0.00453415
0.0042107
0.00368532
0.00303256
0.00241316
0.00189004
0.00165055
0.00178673
0.00212805
0.00246534
0.00272597
0.00293822
0.00311649
0.00326896
0.00342204
0.00361369
0.00384709
0.00388242
0.00384982
0.00408112
0.00429417
0.00484255
0.00177617
0.00350065
0.00423724
0.00475334
0.00494198
0.00479961
0.00443406
0.00409644
0.00389611
0.00382202
0.00379661
0.00380807
0.00383553
0.0038632
0.00388308
0.0038965
0.0039104
0.00392238
0.00390387
0.00380917
0.00360938
0.00330113
0.00286706
0.00221184
0.00163136
0.00153641
0.0018518
0.00228344
0.00260659
0.00282496
0.00297368
0.00306709
0.00311535
0.00313009
0.00312612
0.00311356
0.00308031
0.00297722
0.00277398
0.00254095
0.00165308
0.00276479
0.0045538
0.0047288
0.00460279
0.00440224
0.00421685
0.00407342
0.00395892
0.00386049
0.00376985
0.00367783
0.00357887
0.00347341
0.00336838
0.00327464
0.00320036
0.00314236
0.00308141
0.00298317
0.00279492
0.00243033
0.00180384
0.00132489
0.00146715
0.00193901
0.00235932
0.00263683
0.00283086
0.00297544
0.00308511
0.00316679
0.00322308
0.00323972
0.00320921
0.00312536
0.00299877
0.00258665
0.00135039
0.00266979
0.00499535
0.00502922
0.00481698
0.00460628
0.00438854
0.00417887
0.00398567
0.00378396
0.00355873
0.00333059
0.00311149
0.00290923
0.00273038
0.00258248
0.00247464
0.00241535
0.00240538
0.00241197
0.00240256
0.00229793
0.0018981
0.00125021
0.00101491
0.00132256
0.0017141
0.00202813
0.00230556
0.00256726
0.00280864
0.00300236
0.00318003
0.00330677
0.00336719
0.00335108
0.00315342
0.00220539
0.00138918
0.00222721
0.00238637
0.00249349
0.00264422
0.0024974
0.00230336
0.002144
0.00199588
0.00185718
0.00172646
0.00160809
0.00150378
0.00140719
0.00131501
0.00122572
0.00113914
0.00105631
0.00097937
0.000910963
0.000853163
0.000808702
0.000771357
0.000730028
0.000680827
0.00061959
0.000571288
0.000607938
0.000672435
0.00073317
0.000797656
0.000868073
0.000948862
0.00104894
0.00115574
0.00126519
0.00138566
0.00139053
0.00125937
0.00117367
0.00134818
)
;

boundaryField
{
    floor
    {
        type            compressible::alphatWallFunction;
        Prt             0.85;
        value           nonuniform List<scalar> 
29
(
0.000144011
6.85038e-05
8.65235e-05
8.93979e-05
8.91618e-05
8.69817e-05
8.09622e-05
7.05179e-05
6.16836e-05
5.34093e-05
4.57844e-05
3.91262e-05
3.36696e-05
2.94989e-05
2.65364e-05
2.45723e-05
2.36176e-05
2.94531e-05
6.37806e-05
5.15524e-05
5.15517e-05
7.11298e-05
9.06472e-05
0.000103218
0.000144009
6.8503e-05
8.22405e-05
0.000130647
0.000166215
)
;
    }
    ceiling
    {
        type            compressible::alphatWallFunction;
        Prt             0.85;
        value           nonuniform List<scalar> 
43
(
0.000306672
0.000327013
0.000340664
0.000359848
0.000341249
0.000316473
0.00029595
0.000276726
0.000258582
0.000241344
0.000225612
0.000211641
0.000198607
0.000186074
0.000173838
0.000161875
0.000150334
0.000139517
0.000129818
0.000121555
0.000115153
0.000109734
0.000103697
9.64526e-05
8.73598e-05
8.01535e-05
8.57201e-05
9.52761e-05
0.000104193
0.000113565
0.000123698
0.000135207
0.000149302
0.000164172
0.000179249
0.000195674
0.000196334
0.000178448
0.000166647
0.000190585
0.000466656
0.000556207
0.000362957
)
;
    }
    sWall
    {
        type            compressible::alphatWallFunction;
        Prt             0.85;
        value           uniform 0.000305564;
    }
    nWall
    {
        type            compressible::alphatWallFunction;
        Prt             0.85;
        value           nonuniform List<scalar> 6(0.000143169 0.000152843 0.00017976 0.00019054 0.000195807 0.000190244);
    }
    sideWalls
    {
        type            empty;
    }
    glass1
    {
        type            compressible::alphatWallFunction;
        Prt             0.85;
        value           nonuniform List<scalar> 9(0.000112191 0.000177892 0.000236212 0.000293699 0.000349513 0.000403944 0.000456631 0.000469972 0.000460005);
    }
    glass2
    {
        type            compressible::alphatWallFunction;
        Prt             0.85;
        value           nonuniform List<scalar> 2(0.000245983 0.000229813);
    }
    sun
    {
        type            compressible::alphatWallFunction;
        Prt             0.85;
        value           nonuniform List<scalar> 
14
(
0.000115406
0.00011975
0.000115945
0.000120113
0.000123998
0.000127489
0.000130675
0.000133675
0.000136631
0.00013967
0.000142218
0.000144081
0.000145102
0.000145216
)
;
    }
    heatsource1
    {
        type            compressible::alphatWallFunction;
        Prt             0.85;
        value           nonuniform List<scalar> 3(0.000115744 0.000125293 0.00014352);
    }
    heatsource2
    {
        type            compressible::alphatWallFunction;
        Prt             0.85;
        value           nonuniform List<scalar> 4(0.000151969 0.000101781 0.00010178 0.000159012);
    }
    Table_master
    {
        type            compressible::alphatWallFunction;
        Prt             0.85;
        value           nonuniform List<scalar> 9(7.58947e-05 6.15888e-05 5.40123e-05 4.88566e-05 4.51399e-05 4.23969e-05 4.0339e-05 3.87686e-05 3.77233e-05);
    }
    Table_slave
    {
        type            compressible::alphatWallFunction;
        Prt             0.85;
        value           nonuniform List<scalar> 9(9.48706e-05 9.35466e-05 9.47894e-05 9.71312e-05 9.96996e-05 0.00010145 0.000101242 9.7989e-05 9.32766e-05);
    }
    inlet
    {
        type            fixedValue;
        value           uniform 1.94e-05;
    }
    outlet
    {
        type            zeroGradient;
    }
}


// ************************************************************************* //
