/*--------------------------------*- C++ -*----------------------------------*\
  =========                 |
  \\      /  F ield         | OpenFOAM: The Open Source CFD Toolbox
   \\    /   O peration     | Website:  https://openfoam.org
    \\  /    A nd           | Version:  6
     \\/     M anipulation  |
\*---------------------------------------------------------------------------*/
FoamFile
{
    version     2.0;
    format      ascii;
    class       volScalarField;
    location    "1200";
    object      epsilon;
}
// * * * * * * * * * * * * * * * * * * * * * * * * * * * * * * * * * * * * * //

dimensions      [0 2 -3 0 0 0 0];

internalField   nonuniform List<scalar> 
459
(
0.000120943
0.000134594
0.000122298
0.000135801
0.000149305
0.000162222
0.000174681
0.000187017
0.000199757
0.000213486
0.000225491
0.000234553
0.000239618
0.000240167
0.000234137
2.73627e-05
5.22423e-05
5.7333e-05
5.6901e-05
5.30375e-05
4.33402e-05
2.95992e-05
2.06637e-05
1.42093e-05
9.66548e-06
6.63814e-06
4.71719e-06
3.54409e-06
2.84853e-06
2.44474e-06
2.26368e-06
3.52878e-06
2.25389e-05
1.29668e-05
0.000484551
0.00110399
0.000126395
0.00010319
0.000104051
0.000107219
0.000111992
0.000119246
0.000129995
0.000145041
0.000162294
0.000180383
0.000196891
0.000208563
0.000218762
0.000275066
8.30868e-05
4.52783e-05
0.000126255
5.58243e-05
4.45076e-05
3.97713e-05
3.59461e-05
2.5049e-05
1.71216e-05
1.20212e-05
8.58095e-06
6.42257e-06
5.14497e-06
4.4339e-06
4.08189e-06
3.95512e-06
4.04596e-06
7.00049e-06
7.19265e-05
3.02582e-05
0.00117144
0.00369249
0.000241384
0.000109476
0.000104702
0.000109157
0.000116312
0.0001264
0.000139789
0.000156485
0.00017462
0.000191394
0.000204588
0.000213742
0.000222896
0.00024653
0.0003159
0.000174241
0.000156043
7.4045e-05
4.78599e-05
3.85915e-05
3.78919e-05
3.60852e-05
2.04931e-05
1.45535e-05
1.1289e-05
9.28467e-06
7.97758e-06
7.08679e-06
6.45617e-06
6.0589e-06
7.62203e-06
1.33525e-05
0.000165198
5.95534e-05
0.00233336
0.0086073
0.000562377
0.000130733
0.000113499
0.00012129
0.000132667
0.000146821
0.000164049
0.000184533
0.000206428
0.000223909
0.000234302
0.000238923
0.000242114
0.000252447
0.000287535
0.000362603
0.000197449
0.000103744
5.53554e-05
3.55134e-05
3.15625e-05
4.01185e-05
6.77271e-05
6.50397e-05
6.75538e-05
7.24765e-05
7.81603e-05
8.22092e-05
8.1716e-05
7.43331e-05
6.44955e-05
4.7987e-05
4.31833e-05
0.000313333
8.65934e-05
0.00406785
0.0157726
0.00134672
0.000179171
0.000123108
0.000132317
0.00014964
0.000171978
0.000199729
0.000232977
0.00026796
0.000292698
0.000303934
0.000304511
0.000295859
0.000274654
0.000237683
0.000180062
0.000103787
5.72646e-05
3.63626e-05
2.8518e-05
2.74146e-05
3.14963e-05
3.94106e-05
4.48063e-05
5.08236e-05
5.74063e-05
6.48841e-05
7.10943e-05
7.27198e-05
6.70737e-05
5.67389e-05
4.85242e-05
4.54608e-05
0.000136469
0.000159697
0.00012089
0.000153144
0.000230624
0.00647825
0.0229881
0.00320257
0.000367091
0.000160622
0.00015205
0.000169226
0.000198018
0.000239225
0.000297929
0.000356065
0.000387871
0.000396241
0.000392084
0.000380914
0.000354913
0.000296586
0.000205039
0.000115981
6.21731e-05
3.93371e-05
3.06642e-05
2.80026e-05
3.02013e-05
3.62705e-05
4.32816e-05
5.21332e-05
6.51808e-05
8.02487e-05
9.64332e-05
0.000108477
0.000110178
9.27707e-05
7.18476e-05
5.93751e-05
8.30663e-05
0.000107925
0.000102895
0.000291329
0.000281282
0.00962491
0.026788
0.00750971
0.00162137
0.000557265
0.000329972
0.000284334
0.000293334
0.000332411
0.000430473
0.000500464
0.000516708
0.000500278
0.000471723
0.000442647
0.000410125
0.00035597
0.00026922
0.000171553
9.90342e-05
6.01126e-05
4.1847e-05
3.25961e-05
3.0731e-05
3.54093e-05
4.43563e-05
5.67134e-05
7.43775e-05
9.81635e-05
0.000128473
0.000158935
0.000183594
0.000190233
0.000153904
0.000128675
0.000135234
0.000169245
0.000226804
0.000466477
0.00046322
0.0105756
0.0339027
0.0161753
0.00890522
0.00445389
0.00218963
0.00126998
0.000925488
0.00081492
0.000805359
0.000762554
0.00069594
0.000620936
0.00054825
0.000483471
0.000426712
0.000369983
0.000302145
0.000224007
0.000151499
9.70407e-05
6.53346e-05
4.4853e-05
3.50912e-05
3.63903e-05
4.68094e-05
6.39273e-05
8.83817e-05
0.00012206
0.000166016
0.000219984
0.000283184
0.000354149
0.000423456
0.00047129
0.000675872
0.00112352
0.00172861
0.00484447
0.00126481
0.00988333
0.0174772
0.0141155
0.010407
0.00733585
0.00495592
0.00334906
0.00235431
0.0017682
0.00136813
0.00108463
0.000877594
0.00072091
0.000598191
0.000499444
0.000418262
0.000349306
0.00028746
0.000229826
0.000177536
0.000133863
9.88858e-05
6.78359e-05
4.5949e-05
3.9202e-05
4.81745e-05
6.92899e-05
0.000100078
0.000141784
0.000197348
0.000270077
0.000363551
0.000481801
0.000630255
0.000818004
0.00105812
0.00133866
0.00159013
0.00181056
0.00102114
0.00597717
0.00827627
0.00620757
0.00455427
0.00332626
0.00245599
0.00185489
0.00143066
0.00112158
0.000892221
0.000718332
0.000583004
0.000474873
0.000386703
0.000314107
0.000254344
0.000205344
0.000165268
0.000132838
0.000107444
8.83342e-05
6.66202e-05
4.55494e-05
4.66418e-05
6.63488e-05
9.72913e-05
0.000137008
0.000187063
0.000251209
0.000334041
0.000440804
0.000577533
0.000743741
0.000931809
0.00112562
0.00129702
0.00116521
0.000556404
0.0041977
0.00686171
0.00516913
0.00384039
0.00291195
0.00221822
0.00170404
0.00132639
0.0010483
0.000839447
0.000678908
0.000552101
0.000449385
0.000364819
0.000295089
0.000238477
0.000193873
0.000160105
0.000135529
0.000119314
0.000109358
9.41548e-05
6.23569e-05
4.47756e-05
5.61064e-05
7.43178e-05
0.0001003
0.000136611
0.000186241
0.000254082
0.00034646
0.000469271
0.000615817
0.000773396
0.000912215
0.00106818
0.000585406
0.000605652
0.00249465
0.00302995
0.00345188
0.00415663
0.00351419
0.00276418
0.00223091
0.00180046
0.00145087
0.00116565
0.000942004
0.000770348
0.000631244
0.000515141
0.000417158
0.000334842
0.000266972
0.000212763
0.000171207
0.000140626
0.000119745
0.000103858
8.7974e-05
7.12728e-05
5.36575e-05
4.2087e-05
5.08279e-05
6.86929e-05
8.90202e-05
0.000114625
0.000147736
0.000192947
0.000260639
0.000348607
0.000457302
0.000600771
0.000607145
0.000451039
0.000365235
0.000554023
)
;

boundaryField
{
    floor
    {
        Cmu             0.09;
        kappa           0.41;
        E               9.8;
        type            epsilonWallFunction;
        value           nonuniform List<scalar> 
29
(
0.000234137
2.73627e-05
5.22423e-05
5.7333e-05
5.6901e-05
5.30375e-05
4.33402e-05
2.95992e-05
2.06637e-05
1.42093e-05
9.66548e-06
6.63814e-06
4.71719e-06
3.54409e-06
2.84853e-06
2.44474e-06
2.26368e-06
3.52878e-06
2.25389e-05
1.29668e-05
1.29668e-05
3.02582e-05
5.95534e-05
8.65934e-05
0.000234137
2.73627e-05
4.52783e-05
0.000174241
0.000362603
)
;
    }
    ceiling
    {
        Cmu             0.09;
        kappa           0.41;
        E               9.8;
        type            epsilonWallFunction;
        value           nonuniform List<scalar> 
43
(
0.00249465
0.00302995
0.00345188
0.00415663
0.00351419
0.00276418
0.00223091
0.00180046
0.00145087
0.00116565
0.000942004
0.000770348
0.000631244
0.000515141
0.000417158
0.000334842
0.000266972
0.000212763
0.000171207
0.000140626
0.000119745
0.000103858
8.7974e-05
7.12728e-05
5.36575e-05
4.2087e-05
5.08279e-05
6.86929e-05
8.90202e-05
0.000114625
0.000147736
0.000192947
0.000260639
0.000348607
0.000457302
0.000600771
0.000607145
0.000451039
0.000365235
0.000554023
0.00988333
0.0174772
0.0041977
)
;
    }
    sWall
    {
        Cmu             0.09;
        kappa           0.41;
        E               9.8;
        type            epsilonWallFunction;
        value           uniform 0.00249465;
    }
    nWall
    {
        Cmu             0.09;
        kappa           0.41;
        E               9.8;
        type            epsilonWallFunction;
        value           nonuniform List<scalar> 6(0.000230624 0.000281282 0.00046322 0.000556404 0.000605652 0.000554023);
    }
    sideWalls
    {
        type            empty;
    }
    glass1
    {
        Cmu             0.09;
        kappa           0.41;
        E               9.8;
        type            epsilonWallFunction;
        value           nonuniform List<scalar> 9(0.000120943 0.000484551 0.00117144 0.00233336 0.00406785 0.00647825 0.00962491 0.0105756 0.00988333);
    }
    glass2
    {
        Cmu             0.09;
        kappa           0.41;
        E               9.8;
        type            epsilonWallFunction;
        value           nonuniform List<scalar> 2(0.00126481 0.00102114);
    }
    sun
    {
        Cmu             0.09;
        kappa           0.41;
        E               9.8;
        type            epsilonWallFunction;
        value           nonuniform List<scalar> 
14
(
0.000120943
0.000134594
0.000122298
0.000135801
0.000149305
0.000162222
0.000174681
0.000187017
0.000199757
0.000213486
0.000225491
0.000234553
0.000239618
0.000240167
)
;
    }
    heatsource1
    {
        Cmu             0.09;
        kappa           0.41;
        E               9.8;
        type            epsilonWallFunction;
        value           nonuniform List<scalar> 3(0.00012089 0.000153144 0.000230624);
    }
    heatsource2
    {
        Cmu             0.09;
        kappa           0.41;
        E               9.8;
        type            epsilonWallFunction;
        value           nonuniform List<scalar> 4(0.000275066 8.30868e-05 8.30868e-05 0.0003159);
    }
    Table_master
    {
        Cmu             0.09;
        kappa           0.41;
        E               9.8;
        type            epsilonWallFunction;
        value           nonuniform List<scalar> 9(3.60852e-05 2.04931e-05 1.45535e-05 1.1289e-05 9.28467e-06 7.97758e-06 7.08679e-06 6.45617e-06 6.0589e-06);
    }
    Table_slave
    {
        Cmu             0.09;
        kappa           0.41;
        E               9.8;
        type            epsilonWallFunction;
        value           nonuniform List<scalar> 9(6.77271e-05 6.50397e-05 6.75538e-05 7.24765e-05 7.81603e-05 8.22092e-05 8.1716e-05 7.43331e-05 6.44955e-05);
    }
    inlet
    {
        type            turbulentMixingLengthDissipationRateInlet;
        mixingLength    0.01;
        phi             phi;
        k               k;
        value           uniform 0.000101881;
    }
    outlet
    {
        type            zeroGradient;
    }
}


// ************************************************************************* //
