/*--------------------------------*- C++ -*----------------------------------*\
  =========                 |
  \\      /  F ield         | OpenFOAM: The Open Source CFD Toolbox
   \\    /   O peration     | Website:  https://openfoam.org
    \\  /    A nd           | Version:  6
     \\/     M anipulation  |
\*---------------------------------------------------------------------------*/
FoamFile
{
    version     2.0;
    format      ascii;
    class       surfaceScalarField;
    location    "500";
    object      phi;
}
// * * * * * * * * * * * * * * * * * * * * * * * * * * * * * * * * * * * * * //

dimensions      [1 0 -1 0 0 0 0];

internalField   nonuniform List<scalar> 
852
(
-0.00228731
0.00234114
-0.00251127
0.000224053
-0.00276956
0.000258388
-0.00305837
0.000288903
-0.00332493
0.000266657
-0.00354461
0.000219766
-0.00370019
0.000155681
-0.00377531
7.52106e-05
-0.00375283
-2.23814e-05
-0.00361305
-0.000139691
-0.00333708
-0.000275869
-0.00290876
-0.00042823
-0.00229369
-0.000614972
-0.00138143
-0.000912171
-0.00138098
-0.000447275
0.000450683
-0.000415432
-3.17412e-05
-0.000296949
-0.00011838
-0.000226069
-7.07763e-05
-0.000150736
-7.52285e-05
-4.12359e-05
-0.000109396
7.89899e-05
-0.000120122
0.000195732
-0.000116636
0.000293142
-9.7302e-05
0.000377899
-8.46476e-05
0.000452156
-7.41462e-05
0.000502675
-5.04087e-05
0.000511761
-8.9763e-06
0.000480372
3.14996e-05
0.00043249
4.79924e-05
0.000422295
1.03061e-05
0.000501554
-7.91515e-05
0.000513423
-1.17624e-05
0.000516745
-0.00164567
0.00412686
-0.00215528
0.000733761
-0.00253721
0.000640417
-0.0028523
0.000604087
-0.00312577
0.000540221
-0.00335105
0.000445145
-0.00351684
0.000321557
-0.00360992
0.000168392
-0.00361635
-1.58582e-05
-0.00352496
-0.000230988
-0.00332557
-0.000475167
-0.00300802
-0.000745682
-0.00256861
-0.00105429
-0.00206562
-0.00141507
-0.00169192
-0.00175458
7.20515e-05
-0.00176392
7.2097e-05
0.000604493
-0.000146422
0.000378036
0.00019482
3.78278e-05
0.000221931
-0.000148754
0.000115906
-0.000227521
3.64315e-06
-0.000317137
-1.96691e-05
-0.00023233
-0.000204819
-0.000203872
-0.000144983
-0.000204709
-9.63535e-05
-0.000227358
-6.18858e-05
-0.000274338
-2.70524e-05
-0.0003416
1.69687e-05
-0.00041648
6.60174e-05
-0.000490877
0.000106009
-0.000556012
0.000113239
-0.000589946
4.43511e-05
-0.000711567
4.25844e-05
-0.000698792
-2.44226e-05
-0.000175115
-0.00121284
0.00554794
-0.00182821
0.00134923
-0.00223274
0.00104504
-0.0025388
0.000910243
-0.00280023
0.000801746
-0.00301894
0.000663946
-0.00318775
0.000490459
-0.0032963
0.000277039
-0.00333335
2.12785e-05
-0.00329129
-0.000272952
-0.0031724
-0.000593962
-0.00298748
-0.00093051
-0.00276199
-0.00127969
-0.00254916
-0.0016278
-0.00239598
-0.00190766
-0.00213421
-0.0020256
-0.00206202
-0.000836521
0.0006966
-0.000920099
0.000278498
-0.000868535
0.000170467
-0.000812752
6.02221e-05
-0.00075376
-5.52536e-05
-0.00055263
-0.000220706
-0.000757182
-0.000901897
-0.000997984
-0.0010596
-0.00108639
-0.00106916
-0.00100287
-0.000896602
-0.000783102
-0.000359046
-0.000379601
-9.53961e-05
-0.00022096
-1.87906e-05
-0.000100918
-0.000189464
-0.000907596
0.00671931
-0.00154788
0.00198961
-0.00189159
0.00138884
-0.00216123
0.00117998
-0.00238897
0.00102958
-0.00257858
0.000853643
-0.00272823
0.000640204
-0.00283123
0.000380136
-0.00287825
6.83919e-05
-0.00286353
-0.000287585
-0.00280256
-0.000654841
-0.00272887
-0.00100411
-0.00268602
-0.00132245
-0.00272212
-0.00159161
-0.002859
-0.00177069
-0.00308982
-0.00179469
-0.00370509
-0.00144666
-0.0030356
-0.000666416
-0.00224762
-9.12818e-05
-0.00203161
6.25841e-05
-0.00191727
5.62311e-05
-0.00185911
2.15966e-06
-0.00183151
-8.27632e-05
-0.00190204
-0.000150078
-0.00177544
-0.000126662
-0.00164841
-0.000127093
-0.00151451
-0.00013395
-0.00137539
-0.000139181
-0.00123089
-0.000144557
-0.00107769
-0.000153259
-0.000906701
-0.000171052
-0.000697982
-0.000208778
-0.000407292
-0.000290748
-0.000339555
-0.000447242
-8.24034e-05
-0.000478013
0.000205208
-0.00038843
1.89037e-05
-0.000680656
0.00771067
-0.00131592
0.00262497
-0.00153161
0.00160463
-0.00173776
0.00138623
-0.00191234
0.00120425
-0.00204596
0.00098736
-0.00214279
0.000737128
-0.0022023
0.000439743
-0.00221572
8.18987e-05
-0.00217877
-0.000324442
-0.00211934
-0.000714184
-0.00208131
-0.00104204
-0.00210126
-0.00130241
-0.00219978
-0.001493
-0.00237641
-0.00159397
-0.00262234
-0.00154866
-0.00281571
-0.0012532
-0.00269619
-0.000785842
-0.00239343
-0.000393952
-0.00213569
-0.000195063
-0.00195391
-0.000125447
-0.00182895
-0.000122714
-0.00175479
-0.000156831
-0.00171636
-0.000188406
-0.00164593
-0.000197
-0.001568
-0.000204933
-0.00148848
-0.000213381
-0.00140691
-0.000220652
-0.00132325
-0.000228128
-0.00123579
-0.000240627
-0.0011388
-0.000267947
-0.001021
-0.000326484
-0.000877167
-0.000434493
-0.000740488
-0.000583828
-0.000486723
-0.000731685
4.91824e-06
-0.000879978
0.000957656
-0.000933739
0.00172982
-0.000772267
0.00158453
0.000145178
0.00161079
-0.000634805
0.008697
-0.00122088
0.00321114
-0.00115134
0.00153519
-0.00122556
0.00146054
-0.00135078
0.00132956
-0.00141478
0.00105145
-0.00142682
0.000749262
-0.00140537
0.000418386
-0.0013414
1.80157e-05
-0.00124494
-0.00042081
-0.00116293
-0.000796105
-0.00113505
-0.00106982
-0.00118299
-0.00125438
-0.00131164
-0.00136426
-0.00150889
-0.00139662
-0.00173595
-0.00132151
-0.00188603
-0.00110302
-0.00188115
-0.000790638
-0.00176248
-0.000512526
-0.00162448
-0.000332968
-0.00151037
-0.000239463
-0.00142828
-0.000204712
-0.00137948
-0.000205544
-0.00135117
-0.000216619
-0.00132391
-0.000224166
-0.00129766
-0.000231093
-0.00127495
-0.000235995
-0.00125819
-0.000237321
-0.00125042
-0.000235802
-0.0012544
-0.000236554
-0.00127077
-0.000251484
-0.00129701
-0.00030016
-0.00132843
-0.000402976
-0.0013452
-0.000566974
-0.0012843
-0.000792493
-0.00107013
-0.00109406
-0.000545931
-0.00145784
0.000354087
-0.00167219
0.00089878
-0.000399423
0.00254062
-0.000849705
0.00993535
-0.000979308
0.00334084
-0.000414303
0.000970283
-0.000332157
0.00137849
-0.000496852
0.00149435
-0.00052971
0.0010844
-0.000442649
0.000662295
-0.000302408
0.000278238
-0.000145792
-0.000138509
-1.36913e-05
-0.00055282
5.72828e-05
-0.000866989
5.16696e-05
-0.00106412
-3.39223e-05
-0.0011687
-0.000194367
-0.00120373
-0.000410385
-0.00118052
-0.000638827
-0.00109298
-0.000811971
-0.000929789
-0.000887857
-0.000714661
-0.00088805
-0.00051224
-0.000857541
-0.000363385
-0.000825555
-0.000271356
-0.000805285
-0.000224888
-0.000801318
-0.000209419
-0.000809264
-0.000208579
-0.0008221
-0.000211237
-0.000839181
-0.000213918
-0.000862723
-0.00021236
-0.000897551
-0.000202398
-0.000951889
-0.000181371
-0.00103755
-0.000150799
-0.00116877
-0.000120176
-0.0013576
-0.000111237
-0.00160593
-0.000154551
-0.00189585
-0.000276973
-0.00218822
-0.000500029
-0.00244081
-0.000841379
-0.0025948
-0.00130376
-0.00250869
-0.00175821
-0.00136279
-0.00154524
0.00121418
0.00162768
0.00874238
0.00213661
0.00283199
0.00216774
0.000939252
0.00176421
0.00178212
0.00140214
0.00185652
0.00128254
0.0012041
0.00130569
0.000639243
0.00141059
0.000173437
0.00153107
-0.000258893
0.00157546
-0.000597126
0.00153269
-0.000824126
0.00142137
-0.000952714
0.00125643
-0.00100367
0.00104758
-0.000994788
0.000806474
-0.00093932
0.000558504
-0.000844919
0.000344415
-0.000715611
0.000194744
-0.000564899
0.000103767
-0.000421172
4.81264e-05
-0.000307653
7.82733e-06
-0.000230965
-2.95725e-05
-0.000187396
-7.03163e-05
-0.000168582
-0.000114823
-0.000163979
-0.000161063
-0.000164903
-0.000208988
-0.000165899
-0.00025963
-0.000161624
-0.000315562
-0.000146372
-0.0003823
-0.000114539
-0.000470289
-6.27154e-05
-0.000599577
9.20469e-06
-0.000809294
9.85732e-05
-0.00115094
0.000187187
-0.00165703
0.000229203
-0.00232157
0.000164606
-0.00312484
-3.80212e-05
-0.00412943
-0.000299084
-0.00534396
-0.000543589
-0.0053041
-0.00158501
-0.0039467
0.00921083
0.0120273
0.0100858
0.00288079
0.00743176
0.00443625
0.00612404
0.00316433
0.00531059
0.00201764
0.00474359
0.00120634
0.00431413
0.000602982
0.00392123
0.000134101
0.0035442
-0.000220009
0.00319112
-0.000470953
0.0028615
-0.000622998
0.00255075
-0.00069283
0.00225392
-0.000697877
0.00196868
-0.00065399
0.00169972
-0.000575871
0.00146129
-0.000477083
0.00126759
-0.000371117
0.00111728
-0.000270771
0.00100024
-0.000190518
0.000905329
-0.000135968
0.000823447
-0.000105422
0.000748304
-9.33464e-05
0.000676929
-9.25116e-05
0.00060836
-9.62412e-05
0.000541932
-9.9378e-05
0.000477722
-9.73199e-05
0.000416876
-8.54321e-05
0.000361533
-5.91007e-05
0.000315283
-1.637e-05
0.000278224
4.63588e-05
0.000248992
0.0001279
0.000231046
0.000205228
0.000229131
0.000231211
0.00023202
0.00016181
0.000221665
-2.75736e-05
0.000203949
-0.000281276
0.000214948
-0.000554496
1.42518e-05
-0.00138423
-0.00377445
0.000594487
0.00310024
0.0029538
0.00207702
0.00421658
0.00190164
0.00457793
0.00165638
0.0046324
0.00115195
0.00458384
0.000651634
0.00445498
0.00026305
0.00425763
-2.25738e-05
0.00400545
-0.000218682
0.00371866
-0.000336116
0.00341641
-0.000390493
0.00311369
-0.000395075
0.00282317
-0.000363383
0.00255581
-0.000308421
0.00232127
-0.000242458
0.00212564
-0.00017539
0.00196445
-0.000109498
0.0018323
-5.82751e-05
0.00172239
-2.59711e-05
0.00162807
-1.10068e-05
0.00154379
-8.97659e-06
0.00146581
-1.44422e-05
0.00139206
-2.24022e-05
0.00132175
-2.89769e-05
0.00125563
-3.1101e-05
0.00119645
-2.6156e-05
0.00114908
-1.16404e-05
0.00111822
1.45832e-05
0.00111237
5.23083e-05
0.00114228
9.80877e-05
0.00121608
0.000131519
0.00133497
0.000112418
0.00148128
1.55887e-05
0.00163075
-0.000176941
0.00178418
-0.000434616
0.0019203
-0.000690523
0.00164829
-0.00111212
-0.00209132
-7.29378e-05
0.0031626
0.00193183
7.23292e-05
0.0029744
0.000859143
0.00360612
0.00102475
0.00403901
0.000719137
0.00428738
0.000403355
0.00437936
0.00017115
0.0043432
1.36785e-05
0.00419387
-6.92662e-05
0.00397153
-0.000113686
0.00370689
-0.000125774
0.00342589
-0.000113978
0.00315031
-8.77153e-05
0.00289754
-5.55659e-05
0.00267907
-2.39013e-05
0.00249991
3.86248e-06
0.00236531
2.51885e-05
0.00226938
3.77463e-05
0.0022003
4.31908e-05
0.00214625
4.31329e-05
0.00209799
3.93742e-05
0.00204993
3.37113e-05
0.00199989
2.77226e-05
0.00194836
2.26516e-05
0.00189788
1.94637e-05
0.00185288
1.89407e-05
0.00181958
2.17486e-05
0.00180442
2.98392e-05
0.0018138
4.30285e-05
0.00185643
5.5547e-05
0.00193349
5.45523e-05
0.00202657
1.94394e-05
0.00210864
-6.63841e-05
0.00213512
-0.000203329
0.00211663
-0.000416034
0.00217041
-0.000744211
0.00221968
-0.0011613
0.000166843
0.00403848
-0.00278983
0.000357766
0.000411641
0.00124989
0.00225161
0.00294551
0.00332144
0.00346301
0.00344502
0.00334226
0.00319353
0.00303149
0.0028804
0.00275514
0.00266198
0.00260073
0.00256768
0.00255653
0.00255845
0.00256622
0.00257427
0.00257884
0.002578
0.00257146
0.00256013
0.00254593
0.00253155
0.00252035
0.00251761
0.00252845
0.00255219
0.00257523
0.0025633
0.0024656
0.00223094
0.00178327
0.00100663
-0.000187091
)
;

boundaryField
{
    floor
    {
        type            calculated;
        value           nonuniform List<scalar> 
29
(
0
0
0
0
0
0
0
0
0
0
0
0
0
0
0
0
0
0
0
0
-3.21723e-06
-6.81007e-06
-4.3422e-06
-3.06064e-06
-3.55259e-07
-3.30896e-06
-7.28222e-06
-6.4021e-06
-2.98295e-06
)
;
    }
    ceiling
    {
        type            calculated;
        value           nonuniform List<scalar> 
43
(
4.36793e-05
2.85167e-05
1.50767e-05
1.85191e-05
2.09734e-05
2.3114e-05
2.53219e-05
2.75145e-05
2.96656e-05
3.17561e-05
3.3583e-05
3.51266e-05
3.63496e-05
3.71971e-05
3.76351e-05
3.76856e-05
3.74354e-05
3.69942e-05
3.64306e-05
3.59183e-05
3.55053e-05
3.51764e-05
3.48964e-05
3.46324e-05
3.43608e-05
3.40686e-05
3.37512e-05
3.34097e-05
3.30479e-05
3.2667e-05
3.22757e-05
3.19034e-05
3.16038e-05
3.14634e-05
3.14036e-05
3.14315e-05
3.17215e-05
3.25199e-05
3.25136e-05
3.01036e-05
1.94919e-05
1.56487e-05
1.06478e-05
)
;
    }
    sWall
    {
        type            calculated;
        value           uniform -0.000152035;
    }
    nWall
    {
        type            calculated;
        value           nonuniform List<scalar> 6(-2.63691e-05 -3.09582e-05 -3.62536e-05 -3.47406e-05 -3.83914e-05 -5.02646e-05);
    }
    sideWalls
    {
        type            empty;
        value           nonuniform 0();
    }
    glass1
    {
        type            calculated;
        value           nonuniform List<scalar> 9(-5.37294e-05 -0.000139963 -0.000208154 -0.000263688 -0.000310621 -0.000351441 -0.000388562 -0.000434626 -0.000487867);
    }
    glass2
    {
        type            calculated;
        value           nonuniform List<scalar> 2(-0.000143136 -0.00015791);
    }
    sun
    {
        type            calculated;
        value           uniform 0;
    }
    heatsource1
    {
        type            calculated;
        value           nonuniform List<scalar> 3(2.01606e-07 2.01699e-07 2.01827e-07);
    }
    heatsource2
    {
        type            calculated;
        value           nonuniform List<scalar> 4(5.04905e-08 5.0747e-08 0 0);
    }
    Table_master
    {
        type            calculated;
        value           nonuniform List<scalar> 9(-1.52833e-07 -1.52753e-07 -1.52667e-07 -1.52591e-07 -1.52525e-07 -1.52465e-07 -1.524e-07 -1.52326e-07 -1.52201e-07);
    }
    Table_slave
    {
        type            calculated;
        value           nonuniform List<scalar> 9(1.51393e-07 1.51439e-07 1.51479e-07 1.5152e-07 1.51561e-07 1.51602e-07 1.51644e-07 1.51691e-07 1.51722e-07);
    }
    inlet
    {
        type            calculated;
        value           uniform -0.000813872;
    }
    outlet
    {
        type            calculated;
        value           nonuniform List<scalar> 2(-0.00392999 0.00679991);
    }
}


// ************************************************************************* //
