/*--------------------------------*- C++ -*----------------------------------*\
  =========                 |
  \\      /  F ield         | OpenFOAM: The Open Source CFD Toolbox
   \\    /   O peration     | Website:  https://openfoam.org
    \\  /    A nd           | Version:  6
     \\/     M anipulation  |
\*---------------------------------------------------------------------------*/
FoamFile
{
    version     2.0;
    format      ascii;
    class       volVectorField;
    location    "900";
    object      U;
}
// * * * * * * * * * * * * * * * * * * * * * * * * * * * * * * * * * * * * * //

dimensions      [0 1 -1 0 0 0 0];

internalField   nonuniform List<vector> 
459
(
(0.0339067 0.0917815 0)
(-0.17937 0.0273145 0)
(-0.208355 0.0183416 0)
(-0.242293 0.0108974 0)
(-0.265294 0.00257439 0)
(-0.275188 -0.00662241 0)
(-0.268751 -0.0169413 0)
(-0.24456 -0.0287164 0)
(-0.203016 -0.0403993 0)
(-0.148286 -0.0496484 0)
(-0.0882354 -0.0542818 0)
(-0.0327407 -0.0519335 0)
(0.0232281 -0.0273029 0)
(0.0392271 -0.00438323 0)
(0.0176635 0.0263012 0)
(-0.0122008 0.0131553 0)
(-0.0441861 -0.0180545 0)
(-0.0190912 -0.0307046 0)
(0.00855289 -0.0273708 0)
(0.030372 -0.0197857 0)
(0.0481072 -0.0133444 0)
(0.0598229 -0.00754519 0)
(0.0660504 -0.00444971 0)
(0.068647 -0.00325571 0)
(0.0696937 -0.00276842 0)
(0.070246 -0.00246497 0)
(0.0705054 -0.00221999 0)
(0.0704023 -0.00193891 0)
(0.0697371 -0.00144855 0)
(0.067961 -0.000369662 0)
(0.0638797 0.00180907 0)
(0.0562223 0.00405726 0)
(0.0503492 0.00588953 0)
(-0.0170952 0.0246857 0)
(0.217406 0.189489 0)
(-0.168437 0.0753455 0)
(-0.171356 0.0596599 0)
(-0.207875 0.0448178 0)
(-0.232029 0.027398 0)
(-0.243623 0.00682492 0)
(-0.239527 -0.0176087 0)
(-0.218584 -0.0445928 0)
(-0.18208 -0.0694378 0)
(-0.134751 -0.0863864 0)
(-0.0840452 -0.0911825 0)
(-0.0379216 -0.0806775 0)
(0.00179236 -0.0491363 0)
(0.029048 -0.00994571 0)
(0.0432126 0.0257941 0)
(0.0529916 0.0283649 0)
(0.0389182 0.0342956 0)
(0.0741456 0.0507952 0)
(0.00607495 -0.0236994 0)
(0.0265015 -0.0413704 0)
(0.0406869 -0.0381276 0)
(0.0531815 -0.0293171 0)
(0.0633699 -0.0198111 0)
(0.0683832 -0.00847708 0)
(0.0695128 -0.00184922 0)
(0.0694311 0.000749 0)
(0.0695322 0.00176955 0)
(0.0698035 0.00233985 0)
(0.0700052 0.00276746 0)
(0.0700622 0.00323099 0)
(0.0699459 0.00410319 0)
(0.069126 0.00630123 0)
(0.0651069 0.0124636 0)
(0.0549375 0.0174534 0)
(0.0534243 0.0205272 0)
(-0.0663353 0.0531742 0)
(0.386173 0.284631 0)
(-0.185715 0.120752 0)
(-0.131365 0.0975178 0)
(-0.168797 0.0710651 0)
(-0.192241 0.0419957 0)
(-0.205081 0.00834765 0)
(-0.202845 -0.0308186 0)
(-0.183625 -0.0735145 0)
(-0.150613 -0.111007 0)
(-0.10955 -0.133874 0)
(-0.0674194 -0.137034 0)
(-0.0303349 -0.118588 0)
(0.00132947 -0.0781172 0)
(0.0262742 -0.0326872 0)
(0.0445045 0.00653569 0)
(0.0521639 0.0291576 0)
(0.0490894 0.0633801 0)
(0.140191 -0.00442333 0)
(0.0833779 -0.0326434 0)
(0.0718267 -0.0438036 0)
(0.0724277 -0.0427496 0)
(0.0744823 -0.035664 0)
(0.0775868 -0.0281672 0)
(0.0778316 -0.021172 0)
(0.0711001 -0.0140436 0)
(0.0660174 -0.0102062 0)
(0.063994 -0.00804465 0)
(0.0633731 -0.00665384 0)
(0.0631564 -0.00569449 0)
(0.0632677 -0.00489172 0)
(0.0641916 -0.00382113 0)
(0.067119 -0.000368745 0)
(0.0649286 0.0176367 0)
(0.0502732 0.0294744 0)
(0.0607534 0.0361679 0)
(-0.111042 0.0806836 0)
(0.540581 0.361914 0)
(-0.221804 0.16152 0)
(-0.0867446 0.131903 0)
(-0.12478 0.0961904 0)
(-0.144284 0.0588659 0)
(-0.156614 0.0143896 0)
(-0.154587 -0.0395593 0)
(-0.134911 -0.0985717 0)
(-0.105496 -0.147362 0)
(-0.0720231 -0.174193 0)
(-0.0399531 -0.175136 0)
(-0.0129049 -0.150502 0)
(0.010895 -0.103898 0)
(0.0311339 -0.0549174 0)
(0.0503412 -0.0114992 0)
(0.0686999 0.0231333 0)
(0.0903299 0.0587475 0)
(0.120411 0.0727823 0)
(0.115404 0.00469111 0)
(0.0983644 -0.0264807 0)
(0.088912 -0.036617 0)
(0.0828337 -0.0375365 0)
(0.0775766 -0.0330586 0)
(0.0732991 -0.0251091 0)
(0.0747754 -0.0154019 0)
(0.0831231 -0.0107268 0)
(0.0899838 -0.00810866 0)
(0.0941591 -0.00631802 0)
(0.0964151 -0.00457489 0)
(0.0963678 -0.00247385 0)
(0.092866 0.000271231 0)
(0.0846435 0.0040068 0)
(0.0689954 0.00942588 0)
(0.0536511 0.029951 0)
(0.0376647 0.0465332 0)
(0.0665707 0.0577998 0)
(-0.168517 0.102729 0)
(0.678473 0.42189 0)
(-0.267975 0.194619 0)
(-0.0390626 0.154395 0)
(-0.0763829 0.113286 0)
(-0.0884426 0.0714568 0)
(-0.0974401 0.0196084 0)
(-0.0911916 -0.0471763 0)
(-0.0686507 -0.121628 0)
(-0.0452662 -0.176929 0)
(-0.0225382 -0.203662 0)
(-0.00334736 -0.20071 0)
(0.0115129 -0.170284 0)
(0.0239612 -0.122988 0)
(0.0361653 -0.0720455 0)
(0.0488363 -0.0277446 0)
(0.0635033 0.00495236 0)
(0.0812738 0.0217064 0)
(0.0928742 0.0028635 0)
(0.092564 -0.0193313 0)
(0.0864164 -0.0284376 0)
(0.0776413 -0.0312085 0)
(0.0692255 -0.03077 0)
(0.0622318 -0.0273689 0)
(0.0575376 -0.0211456 0)
(0.0571939 -0.0121826 0)
(0.0608055 -0.00735267 0)
(0.0648666 -0.00531135 0)
(0.0684253 -0.00372621 0)
(0.0713872 -0.00117172 0)
(0.0733226 0.00294154 0)
(0.0728122 0.00856631 0)
(0.0693321 0.0158052 0)
(0.0623816 0.0253805 0)
(0.053693 0.0416707 0)
(0.0390096 0.0603107 0)
(0.0739665 0.0805062 0)
(-0.05427 0.113799 0)
(0.0518441 0.0193241 0)
(-0.0734044 -0.0386179 0)
(-0.298795 -0.0634727 0)
(0.78434 0.471412 0)
(-0.316469 0.216511 0)
(0.0024312 0.156131 0)
(-0.0256977 0.120948 0)
(-0.028664 0.0799457 0)
(-0.0330016 0.025053 0)
(-0.0108115 -0.0570269 0)
(0.0137284 -0.144592 0)
(0.0270961 -0.197607 0)
(0.0356425 -0.218842 0)
(0.0390654 -0.210857 0)
(0.0387878 -0.178114 0)
(0.0375937 -0.129802 0)
(0.037428 -0.0787129 0)
(0.0393935 -0.0357231 0)
(0.044539 -0.00682261 0)
(0.0542624 0.00680045 0)
(0.060902 0.00158349 0)
(0.0611225 -0.00822701 0)
(0.056203 -0.0165518 0)
(0.0487634 -0.0213193 0)
(0.0414364 -0.0227797 0)
(0.0354068 -0.0214758 0)
(0.0315301 -0.0179869 0)
(0.0308087 -0.0133944 0)
(0.0330225 -0.0109356 0)
(0.0365797 -0.00992599 0)
(0.0406883 -0.00865109 0)
(0.045028 -0.00576697 0)
(0.0493374 -0.000291128 0)
(0.0526913 0.00770934 0)
(0.0540729 0.0176173 0)
(0.0540374 0.0296674 0)
(0.0541844 0.0452987 0)
(0.0501904 0.0638234 0)
(0.0819601 0.0883022 0)
(0.044898 0.106065 0)
(0.102878 0.0677937 0)
(0.127872 0.0450593 0)
(-0.143428 -0.00987763 0)
(0.84363 0.515886 0)
(-0.34516 0.199939 0)
(0.0362822 0.108515 0)
(0.0363948 0.108976 0)
(0.0391777 0.0775316 0)
(0.0464382 0.00967437 0)
(0.086315 -0.0857409 0)
(0.104244 -0.1593 0)
(0.106048 -0.203293 0)
(0.0980368 -0.217165 0)
(0.0830885 -0.204163 0)
(0.0644119 -0.169117 0)
(0.0459991 -0.121022 0)
(0.0308752 -0.0716941 0)
(0.0209409 -0.0320264 0)
(0.0173076 -0.00782119 0)
(0.020026 0.00266724 0)
(0.0230243 0.0013829 0)
(0.0228821 -0.00493741 0)
(0.0195216 -0.0113343 0)
(0.0142095 -0.0154168 0)
(0.00862579 -0.0171333 0)
(0.00386388 -0.0170526 0)
(0.000796464 -0.0157915 0)
(0.000148523 -0.014243 0)
(0.00172908 -0.0137567 0)
(0.00461737 -0.0138433 0)
(0.00833515 -0.0133439 0)
(0.0128454 -0.0111202 0)
(0.0182618 -0.00593216 0)
(0.025993 0.00321951 0)
(0.0325431 0.0141838 0)
(0.0387727 0.0263667 0)
(0.0468515 0.0404087 0)
(0.0540511 0.0556381 0)
(0.0817727 0.0756404 0)
(0.0928846 0.0804091 0)
(0.133425 0.0483895 0)
(0.177636 0.0406938 0)
(-0.0264638 0.0996519 0)
(0.953424 0.517913 0)
(-0.0732781 0.180862 0)
(0.115122 0.0497292 0)
(0.162266 0.0379367 0)
(0.156037 0.00860238 0)
(0.179783 -0.0572039 0)
(0.205846 -0.117623 0)
(0.206566 -0.165224 0)
(0.187763 -0.192125 0)
(0.1567 -0.195142 0)
(0.118283 -0.176715 0)
(0.0775312 -0.140669 0)
(0.0401751 -0.0950442 0)
(0.0105034 -0.0507195 0)
(-0.00852763 -0.0183736 0)
(-0.0156177 -0.00376112 0)
(-0.0162611 0.00168341 0)
(-0.0151452 0.000820976 0)
(-0.0154393 -0.00324126 0)
(-0.0177634 -0.0075505 0)
(-0.0215318 -0.0106276 0)
(-0.0256789 -0.012428 0)
(-0.0293703 -0.0133594 0)
(-0.0319915 -0.0138747 0)
(-0.0332259 -0.014429 0)
(-0.0333086 -0.0153518 0)
(-0.0327234 -0.0163453 0)
(-0.0316585 -0.0168557 0)
(-0.0299454 -0.016297 0)
(-0.0270934 -0.0139928 0)
(-0.021801 -0.00906473 0)
(-0.00954627 -0.000785655 0)
(-0.000177035 0.00901144 0)
(0.0120768 0.0181067 0)
(0.0236748 0.0256433 0)
(0.0454414 0.0345268 0)
(0.0621119 0.025023 0)
(0.0776489 -0.00686901 0)
(0.140689 0.0527859 0)
(-0.501065 0.238528 0)
(1.10145 0.456113 0)
(0.543542 0.305441 0)
(0.544323 0.252079 0)
(0.517371 0.175216 0)
(0.464893 0.10327 0)
(0.422347 0.0273971 0)
(0.368745 -0.0487618 0)
(0.310285 -0.107767 0)
(0.249366 -0.139688 0)
(0.186295 -0.143519 0)
(0.121761 -0.1262 0)
(0.0596344 -0.0933951 0)
(0.00757593 -0.05389 0)
(-0.0282611 -0.0210831 0)
(-0.0437229 -0.00629124 0)
(-0.0497941 -0.000370344 0)
(-0.0510125 0.0012563 0)
(-0.0508976 0.000126066 0)
(-0.0514087 -0.00253793 0)
(-0.0531797 -0.00547266 0)
(-0.0559557 -0.00796322 0)
(-0.0591856 -0.00990898 0)
(-0.0624444 -0.0114353 0)
(-0.0655196 -0.0126966 0)
(-0.0684486 -0.0138216 0)
(-0.0715245 -0.0148259 0)
(-0.0751239 -0.0154513 0)
(-0.079559 -0.0152602 0)
(-0.0851415 -0.0137062 0)
(-0.0923393 -0.0100876 0)
(-0.101858 -0.00348616 0)
(-0.113549 0.00671158 0)
(-0.125409 0.0199909 0)
(-0.144658 0.0365386 0)
(-0.175468 0.0557623 0)
(-0.220088 0.0748891 0)
(-0.282519 0.0876566 0)
(-0.351143 0.0907731 0)
(-0.424741 0.0854387 0)
(-0.69801 0.0716988 0)
(0.231693 0.170363 0)
(0.301336 0.171129 0)
(0.312797 0.101663 0)
(0.284782 0.0248711 0)
(0.256209 -0.0341084 0)
(0.216897 -0.0702978 0)
(0.168013 -0.0856941 0)
(0.111151 -0.0801903 0)
(0.0485494 -0.0618916 0)
(-0.0155089 -0.03398 0)
(-0.0532153 -0.0148432 0)
(-0.0719836 -0.00634891 0)
(-0.0794909 -0.00432402 0)
(-0.0818869 -0.0046758 0)
(-0.0822617 -0.00591985 0)
(-0.0822878 -0.00778005 0)
(-0.0826776 -0.00985566 0)
(-0.0837368 -0.011864 0)
(-0.0854321 -0.0137421 0)
(-0.0876459 -0.0154188 0)
(-0.0903391 -0.0168803 0)
(-0.0935974 -0.0181216 0)
(-0.0976042 -0.0191019 0)
(-0.102566 -0.0196716 0)
(-0.108585 -0.0194757 0)
(-0.115532 -0.0179366 0)
(-0.122936 -0.0143053 0)
(-0.129938 -0.00778287 0)
(-0.135601 0.00210862 0)
(-0.139533 0.0151582 0)
(-0.142457 0.0322513 0)
(-0.145296 0.0537319 0)
(-0.149654 0.0781373 0)
(-0.156279 0.0999432 0)
(-0.161156 0.106774 0)
(-0.142846 0.0767765 0)
(-0.0784294 -0.0343809 0)
(-0.291832 -0.247469 0)
(0.13902 0.385226 0)
(0.0174687 0.22731 0)
(0.0473903 0.120975 0)
(0.0610958 0.0540107 0)
(0.0657535 0.0171213 0)
(0.0508324 -0.0106137 0)
(0.0166252 -0.0162731 0)
(-0.0319982 0.010831 0)
(-0.0712233 0.0306637 0)
(-0.0955796 0.0409769 0)
(-0.106012 0.0450393 0)
(-0.108843 0.0466095 0)
(-0.108755 0.0479194 0)
(-0.107741 0.0495191 0)
(-0.106587 0.0512959 0)
(-0.105722 0.0527648 0)
(-0.105326 0.0529912 0)
(-0.105414 0.0529138 0)
(-0.106018 0.0530351 0)
(-0.107099 0.0533196 0)
(-0.108586 0.0537509 0)
(-0.110416 0.054269 0)
(-0.112548 0.0547038 0)
(-0.114953 0.0548059 0)
(-0.117585 0.0543008 0)
(-0.120354 0.052905 0)
(-0.123098 0.0502719 0)
(-0.12533 0.0458664 0)
(-0.125807 0.0426038 0)
(-0.122821 0.0428208 0)
(-0.114538 0.0481808 0)
(-0.0998924 0.0601259 0)
(-0.0799176 0.0785031 0)
(-0.0560865 0.0971004 0)
(-0.0308708 0.106364 0)
(0.0138386 0.0869184 0)
(0.142712 0.00582302 0)
(-0.201234 -0.161541 0)
(-0.508923 -0.572693 0)
(-0.705079 -0.153535 0)
(-0.468703 0.219857 0)
(-0.360074 0.0518719 0)
(-0.191705 -0.0436116 0)
(-0.126074 -0.112864 0)
(-0.109418 -0.143362 0)
(-0.115377 -0.136844 0)
(-0.133658 -0.128392 0)
(-0.141669 -0.121264 0)
(-0.139397 -0.117388 0)
(-0.133886 -0.118138 0)
(-0.127494 -0.123903 0)
(-0.121967 -0.131677 0)
(-0.117818 -0.139311 0)
(-0.114766 -0.146457 0)
(-0.112562 -0.153226 0)
(-0.111168 -0.159413 0)
(-0.110808 -0.164206 0)
(-0.111677 -0.168279 0)
(-0.113624 -0.171496 0)
(-0.116395 -0.173792 0)
(-0.119729 -0.175108 0)
(-0.123341 -0.175328 0)
(-0.126942 -0.174239 0)
(-0.130234 -0.171516 0)
(-0.132884 -0.166732 0)
(-0.134497 -0.159347 0)
(-0.134661 -0.148671 0)
(-0.132945 -0.13393 0)
(-0.128393 -0.117247 0)
(-0.118505 -0.0987609 0)
(-0.0998293 -0.078531 0)
(-0.0701865 -0.0557071 0)
(-0.0326003 -0.0296205 0)
(0.0369425 0.00374393 0)
(0.0909847 0.000957836 0)
(0.143416 -0.0271629 0)
(0.190691 -0.0775056 0)
(-0.141341 -0.153132 0)
)
;

boundaryField
{
    floor
    {
        type            noSlip;
    }
    ceiling
    {
        type            noSlip;
    }
    sWall
    {
        type            noSlip;
    }
    nWall
    {
        type            noSlip;
    }
    sideWalls
    {
        type            empty;
    }
    glass1
    {
        type            noSlip;
    }
    glass2
    {
        type            noSlip;
    }
    sun
    {
        type            noSlip;
    }
    heatsource1
    {
        type            noSlip;
    }
    heatsource2
    {
        type            noSlip;
    }
    Table_master
    {
        type            noSlip;
    }
    Table_slave
    {
        type            noSlip;
    }
    inlet
    {
        type            fixedValue;
        value           uniform (0.5 0 0);
    }
    outlet
    {
        type            zeroGradient;
    }
}


// ************************************************************************* //
