// -*- C++ -*-
// File generated by PyFoam - sorry for the ugliness

FoamFile
{
 version 2.0;
 format ascii;
 class volScalarField;
 location "500";
 object T;
}

dimensions [ 0 0 0 1 0 0 0 ];

internalField nonuniform List<scalar> 459
(
  304.933
  304.669
  304.667
  304.674
  304.68
  304.684
  304.687
  304.69
  304.691
  304.692
  304.689
  304.682
  304.671
  304.655
  304.635
  303.275
  303.291
  303.309
  303.283
  303.266
  303.274
  303.286
  303.279
  303.268
  303.262
  303.262
  303.264
  303.26
  303.259
  303.271
  303.307
  303.381
  303.377
  303.36
  305.139
  304.743
  304.727
  304.741
  304.756
  304.769
  304.779
  304.787
  304.792
  304.793
  304.787
  304.771
  304.744
  304.703
  304.648
  304.594
  304.453
  303.409
  303.443
  303.475
  303.489
  303.459
  303.435
  303.448
  303.438
  303.432
  303.435
  303.449
  303.485
  303.545
  303.607
  303.677
  303.747
  303.718
  303.662
  303.578
  305.33
  304.819
  304.782
  304.804
  304.83
  304.854
  304.875
  304.892
  304.904
  304.91
  304.905
  304.885
  304.847
  304.787
  304.705
  304.609
  304.526
  303.852
  303.826
  303.853
  303.908
  303.954
  303.92
  303.609
  303.643
  303.695
  303.746
  303.8
  303.857
  303.922
  304.014
  304.142
  304.3
  304.277
  304.256
  304.314
  305.505
  304.9
  304.834
  304.86
  304.897
  304.933
  304.967
  304.998
  305.021
  305.036
  305.037
  305.02
  304.98
  304.914
  304.818
  304.692
  304.536
  304.391
  304.278
  304.336
  304.415
  304.498
  304.561
  304.598
  304.627
  304.63
  304.634
  304.639
  304.645
  304.651
  304.657
  304.66
  304.654
  304.614
  304.609
  304.602
  304.585
  305.665
  304.987
  304.887
  304.906
  304.95
  304.997
  305.043
  305.087
  305.124
  305.152
  305.164
  305.158
  305.13
  305.077
  305.003
  304.912
  304.815
  304.731
  304.67
  304.653
  304.662
  304.678
  304.687
  304.691
  304.691
  304.691
  304.692
  304.696
  304.702
  304.712
  304.723
  304.735
  304.746
  304.753
  304.766
  304.779
  304.79
  304.809
  304.797
  304.795
  305.803
  305.085
  304.957
  304.949
  304.99
  305.04
  305.092
  305.145
  305.195
  305.236
  305.262
  305.27
  305.256
  305.22
  305.162
  305.087
  305.005
  304.929
  304.868
  304.828
  304.804
  304.789
  304.776
  304.765
  304.755
  304.748
  304.742
  304.741
  304.744
  304.752
  304.765
  304.782
  304.8
  304.818
  304.835
  304.85
  304.86
  304.865
  304.834
  304.809
  305.916
  305.23
  305.103
  305.044
  305.044
  305.08
  305.126
  305.177
  305.234
  305.287
  305.325
  305.344
  305.346
  305.328
  305.29
  305.234
  305.167
  305.096
  305.032
  304.979
  304.937
  304.904
  304.877
  304.855
  304.834
  304.817
  304.802
  304.792
  304.786
  304.786
  304.794
  304.809
  304.828
  304.848
  304.865
  304.878
  304.887
  304.888
  304.874
  304.818
  306.101
  305.568
  305.447
  305.332
  305.247
  305.217
  305.225
  305.253
  305.3
  305.344
  305.374
  305.393
  305.4
  305.395
  305.377
  305.345
  305.298
  305.241
  305.181
  305.124
  305.074
  305.031
  304.994
  304.961
  304.932
  304.905
  304.881
  304.859
  304.84
  304.828
  304.823
  304.828
  304.84
  304.856
  304.875
  304.892
  304.907
  304.923
  304.938
  304.963
  306.352
  306.127
  305.978
  305.828
  305.679
  305.578
  305.517
  305.487
  305.469
  305.458
  305.454
  305.45
  305.446
  305.439
  305.427
  305.408
  305.38
  305.343
  305.299
  305.251
  305.204
  305.159
  305.117
  305.079
  305.044
  305.011
  304.979
  304.949
  304.92
  304.894
  304.874
  304.861
  304.855
  304.856
  304.86
  304.865
  304.872
  304.878
  304.889
  304.955
  304.921
  305.58
  305.614
  305.59
  305.563
  305.542
  305.528
  305.515
  305.502
  305.491
  305.479
  305.467
  305.454
  305.439
  305.421
  305.398
  305.369
  305.336
  305.3
  305.262
  305.224
  305.188
  305.152
  305.117
  305.083
  305.049
  305.016
  304.983
  304.952
  304.924
  304.903
  304.889
  304.882
  304.88
  304.881
  304.881
  304.881
  304.889
  305.017
  305.459
  305.522
  305.538
  305.536
  305.528
  305.52
  305.511
  305.501
  305.491
  305.48
  305.469
  305.457
  305.444
  305.43
  305.413
  305.394
  305.372
  305.346
  305.319
  305.29
  305.26
  305.229
  305.198
  305.166
  305.134
  305.101
  305.068
  305.034
  305.002
  304.972
  304.949
  304.933
  304.921
  304.913
  304.904
  304.892
  304.891
  306.377
  305.802
  305.088
  305.313
  305.433
  305.47
  305.479
  305.479
  305.475
  305.468
  305.461
  305.453
  305.445
  305.436
  305.426
  305.415
  305.404
  305.391
  305.378
  305.363
  305.347
  305.329
  305.31
  305.289
  305.267
  305.244
  305.219
  305.193
  305.166
  305.137
  305.108
  305.078
  305.048
  305.021
  304.996
  304.972
  304.949
  304.925
  304.889
  304.876
)
;

boundaryField
{
  floor
  {
    type wallHeatTransfer;
    Tinf uniform 305.2;
    alphaWall uniform 0.24;
    value nonuniform List<scalar> 29
(
  304.703
  303.761
  303.744
  303.757
  303.801
  303.843
  303.874
  303.897
  303.867
  303.832
  303.801
  303.779
  303.769
  303.768
  303.768
  303.772
  303.784
  303.813
  303.821
  303.836
  303.836
  303.93
  304.457
  304.666
  304.703
  303.761
  303.772
  304.048
  304.48
)
;
  }
  ceiling
  {
    type wallHeatTransfer;
    Tinf uniform 303.2;
    alphaWall uniform 0.24;
    value nonuniform List<scalar> 43
(
  306.146
  305.648
  305.003
  305.211
  305.316
  305.342
  305.339
  305.327
  305.312
  305.294
  305.277
  305.261
  305.246
  305.232
  305.219
  305.208
  305.198
  305.187
  305.177
  305.166
  305.152
  305.137
  305.119
  305.1
  305.08
  305.058
  305.035
  305.011
  304.986
  304.96
  304.933
  304.905
  304.878
  304.851
  304.826
  304.803
  304.779
  304.75
  304.715
  304.716
  306.206
  306.008
  304.949
)
;
  }
  sWall
  {
    type wallHeatTransfer;
    Tinf uniform 315.2;
    alphaWall uniform 0.36;
    value uniform 307.307;
  }
  nWall
  {
    type wallHeatTransfer;
    Tinf uniform 307.2;
    alphaWall uniform 0.36;
    value nonuniform List<scalar> 6
(
  305.216
  305.213
  305.22
  305.16
  305.163
  305.193
)
;
  }
  sideWalls
  {
    type empty;
  }
  glass1
  {
    type wallHeatTransfer;
    Tinf uniform 315.2;
    alphaWall uniform 4.3;
    value nonuniform List<scalar> 9
(
  312.698
  311.873
  311.339
  310.945
  310.653
  310.427
  310.25
  310.306
  310.506
)
;
  }
  glass2
  {
    type wallHeatTransfer;
    Tinf uniform 307.2;
    alphaWall uniform 4.3;
    value nonuniform List<scalar> 2
(
  306.377
  306.326
)
;
  }
  sun
  {
    type wallHeatTransfer;
    Tinf uniform 305.2;
    alphaWall uniform 0.24;
    value nonuniform List<scalar> 14
(
  304.972
  304.744
  304.746
  304.75
  304.753
  304.755
  304.756
  304.756
  304.756
  304.756
  304.752
  304.745
  304.734
  304.721
)
;
  }
  heatsource1
  {
    type fixedGradient;
    gradient uniform 0;
  }
  heatsource2
  {
    type fixedGradient;
    gradient uniform 0;
  }
  Table_master
  {
    type zeroGradient;
  }
  Table_slave
  {
    type zeroGradient;
  }
  inlet
  {
    type fixedValue;
    value uniform 299.15;
  }
  outlet
  {
    type zeroGradient;
  }
} 	// ************************************************************************* //

