/*--------------------------------*- C++ -*----------------------------------*\
  =========                 |
  \\      /  F ield         | OpenFOAM: The Open Source CFD Toolbox
   \\    /   O peration     | Website:  https://openfoam.org
    \\  /    A nd           | Version:  6
     \\/     M anipulation  |
\*---------------------------------------------------------------------------*/
FoamFile
{
    version     2.0;
    format      ascii;
    class       volScalarField;
    location    "500";
    object      epsilon;
}
// * * * * * * * * * * * * * * * * * * * * * * * * * * * * * * * * * * * * * //

dimensions      [0 2 -3 0 0 0 0];

internalField   nonuniform List<scalar> 
459
(
0.000363557
0.000463743
0.000481437
0.000549902
0.000617896
0.000685063
0.000753493
0.00082695
0.000892067
0.000932308
0.000934669
0.000890654
0.000803214
0.000691777
0.000582543
2.95639e-05
5.51598e-05
7.25001e-05
6.67069e-05
5.82373e-05
4.96841e-05
4.14042e-05
3.44326e-05
2.88378e-05
2.43788e-05
2.08055e-05
1.79302e-05
1.55889e-05
1.36427e-05
1.19781e-05
1.04859e-05
9.05086e-06
8.32233e-06
6.49623e-06
0.000967075
0.00147701
0.000438614
0.000418717
0.000433379
0.000457369
0.00049249
0.000543389
0.000602353
0.000652407
0.000675291
0.000657699
0.000598212
0.000516044
0.000469313
0.000604995
0.000173667
4.18784e-05
9.54477e-05
9.27595e-05
7.97917e-05
6.52125e-05
5.28375e-05
4.55543e-05
3.71327e-05
2.99484e-05
2.42159e-05
1.97214e-05
1.62206e-05
1.34953e-05
1.13786e-05
9.85115e-06
9.00597e-06
8.76003e-06
2.48229e-05
1.63994e-05
0.00182261
0.00382059
0.000566284
0.000400254
0.000409477
0.000446867
0.000503357
0.000580967
0.000670104
0.000745396
0.000783391
0.000772236
0.000713468
0.000625434
0.000540013
0.000494785
0.000544498
0.000352314
0.000220555
0.000152421
0.000110512
8.33728e-05
6.74723e-05
0.000115498
8.25892e-05
6.10787e-05
4.66214e-05
3.66102e-05
2.94794e-05
2.42778e-05
2.04253e-05
1.75775e-05
1.35959e-05
1.15826e-05
4.62336e-05
2.64712e-05
0.00303636
0.00812542
0.000947838
0.000408036
0.000395277
0.000445503
0.000526521
0.000644301
0.000774206
0.000870013
0.000910279
0.00089167
0.000821171
0.000718333
0.00060056
0.000508169
0.000467939
0.000827731
0.000447066
0.000255496
0.000164381
0.000114858
8.57554e-05
7.23661e-05
0.000160982
0.000126995
0.000106754
9.33368e-05
8.27726e-05
7.29905e-05
6.42443e-05
5.56192e-05
4.63034e-05
2.82082e-05
1.88343e-05
7.45801e-05
3.64641e-05
0.00474011
0.0146164
0.00195717
0.000495476
0.000398303
0.000449271
0.000566239
0.000776087
0.000960503
0.00106173
0.00108585
0.00104304
0.000945535
0.000810222
0.000656407
0.000508465
0.000385266
0.000313525
0.000236141
0.000173536
0.00012785
9.66715e-05
7.64414e-05
6.51476e-05
6.47423e-05
6.28179e-05
6.07476e-05
5.83057e-05
5.49149e-05
5.02761e-05
4.53822e-05
4.07122e-05
3.64567e-05
2.99449e-05
2.34418e-05
5.32002e-05
4.16564e-05
7.18926e-05
0.000126302
0.000177074
0.00713002
0.0217037
0.00450994
0.000990524
0.000590303
0.000580502
0.000750509
0.00112513
0.00130918
0.00136305
0.00133698
0.00125228
0.00111626
0.000937917
0.000736917
0.000541335
0.000378543
0.000266209
0.000194009
0.000143837
0.000107787
8.39808e-05
7.00433e-05
6.37397e-05
6.33514e-05
6.54342e-05
6.76961e-05
6.88325e-05
6.77584e-05
6.34478e-05
5.57143e-05
4.74271e-05
3.98678e-05
3.32486e-05
2.90412e-05
3.9838e-05
4.21832e-05
5.34544e-05
0.000233372
0.000200043
0.00999171
0.0259088
0.00952362
0.00344131
0.00203806
0.00163076
0.00180767
0.00193853
0.00192287
0.00182967
0.00169983
0.00153753
0.00133474
0.00109281
0.000832065
0.000585281
0.000384501
0.000248638
0.000167224
0.000119266
9.00817e-05
7.40156e-05
6.73439e-05
6.72432e-05
7.15717e-05
7.79929e-05
8.474e-05
9.08374e-05
9.51583e-05
9.58272e-05
8.9385e-05
7.77516e-05
6.64003e-05
5.70202e-05
5.31328e-05
5.9689e-05
7.61925e-05
0.00012344
0.000295755
0.000283548
0.0106813
0.028947
0.0158095
0.0104244
0.00720157
0.00532048
0.00419052
0.00339575
0.00285078
0.00246911
0.00217022
0.00188864
0.00158437
0.0012494
0.000908829
0.000600944
0.00035966
0.000209353
0.000127445
9.19922e-05
7.52696e-05
6.88731e-05
6.91197e-05
7.3889e-05
8.18465e-05
9.19912e-05
0.000103788
0.000117209
0.000132337
0.000148931
0.000165736
0.000174151
0.000180136
0.000196824
0.000233627
0.000350168
0.000652546
0.00126043
0.00380883
0.00112189
0.00990396
0.0167971
0.0135035
0.0102106
0.00776369
0.0060362
0.00483208
0.00401899
0.00346084
0.00303658
0.00265072
0.00224414
0.00179754
0.00132549
0.000881883
0.000513596
0.000249268
0.000139092
9.19561e-05
7.25035e-05
6.54563e-05
6.51837e-05
6.91504e-05
7.61532e-05
8.56941e-05
9.76914e-05
0.000112477
0.000130857
0.000154141
0.000184217
0.000223645
0.000275831
0.000346932
0.000455641
0.000617685
0.000840038
0.00109675
0.00132203
0.0014924
0.000929791
0.00433868
0.00654494
0.00638098
0.00588267
0.00537559
0.00481521
0.00422017
0.00359728
0.0029453
0.0022769
0.0016191
0.000975919
0.000484883
0.000237095
0.000122668
7.85379e-05
6.1495e-05
5.5566e-05
5.4869e-05
5.71374e-05
6.14155e-05
6.73588e-05
7.49677e-05
8.4495e-05
9.64662e-05
0.00011175
0.000131676
0.000158232
0.00019439
0.00024503
0.000315173
0.000412068
0.000539622
0.00068663
0.000814421
0.000869865
0.0008223
0.000523994
0.00309328
0.00632557
0.00641005
0.00534391
0.00468754
0.00419934
0.00357764
0.00280233
0.00197946
0.00128165
0.000752261
0.000398125
0.0002041
0.000113997
7.66101e-05
6.33052e-05
5.93655e-05
5.90849e-05
6.04887e-05
6.3097e-05
6.68269e-05
7.17282e-05
7.79982e-05
8.59709e-05
9.61638e-05
0.000109377
0.000126845
0.000150448
0.000182941
0.000227741
0.00028954
0.000373165
0.000479443
0.000600246
0.000692259
0.000790411
0.000746992
0.000550946
0.00204995
0.00242985
0.00273277
0.00324132
0.00276108
0.00227436
0.00189105
0.00156001
0.0012941
0.00103051
0.000770134
0.000526723
0.000331058
0.000198914
0.000123101
8.44348e-05
6.60104e-05
5.78196e-05
5.50037e-05
5.53e-05
5.77223e-05
6.16434e-05
6.68056e-05
7.3303e-05
8.13266e-05
9.1155e-05
0.000103177
0.000117946
0.000136301
0.000159617
0.000189247
0.000226017
0.000272057
0.000330125
0.000403056
0.000503872
0.000542336
0.000504674
0.000416194
0.000334587
)
;

boundaryField
{
    floor
    {
        Cmu             0.09;
        kappa           0.41;
        E               9.8;
        type            epsilonWallFunction;
        value           nonuniform List<scalar> 
29
(
0.000582543
2.95639e-05
5.51598e-05
7.25001e-05
6.67069e-05
5.82373e-05
4.96841e-05
4.14042e-05
3.44326e-05
2.88378e-05
2.43788e-05
2.08055e-05
1.79302e-05
1.55889e-05
1.36427e-05
1.19781e-05
1.04859e-05
9.05086e-06
8.32233e-06
6.49623e-06
6.49623e-06
1.63994e-05
2.64712e-05
3.64641e-05
0.000582543
2.95639e-05
4.18784e-05
0.000352314
0.000827731
)
;
    }
    ceiling
    {
        Cmu             0.09;
        kappa           0.41;
        E               9.8;
        type            epsilonWallFunction;
        value           nonuniform List<scalar> 
43
(
0.00204995
0.00242985
0.00273277
0.00324132
0.00276108
0.00227436
0.00189105
0.00156001
0.0012941
0.00103051
0.000770134
0.000526723
0.000331058
0.000198914
0.000123101
8.44348e-05
6.60104e-05
5.78196e-05
5.50037e-05
5.53e-05
5.77223e-05
6.16434e-05
6.68056e-05
7.3303e-05
8.13266e-05
9.1155e-05
0.000103177
0.000117946
0.000136301
0.000159617
0.000189247
0.000226017
0.000272057
0.000330125
0.000403056
0.000503872
0.000542336
0.000504674
0.000416194
0.000334587
0.00990396
0.0167971
0.00309328
)
;
    }
    sWall
    {
        Cmu             0.09;
        kappa           0.41;
        E               9.8;
        type            epsilonWallFunction;
        value           uniform 0.00204995;
    }
    nWall
    {
        Cmu             0.09;
        kappa           0.41;
        E               9.8;
        type            epsilonWallFunction;
        value           nonuniform List<scalar> 6(0.000177074 0.000200043 0.000283548 0.000523994 0.000550946 0.000334587);
    }
    sideWalls
    {
        type            empty;
    }
    glass1
    {
        Cmu             0.09;
        kappa           0.41;
        E               9.8;
        type            epsilonWallFunction;
        value           nonuniform List<scalar> 9(0.000363557 0.000967075 0.00182261 0.00303636 0.00474011 0.00713002 0.00999171 0.0106813 0.00990396);
    }
    glass2
    {
        Cmu             0.09;
        kappa           0.41;
        E               9.8;
        type            epsilonWallFunction;
        value           nonuniform List<scalar> 2(0.00112189 0.000929791);
    }
    sun
    {
        Cmu             0.09;
        kappa           0.41;
        E               9.8;
        type            epsilonWallFunction;
        value           nonuniform List<scalar> 
14
(
0.000363557
0.000463743
0.000481437
0.000549902
0.000617896
0.000685063
0.000753493
0.00082695
0.000892067
0.000932308
0.000934669
0.000890654
0.000803214
0.000691777
)
;
    }
    heatsource1
    {
        Cmu             0.09;
        kappa           0.41;
        E               9.8;
        type            epsilonWallFunction;
        value           nonuniform List<scalar> 3(7.18926e-05 0.000126302 0.000177074);
    }
    heatsource2
    {
        Cmu             0.09;
        kappa           0.41;
        E               9.8;
        type            epsilonWallFunction;
        value           nonuniform List<scalar> 4(0.000604995 0.000173667 0.000173667 0.000544498);
    }
    Table_master
    {
        Cmu             0.09;
        kappa           0.41;
        E               9.8;
        type            epsilonWallFunction;
        value           nonuniform List<scalar> 9(0.000115498 8.25892e-05 6.10787e-05 4.66214e-05 3.66102e-05 2.94794e-05 2.42778e-05 2.04253e-05 1.75775e-05);
    }
    Table_slave
    {
        Cmu             0.09;
        kappa           0.41;
        E               9.8;
        type            epsilonWallFunction;
        value           nonuniform List<scalar> 9(0.000160982 0.000126995 0.000106754 9.33368e-05 8.27726e-05 7.29905e-05 6.42443e-05 5.56192e-05 4.63034e-05);
    }
    inlet
    {
        type            turbulentMixingLengthDissipationRateInlet;
        mixingLength    0.01;
        phi             phi;
        k               k;
        value           uniform 0.000101881;
    }
    outlet
    {
        type            zeroGradient;
    }
}


// ************************************************************************* //
