/*--------------------------------*- C++ -*----------------------------------*\
  =========                 |
  \\      /  F ield         | OpenFOAM: The Open Source CFD Toolbox
   \\    /   O peration     | Website:  https://openfoam.org
    \\  /    A nd           | Version:  6
     \\/     M anipulation  |
\*---------------------------------------------------------------------------*/
FoamFile
{
    version     2.0;
    format      ascii;
    class       volScalarField;
    location    "240";
    object      epsilon;
}
// * * * * * * * * * * * * * * * * * * * * * * * * * * * * * * * * * * * * * //

dimensions      [0 2 -3 0 0 0 0];

internalField   nonuniform List<scalar> 
459
(
0.00032921
0.000447943
0.000503665
0.000593282
0.000690093
0.000800968
0.000917525
0.00101437
0.00106798
0.00105641
0.000962846
0.000718291
0.000519804
0.000339241
0.00021834
4.66159e-05
0.000108686
0.000144404
0.000165321
0.000162275
0.000148354
0.000122775
9.89401e-05
8.01388e-05
6.57015e-05
5.45445e-05
4.58093e-05
3.89314e-05
3.33569e-05
2.86556e-05
2.44618e-05
2.04849e-05
1.53575e-05
1.21681e-05
0.000701869
0.000894627
0.000410943
0.000415716
0.000452375
0.00051882
0.000609177
0.000695381
0.000746147
0.000739985
0.000674352
0.000540086
0.000422167
0.000325426
0.000239559
0.000395031
0.000207383
0.000178167
0.000355325
0.000193314
0.000154254
0.000134216
0.000120765
0.000120645
9.81529e-05
7.72317e-05
6.07353e-05
4.81345e-05
3.8558e-05
3.12873e-05
2.57068e-05
2.15827e-05
1.92847e-05
2.11899e-05
1.94199e-05
2.29878e-05
0.00116515
0.00184393
0.000443604
0.000385167
0.00042915
0.000517332
0.000631453
0.000730081
0.000786493
0.000787121
0.000723968
0.00061106
0.000495488
0.000392771
0.000299775
0.000282289
0.000361421
0.000220277
0.000318379
0.00021764
0.000174892
0.000148913
0.000140351
0.000309103
0.000201823
0.000136862
9.66811e-05
7.0963e-05
5.39163e-05
4.23791e-05
3.45412e-05
2.94918e-05
2.25185e-05
2.2286e-05
2.56686e-05
3.13325e-05
0.00175876
0.00354352
0.000594738
0.000384324
0.000433552
0.000559861
0.000706562
0.000807371
0.00086254
0.000865086
0.000800136
0.00068691
0.000559593
0.000446804
0.000354922
0.000301472
0.000294581
0.000512175
0.000378783
0.000277099
0.000221848
0.000187765
0.00016343
0.000157975
0.000416719
0.000309479
0.000244368
0.000200447
0.000167488
0.000141728
0.000119616
9.91513e-05
7.88822e-05
4.49162e-05
3.10556e-05
4.35601e-05
4.52781e-05
0.00254483
0.0061838
0.00102442
0.000435921
0.000478723
0.00070756
0.000876863
0.000958327
0.00100111
0.000992354
0.000911974
0.000770682
0.000609123
0.000468692
0.000365549
0.000300952
0.000280278
0.000291359
0.00026856
0.000249935
0.000230552
0.000208274
0.000184004
0.000162542
0.000160643
0.000148446
0.000136146
0.000124071
0.000111709
9.90729e-05
8.59101e-05
7.255e-05
5.95717e-05
4.50737e-05
3.40556e-05
4.64147e-05
5.00083e-05
6.45301e-05
6.05669e-05
5.30692e-05
0.0036225
0.00930987
0.00218255
0.000730991
0.000700377
0.00109009
0.00118296
0.00120759
0.00121952
0.00118671
0.0010695
0.000876802
0.000661297
0.000479274
0.000355306
0.000289841
0.000273596
0.000282138
0.000286324
0.000281022
0.000264907
0.000239612
0.000209126
0.000178932
0.000156715
0.000142115
0.000131727
0.000121963
0.000111275
9.92466e-05
8.60326e-05
7.24527e-05
5.98538e-05
4.89996e-05
4.00704e-05
4.26996e-05
5.04248e-05
5.49001e-05
0.000135557
9.89757e-05
0.00485959
0.0113764
0.00463818
0.00218429
0.00194189
0.00181586
0.00166834
0.00158148
0.00153936
0.00145951
0.00127889
0.00100994
0.000722482
0.000493684
0.000352707
0.000293375
0.000290852
0.000311224
0.000324211
0.000319292
0.000298426
0.000266462
0.000229881
0.000195461
0.000169732
0.000154123
0.000144035
0.00013513
0.000125657
0.000115442
0.000104311
9.24767e-05
8.20432e-05
7.3755e-05
6.7856e-05
6.61748e-05
6.98536e-05
7.7706e-05
0.000219637
0.000162196
0.00518351
0.0130751
0.00726284
0.00492032
0.00364326
0.0027716
0.00228223
0.00206987
0.00197135
0.00181907
0.00153376
0.00115345
0.000774486
0.000508278
0.000370895
0.000330812
0.000341685
0.000364697
0.000374066
0.000361222
0.000331878
0.000294785
0.000257755
0.000226749
0.000205018
0.000191623
0.000182268
0.000173551
0.000164232
0.000155299
0.000149231
0.000148262
0.000151577
0.000161286
0.000184131
0.000215001
0.000263689
0.000332114
0.00134956
0.000306715
0.00486425
0.00817394
0.00618475
0.00466309
0.00357481
0.00291811
0.00264861
0.00259668
0.00252
0.00223899
0.00176079
0.00122955
0.000760684
0.000548633
0.000465719
0.000446574
0.000456203
0.000469034
0.000468602
0.000451738
0.000423509
0.000393043
0.000365984
0.000344944
0.000329902
0.000319253
0.000307871
0.000292086
0.000269688
0.000243082
0.000219324
0.000207488
0.000216466
0.000245243
0.000295977
0.000371657
0.000474583
0.000605025
0.000749788
0.000412813
0.00129672
0.00167235
0.00220792
0.0029472
0.00344664
0.00354286
0.00314695
0.00235787
0.00152475
0.00109613
0.000890652
0.000811849
0.000788911
0.000791885
0.00080384
0.000813786
0.000816692
0.000813799
0.000809029
0.000806148
0.00080658
0.000809029
0.000809774
0.000802941
0.000784238
0.000750007
0.000690435
0.000607145
0.00051542
0.000428005
0.000358977
0.000325724
0.000335827
0.000389666
0.000478518
0.000583155
0.000702902
0.000742761
0.000916822
0.00430626
0.00653366
0.00671151
0.00626183
0.00535848
0.00418371
0.00311767
0.00236457
0.0019713
0.00180029
0.00174884
0.00175042
0.00178191
0.00183453
0.0019006
0.00196886
0.00203062
0.00208369
0.00213143
0.0021784
0.0022272
0.00227725
0.00232316
0.00235198
0.00234388
0.00228209
0.00214938
0.0019374
0.0016637
0.0013655
0.00108452
0.000862014
0.000717234
0.000642136
0.000631247
0.00150943
0.00109621
0.00121364
0.00147595
0.00174754
0.00275247
0.00293783
0.00280932
0.00279066
0.00261305
0.00236022
0.00205632
0.00179338
0.00162156
0.00152732
0.00148271
0.00146753
0.00146728
0.00147149
0.0014731
0.00146948
0.00146167
0.00145223
0.00144314
0.00143491
0.00142653
0.00141545
0.00139779
0.00136915
0.00132572
0.00126393
0.00118405
0.00109155
0.000994144
0.000900315
0.000817819
0.000751213
0.000700297
0.000656988
0.000614014
0.000662566
0.000610843
)
;

boundaryField
{
    floor
    {
        Cmu             0.09;
        kappa           0.41;
        E               9.8;
        type            epsilonWallFunction;
        value           nonuniform List<scalar> 
29
(
0.00021834
4.66159e-05
0.000108686
0.000144404
0.000165321
0.000162275
0.000148354
0.000122775
9.89401e-05
8.01388e-05
6.57015e-05
5.45445e-05
4.58093e-05
3.89314e-05
3.33569e-05
2.86556e-05
2.44618e-05
2.04849e-05
1.53575e-05
1.21681e-05
1.21681e-05
2.29878e-05
3.13325e-05
4.52781e-05
0.00021834
4.66159e-05
0.000178167
0.000220277
0.000512175
)
;
    }
    ceiling
    {
        Cmu             0.09;
        kappa           0.41;
        E               9.8;
        type            epsilonWallFunction;
        value           nonuniform List<scalar> 
43
(
0.00121364
0.00147595
0.00174754
0.00275247
0.00293783
0.00280932
0.00279066
0.00261305
0.00236022
0.00205632
0.00179338
0.00162156
0.00152732
0.00148271
0.00146753
0.00146728
0.00147149
0.0014731
0.00146948
0.00146167
0.00145223
0.00144314
0.00143491
0.00142653
0.00141545
0.00139779
0.00136915
0.00132572
0.00126393
0.00118405
0.00109155
0.000994144
0.000900315
0.000817819
0.000751213
0.000700297
0.000656988
0.000614014
0.000662566
0.000610843
0.00486425
0.00817394
0.000916822
)
;
    }
    sWall
    {
        Cmu             0.09;
        kappa           0.41;
        E               9.8;
        type            epsilonWallFunction;
        value           uniform 0.00121364;
    }
    nWall
    {
        Cmu             0.09;
        kappa           0.41;
        E               9.8;
        type            epsilonWallFunction;
        value           nonuniform List<scalar> 6(5.30692e-05 9.89757e-05 0.000162196 0.000742761 0.00109621 0.000610843);
    }
    sideWalls
    {
        type            empty;
    }
    glass1
    {
        Cmu             0.09;
        kappa           0.41;
        E               9.8;
        type            epsilonWallFunction;
        value           nonuniform List<scalar> 9(0.00032921 0.000701869 0.00116515 0.00175876 0.00254483 0.0036225 0.00485959 0.00518351 0.00486425);
    }
    glass2
    {
        Cmu             0.09;
        kappa           0.41;
        E               9.8;
        type            epsilonWallFunction;
        value           nonuniform List<scalar> 2(0.000306715 0.000412813);
    }
    sun
    {
        Cmu             0.09;
        kappa           0.41;
        E               9.8;
        type            epsilonWallFunction;
        value           nonuniform List<scalar> 
14
(
0.00032921
0.000447943
0.000503665
0.000593282
0.000690093
0.000800968
0.000917525
0.00101437
0.00106798
0.00105641
0.000962846
0.000718291
0.000519804
0.000339241
)
;
    }
    heatsource1
    {
        Cmu             0.09;
        kappa           0.41;
        E               9.8;
        type            epsilonWallFunction;
        value           nonuniform List<scalar> 3(6.45301e-05 6.05669e-05 5.30692e-05);
    }
    heatsource2
    {
        Cmu             0.09;
        kappa           0.41;
        E               9.8;
        type            epsilonWallFunction;
        value           nonuniform List<scalar> 4(0.000395031 0.000207383 0.000207383 0.000361421);
    }
    Table_master
    {
        Cmu             0.09;
        kappa           0.41;
        E               9.8;
        type            epsilonWallFunction;
        value           nonuniform List<scalar> 9(0.000309103 0.000201823 0.000136862 9.66811e-05 7.0963e-05 5.39163e-05 4.23791e-05 3.45412e-05 2.94918e-05);
    }
    Table_slave
    {
        Cmu             0.09;
        kappa           0.41;
        E               9.8;
        type            epsilonWallFunction;
        value           nonuniform List<scalar> 9(0.000416719 0.000309479 0.000244368 0.000200447 0.000167488 0.000141728 0.000119616 9.91513e-05 7.88822e-05);
    }
    inlet
    {
        type            turbulentMixingLengthDissipationRateInlet;
        mixingLength    0.01;
        phi             phi;
        k               k;
        value           uniform 0.000101881;
    }
    outlet
    {
        type            zeroGradient;
    }
}


// ************************************************************************* //
