// -*- C++ -*-
// File generated by PyFoam - sorry for the ugliness

FoamFile
{
 version 2.0;
 format ascii;
 class volVectorField;
 location "240";
 object U;
}

dimensions [ 0 1 -1 0 0 0 0 ];

internalField nonuniform List<vector> 459
(
  (0.00908605 0.0705064 0)
  (-0.139497 0.0239578 0)
  (-0.16724 0.0135162 0)
  (-0.19207 0.00546908 0)
  (-0.204672 -0.00307153 0)
  (-0.202793 -0.0122183 0)
  (-0.185331 -0.0221945 0)
  (-0.153519 -0.0317524 0)
  (-0.111212 -0.0388293 0)
  (-0.0648285 -0.0418262 0)
  (-0.02072 -0.0394394 0)
  (0.0218742 -0.0249786 0)
  (0.0396978 -0.0118753 0)
  (0.0433654 0.00385869 0)
  (0.0619801 0.0294909 0)
  (-0.10192 0.0062415 0)
  (0.0210649 0.00339855 0)
  (-0.000529048 -0.0105821 0)
  (0.0196441 -0.0179109 0)
  (0.0371888 -0.0160708 0)
  (0.0531201 -0.0120777 0)
  (0.0641786 -0.00708787 0)
  (0.0702277 -0.00424921 0)
  (0.0727774 -0.00316523 0)
  (0.0738222 -0.00273122 0)
  (0.0743916 -0.00243513 0)
  (0.0746342 -0.00214447 0)
  (0.074363 -0.00172339 0)
  (0.0731894 -0.000925725 0)
  (0.0702324 0.00079624 0)
  (0.0637107 0.00436296 0)
  (0.0521018 0.00979749 0)
  (0.00920824 0.02056 0)
  (0.0868171 0.00496454 0)
  (0.134669 0.144591 0)
  (-0.125554 0.0647237 0)
  (-0.135227 0.0463348 0)
  (-0.160811 0.0299778 0)
  (-0.173978 0.0111723 0)
  (-0.173226 -0.0104073 0)
  (-0.157487 -0.0335613 0)
  (-0.128902 -0.0540808 0)
  (-0.0919542 -0.0672338 0)
  (-0.0527911 -0.0704741 0)
  (-0.0170076 -0.0631554 0)
  (0.0152158 -0.0429406 0)
  (0.0350648 -0.0207309 0)
  (0.0482731 0.0028945 0)
  (0.0621182 0.0293565 0)
  (0.0605603 0.0333896 0)
  (0.0410749 0.0379209 0)
  (-0.123739 0.00398695 0)
  (0.0286356 -0.0119257 0)
  (0.0280191 -0.02408 0)
  (0.0405196 -0.0286505 0)
  (0.053408 -0.0255579 0)
  (0.0640893 -0.018991 0)
  (0.0695956 -0.00828269 0)
  (0.0709536 -0.00183166 0)
  (0.0709126 0.000644392 0)
  (0.0710402 0.00158076 0)
  (0.0713608 0.00213404 0)
  (0.0716159 0.00266104 0)
  (0.0716847 0.00339735 0)
  (0.0714993 0.0048627 0)
  (0.0704613 0.00822951 0)
  (0.0658152 0.0167757 0)
  (0.0565111 0.0262891 0)
  (0.0113812 0.0393101 0)
  (0.139219 0.0260946 0)
  (0.251621 0.216168 0)
  (-0.130941 0.10039 0)
  (-0.102968 0.0735617 0)
  (-0.127706 0.0461804 0)
  (-0.140382 0.0153697 0)
  (-0.13951 -0.0195592 0)
  (-0.123509 -0.0560903 0)
  (-0.0965284 -0.0867038 0)
  (-0.0641264 -0.10391 0)
  (-0.0318421 -0.105203 0)
  (-0.00317569 -0.0912332 0)
  (0.0204731 -0.0655451 0)
  (0.0380422 -0.0370912 0)
  (0.0505 -0.00842969 0)
  (0.0590675 0.01955 0)
  (0.0584527 0.0386347 0)
  (0.0484731 0.070117 0)
  (-0.095966 -0.013177 0)
  (0.0459409 -0.0366876 0)
  (0.0552106 -0.0430573 0)
  (0.061626 -0.0413432 0)
  (0.0682697 -0.035572 0)
  (0.074178 -0.0294752 0)
  (0.075563 -0.0220246 0)
  (0.0687425 -0.0142578 0)
  (0.0633258 -0.0101491 0)
  (0.0611481 -0.00789346 0)
  (0.0604695 -0.00645481 0)
  (0.0602315 -0.00541645 0)
  (0.0604982 -0.00439322 0)
  (0.0620449 -0.00280741 0)
  (0.0666933 0.00184646 0)
  (0.0671168 0.021988 0)
  (0.0609565 0.037903 0)
  (0.0123664 0.056204 0)
  (0.170016 0.0565234 0)
  (0.360742 0.273792 0)
  (-0.150486 0.130467 0)
  (-0.0689289 0.0974983 0)
  (-0.0917862 0.0615278 0)
  (-0.101851 0.020826 0)
  (-0.0975838 -0.0274133 0)
  (-0.0789474 -0.0776472 0)
  (-0.0536554 -0.116692 0)
  (-0.0272656 -0.135655 0)
  (-0.00314754 -0.133747 0)
  (0.017106 -0.114204 0)
  (0.0332519 -0.0846427 0)
  (0.0464302 -0.0514824 0)
  (0.0568241 -0.0186694 0)
  (0.0661613 0.012363 0)
  (0.0765976 0.0388249 0)
  (0.091256 0.0675764 0)
  (0.118669 0.00693541 0)
  (0.109812 -0.0127512 0)
  (0.100955 -0.0331063 0)
  (0.0894356 -0.0415833 0)
  (0.0812634 -0.0407438 0)
  (0.0761295 -0.0353597 0)
  (0.0717494 -0.027329 0)
  (0.0721128 -0.0162104 0)
  (0.0794463 -0.010542 0)
  (0.0847059 -0.00743549 0)
  (0.0868294 -0.00555997 0)
  (0.0873155 -0.00411811 0)
  (0.0864664 -0.00265638 0)
  (0.0838615 -0.000860529 0)
  (0.0782668 0.00176716 0)
  (0.066948 0.00593565 0)
  (0.0585164 0.0275624 0)
  (0.0604046 0.0459941 0)
  (0.0186749 0.0675842 0)
  (0.188977 0.0999801 0)
  (0.459728 0.317776 0)
  (-0.17917 0.153069 0)
  (-0.0345755 0.112158 0)
  (-0.0532858 0.071156 0)
  (-0.0581507 0.0235091 0)
  (-0.0433333 -0.0376699 0)
  (-0.0212883 -0.099086 0)
  (-2.27855e-05 -0.141633 0)
  (0.0175743 -0.158016 0)
  (0.0307464 -0.151611 0)
  (0.0408145 -0.12892 0)
  (0.0485975 -0.0965529 0)
  (0.0548477 -0.0610435 0)
  (0.0604999 -0.0270313 0)
  (0.0676184 0.00312719 0)
  (0.0773986 0.0264227 0)
  (0.0925509 0.0376762 0)
  (0.105654 0.0104529 0)
  (0.104708 -0.00950734 0)
  (0.0956031 -0.0244096 0)
  (0.08489 -0.0314099 0)
  (0.0749543 -0.0319134 0)
  (0.066639 -0.0281856 0)
  (0.0601469 -0.0211826 0)
  (0.0573825 -0.0106502 0)
  (0.0580982 -0.00442911 0)
  (0.0589411 -0.00166049 0)
  (0.0591543 -0.000246207 0)
  (0.059236 0.00109793 0)
  (0.0593651 0.0029665 0)
  (0.0591403 0.00586142 0)
  (0.0581344 0.010406 0)
  (0.0558723 0.0174256 0)
  (0.0547953 0.0308841 0)
  (0.0636859 0.0455046 0)
  (0.0496278 0.060258 0)
  (0.133188 0.096422 0)
  (0.123052 0.0774146 0)
  (0.105543 0.0566277 0)
  (-0.120322 0.0583169 0)
  (0.537625 0.353096 0)
  (-0.211408 0.166104 0)
  (-0.00597672 0.110915 0)
  (-0.0125343 0.0734698 0)
  (-0.00786196 0.0205583 0)
  (0.0262955 -0.0586644 0)
  (0.0470777 -0.120031 0)
  (0.0600897 -0.156776 0)
  (0.0662194 -0.168301 0)
  (0.0672725 -0.158297 0)
  (0.0652046 -0.132831 0)
  (0.0617597 -0.0989061 0)
  (0.0583877 -0.0629204 0)
  (0.0564744 -0.0299562 0)
  (0.0576541 -0.00296962 0)
  (0.0627511 0.0157118 0)
  (0.0724507 0.0216415 0)
  (0.0790846 0.00887576 0)
  (0.0779949 -0.0057165 0)
  (0.0711973 -0.0162563 0)
  (0.0621748 -0.021782 0)
  (0.0527822 -0.0227423 0)
  (0.0441377 -0.0202556 0)
  (0.0370854 -0.0151979 0)
  (0.0327097 -0.00860776 0)
  (0.0310322 -0.00434568 0)
  (0.0306411 -0.00243851 0)
  (0.030907 -0.0015727 0)
  (0.0318379 -0.000701292 0)
  (0.0336962 0.000946844 0)
  (0.0361038 0.00401345 0)
  (0.038887 0.00902012 0)
  (0.0419099 0.016295 0)
  (0.0461753 0.0262817 0)
  (0.0559622 0.0364643 0)
  (0.0556146 0.0406521 0)
  (0.0847661 0.0582683 0)
  (0.0834581 0.0473836 0)
  (0.0986656 0.0463244 0)
  (-0.131293 0.0839762 0)
  (0.592229 0.383791 0)
  (-0.230312 0.151374 0)
  (0.0226502 0.0699568 0)
  (0.0426234 0.046363 0)
  (0.075486 -0.0121115 0)
  (0.106593 -0.0835683 0)
  (0.122059 -0.13548 0)
  (0.124159 -0.162481 0)
  (0.116044 -0.166233 0)
  (0.101436 -0.151148 0)
  (0.083951 -0.123237 0)
  (0.0666853 -0.0891989 0)
  (0.0518739 -0.0547464 0)
  (0.0412085 -0.0248947 0)
  (0.0357089 -0.00227982 0)
  (0.0360113 0.0115841 0)
  (0.0409881 0.015153 0)
  (0.0443274 0.00787376 0)
  (0.0432209 -0.00185211 0)
  (0.0381544 -0.00932737 0)
  (0.0306366 -0.0134263 0)
  (0.0222788 -0.0142835 0)
  (0.0142689 -0.0126592 0)
  (0.00763206 -0.0094105 0)
  (0.00330616 -0.00563427 0)
  (0.00138571 -0.00327073 0)
  (0.00104133 -0.00250777 0)
  (0.0017166 -0.00257764 0)
  (0.00329196 -0.00270235 0)
  (0.00588602 -0.00215884 0)
  (0.0100709 -0.000102976 0)
  (0.0160592 0.00421929 0)
  (0.0227174 0.0105273 0)
  (0.0306085 0.0182564 0)
  (0.0408088 0.0259251 0)
  (0.0459397 0.0297669 0)
  (0.0593376 0.0421645 0)
  (0.0646055 0.0493332 0)
  (0.108689 0.0662202 0)
  (-0.109919 0.133183 0)
  (0.684956 0.380655 0)
  (-0.0478386 0.122732 0)
  (0.0921029 -0.00886209 0)
  (0.152635 -0.0555058 0)
  (0.193245 -0.0875632 0)
  (0.209276 -0.119107 0)
  (0.206189 -0.14267 0)
  (0.187328 -0.151783 0)
  (0.157434 -0.145301 0)
  (0.122228 -0.125627 0)
  (0.0866958 -0.0971825 0)
  (0.0548713 -0.0657255 0)
  (0.029333 -0.0358013 0)
  (0.0120161 -0.0121716 0)
  (0.0023727 0.0035781 0)
  (0.00147056 0.0112891 0)
  (0.00430993 0.0123002 0)
  (0.00613845 0.00746865 0)
  (0.00473696 0.00123553 0)
  (0.000923384 -0.00364623 0)
  (-0.00544278 -0.0062039 0)
  (-0.0124755 -0.00671294 0)
  (-0.0190687 -0.00586916 0)
  (-0.0243186 -0.0043998 0)
  (-0.0276418 -0.00307293 0)
  (-0.0291395 -0.00265804 0)
  (-0.0294006 -0.00319463 0)
  (-0.0288782 -0.00430537 0)
  (-0.0277606 -0.0055326 0)
  (-0.0260301 -0.00647082 0)
  (-0.0233281 -0.00667786 0)
  (-0.0188958 -0.00558219 0)
  (-0.0109983 -0.00260151 0)
  (-0.000589713 0.00181565 0)
  (0.0100483 0.00634035 0)
  (0.0162846 0.00860075 0)
  (0.0252259 0.0156397 0)
  (0.0318449 0.0217877 0)
  (0.108732 0.0743143 0)
  (-0.358933 0.197753 0)
  (0.811418 0.367194 0)
  (0.388801 0.254823 0)
  (0.400047 0.173694 0)
  (0.419162 0.0932692 0)
  (0.391413 0.0204109 0)
  (0.34161 -0.0404501 0)
  (0.285592 -0.0801599 0)
  (0.225819 -0.0967368 0)
  (0.165035 -0.0940421 0)
  (0.107518 -0.0779496 0)
  (0.0566988 -0.0543659 0)
  (0.0158861 -0.0299097 0)
  (-0.0138303 -0.00824579 0)
  (-0.0290857 0.00393793 0)
  (-0.0350526 0.00982128 0)
  (-0.0354223 0.0120545 0)
  (-0.0338327 0.0116532 0)
  (-0.033094 0.00892325 0)
  (-0.0346103 0.00553905 0)
  (-0.0380319 0.00285687 0)
  (-0.0425952 0.0013002 0)
  (-0.0475567 0.000618542 0)
  (-0.0520789 0.000394754 0)
  (-0.0556089 0.000238705 0)
  (-0.057948 -0.000177429 0)
  (-0.0593676 -0.00107981 0)
  (-0.0602701 -0.00246077 0)
  (-0.0610612 -0.00410932 0)
  (-0.0621165 -0.00571864 0)
  (-0.063916 -0.00692613 0)
  (-0.066986 -0.00716402 0)
  (-0.0719607 -0.00541855 0)
  (-0.07959 -0.000212979 0)
  (-0.0893334 0.00889758 0)
  (-0.102938 0.022617 0)
  (-0.125084 0.0421943 0)
  (-0.154798 0.0685447 0)
  (-0.193078 0.097996 0)
  (-0.254512 0.123113 0)
  (-0.494052 0.131192 0)
  (0.143135 -0.00405344 0)
  (0.200174 -0.0140494 0)
  (0.21539 -0.0470078 0)
  (0.188183 -0.0617733 0)
  (0.149828 -0.0617696 0)
  (0.105095 -0.0541479 0)
  (0.0578909 -0.0414309 0)
  (0.0120606 -0.0241585 0)
  (-0.027785 -0.00519019 0)
  (-0.0523838 0.00635443 0)
  (-0.0660017 0.0129298 0)
  (-0.0708828 0.0155977 0)
  (-0.0719742 0.0167847 0)
  (-0.071145 0.0171656 0)
  (-0.0698679 0.0168906 0)
  (-0.0693547 0.0159353 0)
  (-0.0701564 0.0147837 0)
  (-0.0720382 0.0139342 0)
  (-0.074454 0.0135816 0)
  (-0.0769178 0.0135936 0)
  (-0.0791392 0.0137807 0)
  (-0.0810449 0.0140467 0)
  (-0.082715 0.014363 0)
  (-0.0843036 0.0147262 0)
  (-0.0861024 0.0152562 0)
  (-0.088333 0.0160499 0)
  (-0.0910557 0.0177836 0)
  (-0.0942957 0.0205828 0)
  (-0.0981403 0.0238535 0)
  (-0.102497 0.0275097 0)
  (-0.106772 0.0316402 0)
  (-0.110947 0.0376914 0)
  (-0.114659 0.0474772 0)
  (-0.117305 0.062802 0)
  (-0.116537 0.0831265 0)
  (-0.109217 0.0964501 0)
  (-0.097465 0.064669 0)
  (-0.138204 -0.16338 0)
  (0.0314926 0.103896 0)
  (0.0354292 0.0228678 0)
  (0.0174663 -0.031481 0)
  (0.012542 -0.0514651 0)
  (-0.0123205 -0.0531275 0)
  (-0.0390141 -0.0532924 0)
  (-0.0648323 -0.051609 0)
  (-0.0844318 -0.0510633 0)
  (-0.0959522 -0.0524626 0)
  (-0.100856 -0.0552518 0)
  (-0.102553 -0.0581554 0)
  (-0.102024 -0.0608318 0)
  (-0.100377 -0.0626293 0)
  (-0.0980996 -0.0639723 0)
  (-0.0956785 -0.0655522 0)
  (-0.0936087 -0.0678715 0)
  (-0.092179 -0.0708325 0)
  (-0.0913743 -0.0740363 0)
  (-0.0910094 -0.0771519 0)
  (-0.0908954 -0.080097 0)
  (-0.0909299 -0.0829642 0)
  (-0.0911096 -0.0859174 0)
  (-0.0915128 -0.0891416 0)
  (-0.0922835 -0.0927763 0)
  (-0.0935957 -0.0967848 0)
  (-0.0956176 -0.100891 0)
  (-0.0983365 -0.104976 0)
  (-0.101402 -0.108161 0)
  (-0.104365 -0.108718 0)
  (-0.106659 -0.10511 0)
  (-0.107306 -0.0960127 0)
  (-0.104675 -0.0804369 0)
  (-0.096323 -0.0585837 0)
  (-0.0795203 -0.0321208 0)
  (-0.0532355 -0.00617744 0)
  (-0.018766 0.00292885 0)
  (0.0766911 -0.0946726 0)
  (-0.0931014 -0.151051 0)
  (-0.0369637 -0.241997 0)
  (-0.291442 -0.0440535 0)
  (-0.219632 0.173976 0)
  (-0.184617 0.170228 0)
  (-0.159755 0.178367 0)
  (-0.155146 0.186223 0)
  (-0.1576 0.188006 0)
  (-0.160629 0.193217 0)
  (-0.159957 0.200226 0)
  (-0.156241 0.210527 0)
  (-0.150207 0.221655 0)
  (-0.143288 0.231212 0)
  (-0.13663 0.238754 0)
  (-0.130661 0.24434 0)
  (-0.125369 0.248347 0)
  (-0.120482 0.251647 0)
  (-0.115897 0.255013 0)
  (-0.111717 0.25881 0)
  (-0.108113 0.262907 0)
  (-0.105173 0.26696 0)
  (-0.102891 0.270708 0)
  (-0.101213 0.274102 0)
  (-0.100082 0.277279 0)
  (-0.0994466 0.280496 0)
  (-0.0992597 0.28407 0)
  (-0.0994734 0.288302 0)
  (-0.0999931 0.293359 0)
  (-0.100617 0.299213 0)
  (-0.101103 0.305922 0)
  (-0.101162 0.312798 0)
  (-0.100301 0.318404 0)
  (-0.0977584 0.321607 0)
  (-0.0923938 0.321631 0)
  (-0.0825941 0.318305 0)
  (-0.066862 0.312986 0)
  (-0.0453662 0.30876 0)
  (-0.0202115 0.310658 0)
  (0.0169811 0.319742 0)
  (0.109388 0.383624 0)
  (-0.252538 0.396665 0)
)
;

boundaryField
{
  floor
  {
    type noSlip;
  }
  ceiling
  {
    type noSlip;
  }
  sWall
  {
    type noSlip;
  }
  nWall
  {
    type noSlip;
  }
  sideWalls
  {
    type empty;
  }
  glass1
  {
    type noSlip;
  }
  glass2
  {
    type noSlip;
  }
  sun
  {
    type noSlip;
  }
  heatsource1
  {
    type noSlip;
  }
  heatsource2
  {
    type noSlip;
  }
  Table_master
  {
    type noSlip;
  }
  Table_slave
  {
    type noSlip;
  }
  inlet
  {
    type fixedValue;
    value uniform (0.277164 -0.114805 0);
  }
  outlet
  {
    type zeroGradient;
  }
} 	// ************************************************************************* //

