// -*- C++ -*-
// File generated by PyFoam - sorry for the ugliness

FoamFile
{
 version 2.0;
 format ascii;
 class volVectorField;
 location "550";
 object U;
}

dimensions [ 0 1 -1 0 0 0 0 ];

internalField nonuniform List<vector> 459
(
  (-0.0571499 6.04171e-05 0)
  (-0.00281766 0.00815078 0)
  (-0.0256977 -0.0109693 0)
  (0.00793917 -0.0440773 0)
  (0.0521815 -0.0407294 0)
  (0.0900859 -0.0307383 0)
  (0.118976 -0.0212982 0)
  (0.136584 -0.0138424 0)
  (0.144404 -0.00823544 0)
  (0.144715 -0.00382613 0)
  (0.139171 0.000144841 0)
  (0.128573 0.00427647 0)
  (0.112198 0.00966028 0)
  (0.0851536 0.0198837 0)
  (0.0817761 0.0469261 0)
  (-0.107336 0.00150219 0)
  (0.0318547 0.00582073 0)
  (0.00421592 -0.00934984 0)
  (0.0195561 -0.0137053 0)
  (0.0335088 -0.0112103 0)
  (0.0445406 -0.00773878 0)
  (0.0515492 -0.00482521 0)
  (0.0553871 -0.00328603 0)
  (0.0574218 -0.00264667 0)
  (0.0587404 -0.00233964 0)
  (0.059756 -0.00211652 0)
  (0.0604658 -0.00188585 0)
  (0.060696 -0.00154366 0)
  (0.0600384 -0.000850858 0)
  (0.0577165 0.000627293 0)
  (0.0522588 0.00362449 0)
  (0.0437844 0.00802471 0)
  (-0.00724945 0.0184528 0)
  (0.104277 -0.000266064 0)
  (-0.0902104 0.00941225 0)
  (0.00633233 0.0199771 0)
  (-0.0119052 -0.00409453 0)
  (0.0153471 -0.0645703 0)
  (0.0466269 -0.0651247 0)
  (0.0770554 -0.0483658 0)
  (0.0997937 -0.0302366 0)
  (0.113189 -0.0152735 0)
  (0.118756 -0.00376661 0)
  (0.118279 0.00515073 0)
  (0.113407 0.0125173 0)
  (0.10543 0.01947 0)
  (0.0954001 0.0274082 0)
  (0.0834331 0.0385439 0)
  (0.0839411 0.0592901 0)
  (0.0759471 0.0532343 0)
  (0.0467622 0.0464473 0)
  (-0.13697 0.000582335 0)
  (0.0373693 -0.00823444 0)
  (0.0264031 -0.0199197 0)
  (0.0356715 -0.0223429 0)
  (0.0457431 -0.017525 0)
  (0.0526353 -0.0109039 0)
  (0.0554587 -0.00489792 0)
  (0.0560696 -0.00156134 0)
  (0.0561487 -0.000167797 0)
  (0.0563696 0.000483976 0)
  (0.056671 0.000946977 0)
  (0.0569164 0.00146169 0)
  (0.057066 0.0023183 0)
  (0.0569553 0.00387315 0)
  (0.0560668 0.00705748 0)
  (0.0519333 0.0146071 0)
  (0.0456693 0.0221324 0)
  (-0.00656997 0.0332161 0)
  (0.15464 0.0193569 0)
  (-0.11144 0.0155614 0)
  (0.0118986 0.0222181 0)
  (-0.00801802 -0.0160325 0)
  (0.0142593 -0.0912797 0)
  (0.03761 -0.0952354 0)
  (0.0609315 -0.0725793 0)
  (0.0774607 -0.0462474 0)
  (0.086066 -0.0243634 0)
  (0.0887217 -0.00777341 0)
  (0.0870932 0.0051367 0)
  (0.0832816 0.0157368 0)
  (0.0785671 0.0251471 0)
  (0.0738547 0.0346181 0)
  (0.0688245 0.0451843 0)
  (0.0678451 0.0586652 0)
  (0.0599529 0.0572504 0)
  (0.0450646 0.0713205 0)
  (-0.144297 -0.00207758 0)
  (0.0521455 -0.0353454 0)
  (0.0481409 -0.038047 0)
  (0.0526442 -0.0330437 0)
  (0.0579869 -0.0245487 0)
  (0.0610386 -0.0161289 0)
  (0.0591871 -0.0131929 0)
  (0.0544969 -0.00962771 0)
  (0.0509504 -0.00772153 0)
  (0.0490087 -0.00665639 0)
  (0.0478317 -0.00597625 0)
  (0.0469969 -0.0054547 0)
  (0.046628 -0.00482671 0)
  (0.047574 -0.00349133 0)
  (0.0515199 0.00051164 0)
  (0.0507078 0.0180908 0)
  (0.046617 0.0307169 0)
  (-0.0087367 0.0440292 0)
  (0.184032 0.0424439 0)
  (-0.128568 0.0230004 0)
  (0.0152327 0.0241268 0)
  (-0.0100058 -0.0273629 0)
  (0.011093 -0.112976 0)
  (0.0273753 -0.117799 0)
  (0.0435488 -0.0890017 0)
  (0.0538947 -0.054584 0)
  (0.0572027 -0.0266023 0)
  (0.0562999 -0.00621099 0)
  (0.0533868 0.00861969 0)
  (0.0511603 0.0195896 0)
  (0.0499907 0.0285426 0)
  (0.0500245 0.0369911 0)
  (0.0508712 0.0458409 0)
  (0.055393 0.0566612 0)
  (0.062453 0.0631253 0)
  (0.0719158 0.0774635 0)
  (0.0928888 -0.0293151 0)
  (0.0854651 -0.0276939 0)
  (0.0836612 -0.039342 0)
  (0.0743169 -0.040265 0)
  (0.0684959 -0.0340307 0)
  (0.0658371 -0.0250076 0)
  (0.0644339 -0.014658 0)
  (0.0655955 -0.00853481 0)
  (0.0676447 -0.00554818 0)
  (0.0670861 -0.00358794 0)
  (0.0641306 -0.00223024 0)
  (0.0597331 -0.00118758 0)
  (0.0543407 -0.000301408 0)
  (0.0479106 0.000578832 0)
  (0.0399859 0.00168888 0)
  (0.025641 0.00372791 0)
  (0.0260217 0.0251749 0)
  (0.0354896 0.0365338 0)
  (-0.0133408 0.0479298 0)
  (0.203058 0.0727282 0)
  (-0.145154 0.0309089 0)
  (0.019587 0.0286674 0)
  (-0.0122093 -0.0399784 0)
  (0.00921466 -0.128832 0)
  (0.0185956 -0.133044 0)
  (0.027072 -0.0985664 0)
  (0.0314165 -0.0565729 0)
  (0.0294007 -0.02403 0)
  (0.0247927 -0.00220943 0)
  (0.0217511 0.0115159 0)
  (0.0219005 0.0204481 0)
  (0.0241459 0.0275516 0)
  (0.0281737 0.0342951 0)
  (0.0338776 0.0412449 0)
  (0.0432581 0.0491514 0)
  (0.056314 0.0539547 0)
  (0.0731824 0.054568 0)
  (0.0892055 0.0129781 0)
  (0.09024 -0.00833341 0)
  (0.082074 -0.0247867 0)
  (0.072346 -0.0297456 0)
  (0.0638516 -0.0265903 0)
  (0.0572014 -0.0197148 0)
  (0.0522284 -0.0114375 0)
  (0.0489209 -0.00320948 0)
  (0.0459015 0.00214677 0)
  (0.0422434 0.00514392 0)
  (0.037825 0.00694922 0)
  (0.0330265 0.00829823 0)
  (0.0279805 0.00956122 0)
  (0.0226696 0.0110004 0)
  (0.0173176 0.0128469 0)
  (0.0102082 0.0151885 0)
  (0.0103125 0.0241252 0)
  (0.0276674 0.031491 0)
  (0.000636845 0.0357651 0)
  (0.108465 0.0695352 0)
  (0.0827943 0.062307 0)
  (-0.0804938 0.0541894 0)
  (0.283169 -0.0081181 0)
  (-0.164682 0.0376444 0)
  (0.0292014 0.0359207 0)
  (-0.0078807 -0.0567132 0)
  (0.0119693 -0.140279 0)
  (0.0149553 -0.141777 0)
  (0.014702 -0.101894 0)
  (0.0128834 -0.0527288 0)
  (0.00614015 -0.017467 0)
  (-0.000993562 0.00284177 0)
  (-0.00208932 0.0121402 0)
  (-0.000293525 0.017919 0)
  (0.00394364 0.0229331 0)
  (0.0100951 0.0277874 0)
  (0.0181545 0.0324046 0)
  (0.0290889 0.0365153 0)
  (0.0428215 0.0368818 0)
  (0.059722 0.0303837 0)
  (0.0706784 0.00722991 0)
  (0.0709143 -0.0112272 0)
  (0.0642211 -0.020677 0)
  (0.0549865 -0.0223628 0)
  (0.0455001 -0.0188461 0)
  (0.0370258 -0.0127481 0)
  (0.0300562 -0.00563057 0)
  (0.024147 0.00140772 0)
  (0.0198399 0.00604849 0)
  (0.0160606 0.00868579 0)
  (0.0122415 0.0104314 0)
  (0.00831846 0.0119492 0)
  (0.00433028 0.0135307 0)
  (0.00046103 0.0152934 0)
  (-0.00251039 0.0169328 0)
  (-0.00494276 0.0174815 0)
  (-0.00308652 0.0174676 0)
  (0.0122316 0.0181603 0)
  (-0.00573826 0.00992349 0)
  (0.0392615 0.0419071 0)
  (0.0405449 0.0534508 0)
  (-0.100917 0.0562557 0)
  (0.268207 -0.0223684 0)
  (-0.180065 0.0433083 0)
  (0.0419114 0.0467697 0)
  (0.0106317 -0.0831064 0)
  (0.023704 -0.148253 0)
  (0.0202557 -0.14285 0)
  (0.0092126 -0.0977391 0)
  (-0.000284598 -0.0426999 0)
  (-0.0104653 -0.00906502 0)
  (-0.0166504 0.00507101 0)
  (-0.0174677 0.0106856 0)
  (-0.0155101 0.0139501 0)
  (-0.0112508 0.0167922 0)
  (-0.00509536 0.0195778 0)
  (0.00339193 0.0220586 0)
  (0.013646 0.0234068 0)
  (0.0254788 0.0216539 0)
  (0.0378837 0.01524 0)
  (0.0440698 0.00244385 0)
  (0.0430582 -0.00776783 0)
  (0.0367022 -0.0127444 0)
  (0.0277439 -0.0129271 0)
  (0.0183601 -0.00968522 0)
  (0.00986765 -0.0045822 0)
  (0.00234665 0.0012996 0)
  (-0.00273642 0.00644286 0)
  (-0.00584851 0.00968272 0)
  (-0.00848612 0.0118493 0)
  (-0.0110288 0.0135766 0)
  (-0.0135095 0.0151244 0)
  (-0.0157017 0.0164657 0)
  (-0.0171303 0.0173149 0)
  (-0.0172193 0.017046 0)
  (-0.0160556 0.0147992 0)
  (-0.0128673 0.0108781 0)
  (-0.00679554 0.00845888 0)
  (-0.0151834 0.00614017 0)
  (0.00580622 0.0334622 0)
  (0.0225594 0.0658771 0)
  (-0.130641 0.0685036 0)
  (0.314927 -0.029508 0)
  (-0.198302 -0.0559625 0)
  (0.0468977 0.0023847 0)
  (0.0491782 -0.111259 0)
  (0.0512145 -0.148649 0)
  (0.0374745 -0.131238 0)
  (0.0104549 -0.0820404 0)
  (-0.0102237 -0.026132 0)
  (-0.0228389 -0.000265077 0)
  (-0.0290035 0.00801799 0)
  (-0.0301172 0.0100335 0)
  (-0.0284969 0.0108099 0)
  (-0.0249371 0.0116298 0)
  (-0.0198485 0.0125451 0)
  (-0.0133487 0.0132932 0)
  (-0.00575285 0.0134593 0)
  (0.00263227 0.0119403 0)
  (0.00961058 0.00818956 0)
  (0.0117201 0.00202101 0)
  (0.00953644 -0.0029342 0)
  (0.00351008 -0.00493683 0)
  (-0.00466593 -0.00382558 0)
  (-0.012726 -0.000728447 0)
  (-0.0194465 0.0030122 0)
  (-0.0237484 0.00648771 0)
  (-0.0263233 0.00947345 0)
  (-0.0278693 0.0118326 0)
  (-0.0289808 0.0137778 0)
  (-0.0298044 0.015387 0)
  (-0.0302444 0.0165964 0)
  (-0.0300277 0.0171926 0)
  (-0.0288028 0.0168221 0)
  (-0.0263674 0.0150672 0)
  (-0.0229758 0.0117769 0)
  (-0.0189052 0.00798642 0)
  (-0.0146643 0.00618196 0)
  (-0.0134685 0.00804185 0)
  (-0.00106589 0.0272894 0)
  (0.0321397 0.0663392 0)
  (-0.115442 0.0603537 0)
  (0.530185 0.00638408 0)
  (-0.220381 0.305602 0)
  (0.0567436 0.219341 0)
  (0.110488 -0.103202 0)
  (0.0975989 -0.127319 0)
  (0.062624 -0.0985751 0)
  (0.00869125 -0.0477481 0)
  (-0.0259162 -0.000353301 0)
  (-0.0391355 0.0123996 0)
  (-0.0443648 0.0132984 0)
  (-0.0452418 0.0118275 0)
  (-0.0439929 0.0106331 0)
  (-0.0415083 0.0100743 0)
  (-0.0381708 0.00994205 0)
  (-0.0342351 0.00996748 0)
  (-0.0300259 0.00988134 0)
  (-0.0260665 0.00933787 0)
  (-0.0234489 0.0080687 0)
  (-0.0236336 0.00597984 0)
  (-0.0265057 0.00439304 0)
  (-0.0308674 0.00414388 0)
  (-0.0357786 0.00519933 0)
  (-0.0397167 0.00681988 0)
  (-0.0424806 0.00868425 0)
  (-0.0439862 0.010625 0)
  (-0.0444661 0.0125638 0)
  (-0.0442024 0.0143541 0)
  (-0.0434148 0.0159242 0)
  (-0.0421582 0.017136 0)
  (-0.040387 0.0177941 0)
  (-0.0380091 0.0176505 0)
  (-0.0349596 0.0164413 0)
  (-0.0313143 0.0140024 0)
  (-0.0273579 0.010532 0)
  (-0.0233584 0.00693228 0)
  (-0.019326 0.00458827 0)
  (-0.0146056 0.00550866 0)
  (-0.00352434 0.0167246 0)
  (0.0288089 0.0476142 0)
  (-0.0892592 0.0364352 0)
  (0.520131 0.0332984 0)
  (0.173398 -0.125476 0)
  (0.13141 -0.0983004 0)
  (0.0642098 -0.0458087 0)
  (-0.0370763 0.0193334 0)
  (-0.056881 0.0299117 0)
  (-0.062626 0.0266392 0)
  (-0.0636355 0.0220167 0)
  (-0.0628043 0.0183422 0)
  (-0.0614412 0.0159256 0)
  (-0.0598418 0.0144929 0)
  (-0.0580848 0.0137215 0)
  (-0.0562567 0.0133789 0)
  (-0.0544928 0.0132995 0)
  (-0.0530147 0.0133165 0)
  (-0.0521914 0.013242 0)
  (-0.0524483 0.012947 0)
  (-0.0536795 0.0127652 0)
  (-0.0552945 0.0130326 0)
  (-0.0566907 0.0137354 0)
  (-0.0574328 0.0146134 0)
  (-0.0574295 0.0155374 0)
  (-0.0566807 0.016434 0)
  (-0.0552459 0.0172571 0)
  (-0.0532051 0.0178983 0)
  (-0.0506406 0.0182445 0)
  (-0.0476209 0.0181592 0)
  (-0.0442241 0.0174899 0)
  (-0.0405651 0.0160781 0)
  (-0.0368284 0.0137933 0)
  (-0.0332998 0.0106159 0)
  (-0.0303577 0.00676518 0)
  (-0.0283684 0.00272543 0)
  (-0.0274136 -0.00104864 0)
  (-0.0259619 -0.00071861 0)
  (-0.0202331 0.00848637 0)
  (-0.0120966 0.026802 0)
  (-0.109515 0.0200267 0)
  (0.310547 0.0528565 0)
  (-0.173083 -0.0867962 0)
  (-0.0771473 -0.0665739 0)
  (-0.102979 -0.0486344 0)
  (-0.102609 -0.039222 0)
  (-0.0946138 -0.048814 0)
  (-0.0872029 -0.060455 0)
  (-0.0824914 -0.0686638 0)
  (-0.0794917 -0.0737085 0)
  (-0.0775165 -0.0764812 0)
  (-0.0760881 -0.0777234 0)
  (-0.0748967 -0.0779447 0)
  (-0.0737509 -0.0774979 0)
  (-0.0725451 -0.076696 0)
  (-0.0712677 -0.0759027 0)
  (-0.0700303 -0.0755188 0)
  (-0.0690259 -0.0757989 0)
  (-0.068316 -0.0765454 0)
  (-0.0677566 -0.0773503 0)
  (-0.067119 -0.0779287 0)
  (-0.0662114 -0.0781716 0)
  (-0.0649202 -0.0779971 0)
  (-0.0631639 -0.077378 0)
  (-0.0608843 -0.0763493 0)
  (-0.0580542 -0.0750336 0)
  (-0.0546897 -0.0736062 0)
  (-0.0508594 -0.0722966 0)
  (-0.046701 -0.071386 0)
  (-0.0424381 -0.0711964 0)
  (-0.0383998 -0.0720424 0)
  (-0.0350379 -0.0741161 0)
  (-0.0329113 -0.0772772 0)
  (-0.0325521 -0.0807363 0)
  (-0.0341789 -0.0824754 0)
  (-0.0359305 -0.0828352 0)
  (-0.0354323 -0.0743204 0)
  (-0.0411724 -0.0561005 0)
  (-0.087775 -0.0526011 0)
  (0.252687 -0.044537 0)
  (-0.235115 -0.17214 0)
  (-0.170325 0.0253673 0)
  (-0.158103 0.276669 0)
  (-0.155043 0.24712 0)
  (-0.152724 0.237777 0)
  (-0.138931 0.241027 0)
  (-0.122651 0.251435 0)
  (-0.10995 0.26069 0)
  (-0.101582 0.266813 0)
  (-0.0963023 0.270449 0)
  (-0.0929646 0.272449 0)
  (-0.0907337 0.273426 0)
  (-0.0890472 0.273773 0)
  (-0.0875203 0.273776 0)
  (-0.0858867 0.273721 0)
  (-0.0839945 0.273934 0)
  (-0.0818342 0.274733 0)
  (-0.0795223 0.276251 0)
  (-0.0771745 0.278303 0)
  (-0.0748053 0.280562 0)
  (-0.072353 0.282764 0)
  (-0.0697419 0.284751 0)
  (-0.0668998 0.286411 0)
  (-0.0637547 0.287688 0)
  (-0.0602524 0.28857 0)
  (-0.0563827 0.289077 0)
  (-0.0522028 0.289239 0)
  (-0.0478521 0.289097 0)
  (-0.0435595 0.288724 0)
  (-0.0396382 0.288241 0)
  (-0.0364677 0.287846 0)
  (-0.0344899 0.287798 0)
  (-0.0341846 0.288335 0)
  (-0.0356653 0.289271 0)
  (-0.0374226 0.288609 0)
  (-0.0371271 0.289155 0)
  (-0.0379571 0.283534 0)
  (-0.0587256 0.275047 0)
  (-0.113869 0.285222 0)
  (0.335461 0.331084 0)
)
;

boundaryField
{
  floor
  {
    type noSlip;
  }
  ceiling
  {
    type noSlip;
  }
  sWall
  {
    type noSlip;
  }
  nWall
  {
    type noSlip;
  }
  sideWalls
  {
    type empty;
  }
  glass1
  {
    type noSlip;
  }
  glass2
  {
    type noSlip;
  }
  sun
  {
    type noSlip;
  }
  heatsource1
  {
    type noSlip;
  }
  heatsource2
  {
    type noSlip;
  }
  Table_master
  {
    type noSlip;
  }
  Table_slave
  {
    type noSlip;
  }
  inlet
  {
    type fixedValue;
    value uniform (0.277164 -0.114805 0);
  }
  outlet
  {
    type zeroGradient;
  }
} 	// ************************************************************************* //

