// -*- C++ -*-
// File generated by PyFoam - sorry for the ugliness

FoamFile
{
 version 2.0;
 format ascii;
 class volScalarField;
 location "700";
 object T;
}

dimensions [ 0 0 0 1 0 0 0 ];

internalField nonuniform List<scalar> 459
(
  307.089
  306.89
  306.886
  306.89
  306.892
  306.894
  306.895
  306.896
  306.895
  306.894
  306.89
  306.885
  306.878
  306.868
  306.854
  305.968
  305.938
  305.908
  305.887
  305.887
  305.897
  305.912
  305.923
  305.93
  305.937
  305.943
  305.944
  305.946
  305.958
  305.988
  306.038
  306.082
  306.161
  306.247
  307.256
  306.983
  306.966
  306.971
  306.978
  306.982
  306.984
  306.984
  306.982
  306.977
  306.969
  306.956
  306.937
  306.911
  306.877
  306.843
  306.733
  306.085
  306.114
  306.114
  306.118
  306.126
  306.134
  306.137
  306.141
  306.149
  306.162
  306.184
  306.216
  306.25
  306.292
  306.346
  306.403
  306.379
  306.358
  306.438
  307.407
  307.074
  307.039
  307.042
  307.051
  307.059
  307.063
  307.065
  307.064
  307.06
  307.049
  307.032
  307.006
  306.968
  306.916
  306.855
  306.8
  306.376
  306.382
  306.398
  306.415
  306.419
  306.404
  306.344
  306.371
  306.402
  306.435
  306.469
  306.507
  306.551
  306.606
  306.675
  306.738
  306.715
  306.662
  306.656
  307.549
  307.185
  307.137
  307.131
  307.137
  307.144
  307.15
  307.153
  307.154
  307.15
  307.141
  307.124
  307.095
  307.053
  306.992
  306.91
  306.806
  306.705
  306.643
  306.717
  306.777
  306.825
  306.858
  306.88
  306.897
  306.898
  306.9
  306.901
  306.902
  306.904
  306.905
  306.905
  306.903
  306.893
  306.891
  306.884
  306.858
  307.684
  307.315
  307.275
  307.266
  307.26
  307.258
  307.257
  307.255
  307.253
  307.248
  307.24
  307.225
  307.201
  307.166
  307.119
  307.063
  307.003
  306.951
  306.914
  306.915
  306.927
  306.941
  306.949
  306.953
  306.953
  306.952
  306.951
  306.951
  306.951
  306.952
  306.954
  306.956
  306.959
  306.961
  306.965
  306.972
  306.983
  306.997
  307.007
  307.015
  307.812
  307.462
  307.453
  307.459
  307.436
  307.415
  307.397
  307.382
  307.368
  307.355
  307.343
  307.327
  307.305
  307.274
  307.234
  307.187
  307.137
  307.092
  307.059
  307.04
  307.03
  307.025
  307.02
  307.016
  307.011
  307.007
  307.003
  307
  306.998
  306.996
  306.995
  306.995
  306.995
  306.996
  306.996
  306.998
  307.003
  307.011
  307.021
  307.032
  307.935
  307.633
  307.685
  307.675
  307.634
  307.593
  307.558
  307.528
  307.501
  307.476
  307.452
  307.43
  307.406
  307.378
  307.342
  307.298
  307.254
  307.212
  307.176
  307.149
  307.128
  307.113
  307.1
  307.09
  307.08
  307.072
  307.064
  307.058
  307.052
  307.047
  307.042
  307.038
  307.034
  307.03
  307.025
  307.02
  307.018
  307.022
  307.031
  307.042
  308.094
  307.886
  307.865
  307.825
  307.778
  307.729
  307.686
  307.648
  307.613
  307.582
  307.555
  307.527
  307.498
  307.468
  307.435
  307.399
  307.36
  307.321
  307.285
  307.254
  307.228
  307.207
  307.188
  307.173
  307.159
  307.146
  307.135
  307.125
  307.115
  307.106
  307.097
  307.088
  307.08
  307.071
  307.061
  307.05
  307.041
  307.036
  307.039
  307.049
  308.31
  308.214
  307.93
  307.85
  307.799
  307.758
  307.722
  307.689
  307.659
  307.631
  307.606
  307.582
  307.558
  307.533
  307.505
  307.475
  307.443
  307.41
  307.379
  307.349
  307.323
  307.298
  307.277
  307.258
  307.24
  307.224
  307.208
  307.194
  307.18
  307.167
  307.154
  307.141
  307.128
  307.115
  307.101
  307.086
  307.071
  307.058
  307.051
  307.053
  306.958
  307.519
  307.631
  307.654
  307.653
  307.645
  307.633
  307.618
  307.603
  307.587
  307.57
  307.553
  307.535
  307.515
  307.493
  307.469
  307.444
  307.42
  307.396
  307.372
  307.35
  307.329
  307.31
  307.291
  307.272
  307.255
  307.238
  307.221
  307.204
  307.188
  307.171
  307.154
  307.137
  307.119
  307.1
  307.081
  307.066
  307.056
  307.072
  307.368
  307.438
  307.501
  307.545
  307.568
  307.577
  307.578
  307.574
  307.567
  307.558
  307.548
  307.536
  307.523
  307.508
  307.492
  307.474
  307.455
  307.435
  307.415
  307.395
  307.375
  307.355
  307.335
  307.316
  307.296
  307.277
  307.258
  307.239
  307.22
  307.2
  307.181
  307.16
  307.139
  307.116
  307.093
  307.07
  307.057
  309.62
  309.239
  307.301
  307.311
  307.341
  307.395
  307.455
  307.491
  307.511
  307.521
  307.525
  307.525
  307.522
  307.518
  307.511
  307.503
  307.494
  307.483
  307.471
  307.458
  307.443
  307.428
  307.411
  307.394
  307.375
  307.357
  307.338
  307.318
  307.298
  307.278
  307.257
  307.236
  307.214
  307.191
  307.168
  307.142
  307.114
  307.081
  307.038
  306.972
)
;

boundaryField
{
  floor
  {
    type wallHeatTransfer;
    Tinf uniform 305.2;
    alphaWall uniform 0.24;
    value nonuniform List<scalar> 29
(
  306.618
  305.779
  305.751
  305.713
  305.683
  305.676
  305.682
  305.695
  305.707
  305.718
  305.727
  305.733
  305.734
  305.736
  305.749
  305.778
  305.828
  305.873
  305.962
  306.018
  306.018
  306.227
  306.445
  306.616
  306.618
  305.779
  305.903
  306.176
  306.505
)
;
  }
  ceiling
  {
    type wallHeatTransfer;
    Tinf uniform 303.2;
    alphaWall uniform 0.24;
    value nonuniform List<scalar> 43
(
  309.089
  308.842
  307.155
  307.139
  307.126
  307.134
  307.17
  307.191
  307.201
  307.204
  307.203
  307.2
  307.195
  307.19
  307.184
  307.178
  307.17
  307.161
  307.15
  307.138
  307.125
  307.111
  307.096
  307.079
  307.063
  307.045
  307.027
  307.009
  306.991
  306.972
  306.952
  306.932
  306.911
  306.889
  306.866
  306.84
  306.81
  306.774
  306.728
  306.636
  308.061
  307.995
  306.974
)
;
  }
  sWall
  {
    type wallHeatTransfer;
    Tinf uniform 315.2;
    alphaWall uniform 0.36;
    value uniform 310.285;
  }
  nWall
  {
    type wallHeatTransfer;
    Tinf uniform 307.2;
    alphaWall uniform 0.36;
    value nonuniform List<scalar> 6
(
  307.054
  307.062
  307.067
  307.072
  307.071
  307.001
)
;
  }
  sideWalls
  {
    type empty;
  }
  glass1
  {
    type wallHeatTransfer;
    Tinf uniform 315.2;
    alphaWall uniform 4.3;
    value nonuniform List<scalar> 9
(
  313.316
  312.611
  312.142
  311.804
  311.569
  311.41
  311.327
  311.424
  311.62
)
;
  }
  glass2
  {
    type wallHeatTransfer;
    Tinf uniform 307.2;
    alphaWall uniform 4.3;
    value nonuniform List<scalar> 2
(
  307.15
  307.147
)
;
  }
  sun
  {
    type wallHeatTransfer;
    Tinf uniform 305.2;
    alphaWall uniform 0.24;
    value nonuniform List<scalar> 14
(
  306.799
  306.636
  306.609
  306.615
  306.621
  306.627
  306.632
  306.636
  306.64
  306.642
  306.643
  306.641
  306.637
  306.63
)
;
  }
  heatsource1
  {
    type fixedGradient;
    gradient uniform 0;
  }
  heatsource2
  {
    type fixedGradient;
    gradient uniform 0;
  }
  Table_master
  {
    type zeroGradient;
  }
  Table_slave
  {
    type zeroGradient;
  }
  inlet
  {
    type fixedValue;
    value uniform 299.15;
  }
  outlet
  {
    type zeroGradient;
  }
} 	// ************************************************************************* //

