// -*- C++ -*-
// File generated by PyFoam - sorry for the ugliness

FoamFile
{
 version 2.0;
 format ascii;
 class volVectorField;
 location "1400";
 object U;
}

dimensions [ 0 1 -1 0 0 0 0 ];

internalField nonuniform List<vector> 459
(
  (0.0330834 0.0854209 0)
  (-0.166039 0.0256332 0)
  (-0.190569 0.0178411 0)
  (-0.221167 0.0123408 0)
  (-0.243508 0.00632919 0)
  (-0.256758 2.52295e-05 0)
  (-0.259588 -0.00662754 0)
  (-0.250774 -0.0136332 0)
  (-0.230971 -0.0205271 0)
  (-0.201613 -0.0262596 0)
  (-0.165674 -0.0299878 0)
  (-0.126567 -0.0314428 0)
  (-0.0875379 -0.0311515 0)
  (-0.0533544 -0.0307721 0)
  (-0.0377202 -0.0320476 0)
  (-0.0025599 0.00740782 0)
  (-0.0223105 -0.0174954 0)
  (0.00139428 -0.0261876 0)
  (0.0222303 -0.0193916 0)
  (0.0378817 -0.0130094 0)
  (0.0494313 -0.0082937 0)
  (0.0562442 -0.00497078 0)
  (0.0596411 -0.00323582 0)
  (0.0611865 -0.00248455 0)
  (0.0620005 -0.00212615 0)
  (0.0625184 -0.00189245 0)
  (0.0627891 -0.0016993 0)
  (0.0627511 -0.00146927 0)
  (0.0622026 -0.00102223 0)
  (0.0605701 3.22865e-05 0)
  (0.0566438 0.00222675 0)
  (0.0491066 0.00460655 0)
  (0.0413332 0.0066566 0)
  (-0.0104992 0.0203474 0)
  (0.205468 0.174532 0)
  (-0.154291 0.0670791 0)
  (-0.152554 0.0521302 0)
  (-0.183798 0.0406796 0)
  (-0.20561 0.027872 0)
  (-0.218817 0.0136994 0)
  (-0.222078 -0.0021002 0)
  (-0.213967 -0.0190953 0)
  (-0.195668 -0.0351779 0)
  (-0.16899 -0.0478445 0)
  (-0.137133 -0.0553072 0)
  (-0.10351 -0.057094 0)
  (-0.0713469 -0.053883 0)
  (-0.0444005 -0.047265 0)
  (-0.0272892 -0.0384143 0)
  (-0.0137161 -0.0188432 0)
  (-0.00719454 0.0131938 0)
  (0.0601625 0.0312597 0)
  (0.0315533 -0.0198222 0)
  (0.038545 -0.0305091 0)
  (0.0492791 -0.0258249 0)
  (0.0576718 -0.0177419 0)
  (0.0632095 -0.0103724 0)
  (0.0653841 -0.00427473 0)
  (0.0656913 -0.000898005 0)
  (0.0656067 0.000547703 0)
  (0.0656901 0.00121589 0)
  (0.0658504 0.00164336 0)
  (0.0659634 0.00201754 0)
  (0.0659906 0.00249012 0)
  (0.0658775 0.00341513 0)
  (0.0650906 0.00570974 0)
  (0.0612117 0.0120256 0)
  (0.0514601 0.0174058 0)
  (0.0451728 0.0212273 0)
  (-0.0440328 0.0439633 0)
  (0.363408 0.260797 0)
  (-0.170067 0.106382 0)
  (-0.113951 0.0838875 0)
  (-0.143751 0.0635184 0)
  (-0.162719 0.0425045 0)
  (-0.174551 0.0195788 0)
  (-0.177085 -0.00604055 0)
  (-0.168071 -0.0331822 0)
  (-0.149755 -0.0580901 0)
  (-0.12471 -0.0767083 0)
  (-0.0964189 -0.0866402 0)
  (-0.0678489 -0.0877639 0)
  (-0.0412938 -0.0812324 0)
  (-0.0189634 -0.0686146 0)
  (-0.00269347 -0.0509511 0)
  (0.00976717 -0.0253264 0)
  (0.0165103 0.0090067 0)
  (0.105536 -0.0392431 0)
  (0.0728899 -0.0431271 0)
  (0.0689455 -0.0393584 0)
  (0.0711161 -0.0314955 0)
  (0.0726467 -0.0223496 0)
  (0.0734569 -0.0146918 0)
  (0.0717235 -0.0119833 0)
  (0.0677452 -0.00858281 0)
  (0.0650039 -0.00674234 0)
  (0.063761 -0.00569583 0)
  (0.0632151 -0.00502996 0)
  (0.062952 -0.00456547 0)
  (0.0629999 -0.00412141 0)
  (0.063823 -0.00332718 0)
  (0.0666366 -0.000200208 0)
  (0.064589 0.0169999 0)
  (0.0513294 0.0291905 0)
  (0.0508353 0.0378062 0)
  (-0.0735629 0.0690295 0)
  (0.505491 0.329981 0)
  (-0.203479 0.141028 0)
  (-0.0737252 0.110441 0)
  (-0.101287 0.0824146 0)
  (-0.114416 0.0554677 0)
  (-0.122279 0.0254954 0)
  (-0.121133 -0.00959646 0)
  (-0.108793 -0.0472592 0)
  (-0.0896594 -0.080211 0)
  (-0.0670008 -0.103215 0)
  (-0.0440366 -0.114073 0)
  (-0.022564 -0.113791 0)
  (-0.00336191 -0.104163 0)
  (0.0130223 -0.086935 0)
  (0.0264378 -0.0650089 0)
  (0.0407806 -0.039019 0)
  (0.0628766 -0.0124105 0)
  (0.0933985 1.71212e-05 0)
  (0.101063 -0.0329706 0)
  (0.0875237 -0.0382344 0)
  (0.0789759 -0.0340011 0)
  (0.0748211 -0.0277103 0)
  (0.0721133 -0.0203253 0)
  (0.0708381 -0.0117726 0)
  (0.0725845 -0.00690803 0)
  (0.0766817 -0.00546365 0)
  (0.0800706 -0.00465447 0)
  (0.0823706 -0.00402556 0)
  (0.0837774 -0.00320935 0)
  (0.0837277 -0.00194959 0)
  (0.0811564 -2.4512e-05 0)
  (0.0748243 0.00284115 0)
  (0.0619526 0.00717836 0)
  (0.0510114 0.0273986 0)
  (0.0403467 0.0441717 0)
  (0.0537599 0.0576676 0)
  (-0.104085 0.0918053 0)
  (0.627501 0.383481 0)
  (-0.244274 0.169255 0)
  (-0.0346741 0.125098 0)
  (-0.0572075 0.0925968 0)
  (-0.0619619 0.0623401 0)
  (-0.0627158 0.0274804 0)
  (-0.0518032 -0.0162495 0)
  (-0.0338931 -0.0631797 0)
  (-0.0149691 -0.100715 0)
  (0.00273308 -0.124494 0)
  (0.0172246 -0.133207 0)
  (0.0285912 -0.129909 0)
  (0.0373565 -0.117636 0)
  (0.0442364 -0.0989246 0)
  (0.0503667 -0.0764417 0)
  (0.0577187 -0.0528373 0)
  (0.0688819 -0.0335557 0)
  (0.0793371 -0.0289026 0)
  (0.0809181 -0.0346901 0)
  (0.0743906 -0.0334443 0)
  (0.0663921 -0.028472 0)
  (0.0602923 -0.0229001 0)
  (0.0560009 -0.0171698 0)
  (0.0537298 -0.0113043 0)
  (0.0538425 -0.00619741 0)
  (0.0559831 -0.00385961 0)
  (0.0583677 -0.0030216 0)
  (0.0606879 -0.00232088 0)
  (0.0628444 -0.000818932 0)
  (0.0644564 0.00203878 0)
  (0.0643517 0.00637521 0)
  (0.0619419 0.0123324 0)
  (0.0565388 0.0205622 0)
  (0.0499833 0.0359514 0)
  (0.0409698 0.0544297 0)
  (0.0620172 0.0748728 0)
  (-0.0172253 0.104017 0)
  (0.0455776 0.0340525 0)
  (-0.0610712 -0.0342469 0)
  (-0.268967 -0.056547 0)
  (0.71519 0.428023 0)
  (-0.283588 0.188075 0)
  (-0.00560594 0.11993 0)
  (-0.0117883 0.0916991 0)
  (-0.00496469 0.0623483 0)
  (0.00525505 0.0207738 0)
  (0.0339429 -0.0335582 0)
  (0.0550248 -0.0817726 0)
  (0.0698626 -0.116157 0)
  (0.0784139 -0.135324 0)
  (0.0814512 -0.140474 0)
  (0.0804629 -0.134325 0)
  (0.0768193 -0.119909 0)
  (0.0719283 -0.100211 0)
  (0.0672678 -0.0781308 0)
  (0.0641995 -0.0563551 0)
  (0.0636112 -0.0386044 0)
  (0.0631392 -0.0294505 0)
  (0.0591089 -0.027077 0)
  (0.0515061 -0.0248844 0)
  (0.0432842 -0.0212474 0)
  (0.0367073 -0.0172587 0)
  (0.0321973 -0.0133945 0)
  (0.0299226 -0.0097273 0)
  (0.0298613 -0.00690997 0)
  (0.0315389 -0.00598357 0)
  (0.0340282 -0.00597727 0)
  (0.0369931 -0.0057077 0)
  (0.0402717 -0.00420492 0)
  (0.0436455 -0.000609588 0)
  (0.0466253 0.00535953 0)
  (0.0481838 0.0133683 0)
  (0.0485324 0.0236251 0)
  (0.0490837 0.0378992 0)
  (0.048398 0.055788 0)
  (0.0704078 0.0785789 0)
  (0.0522938 0.0970275 0)
  (0.091577 0.0681623 0)
  (0.114534 0.044581 0)
  (-0.127931 -0.00711817 0)
  (0.768013 0.468638 0)
  (-0.302158 0.173452 0)
  (0.0220735 0.0677391 0)
  (0.049483 0.0629907 0)
  (0.0701688 0.0440341 0)
  (0.10305 -0.00355987 0)
  (0.134825 -0.0572307 0)
  (0.153172 -0.0982799 0)
  (0.15922 -0.124063 0)
  (0.155046 -0.135554 0)
  (0.143277 -0.1349 0)
  (0.126773 -0.124944 0)
  (0.108074 -0.108588 0)
  (0.089336 -0.0887524 0)
  (0.0723128 -0.0680227 0)
  (0.0581124 -0.0484634 0)
  (0.0472458 -0.0327237 0)
  (0.0386008 -0.0231719 0)
  (0.0301896 -0.0188478 0)
  (0.0216516 -0.0164516 0)
  (0.0139927 -0.0141451 0)
  (0.00818191 -0.0119883 0)
  (0.00441326 -0.0101519 0)
  (0.00268105 -0.00866795 0)
  (0.00282029 -0.00788829 0)
  (0.00432863 -0.0081716 0)
  (0.00659085 -0.00890367 0)
  (0.00939279 -0.00922894 0)
  (0.0127837 -0.00828852 0)
  (0.0168947 -0.00507633 0)
  (0.0226624 0.00138393 0)
  (0.0283847 0.0101586 0)
  (0.0338301 0.0205151 0)
  (0.0408223 0.0331158 0)
  (0.0486408 0.047712 0)
  (0.0704278 0.0660513 0)
  (0.0840692 0.0742964 0)
  (0.115973 0.0523007 0)
  (0.155449 0.0439861 0)
  (-0.0359391 0.0926417 0)
  (0.872782 0.469994 0)
  (-0.0644313 0.152121 0)
  (0.109967 -0.0138762 0)
  (0.181719 -0.0410595 0)
  (0.212295 -0.05273 0)
  (0.243788 -0.0752577 0)
  (0.261591 -0.097551 0)
  (0.262403 -0.113426 0)
  (0.247807 -0.120915 0)
  (0.221882 -0.120069 0)
  (0.189122 -0.112116 0)
  (0.153563 -0.0988679 0)
  (0.118352 -0.0820829 0)
  (0.0858824 -0.0639511 0)
  (0.05777 -0.0463926 0)
  (0.0346367 -0.0306086 0)
  (0.017274 -0.0187426 0)
  (0.00475734 -0.012092 0)
  (-0.00483798 -0.00948225 0)
  (-0.0121659 -0.00869521 0)
  (-0.017974 -0.00827158 0)
  (-0.0221964 -0.00804028 0)
  (-0.024944 -0.00802999 0)
  (-0.0263697 -0.00828652 0)
  (-0.0267066 -0.00894419 0)
  (-0.0263589 -0.0100532 0)
  (-0.0257128 -0.0113173 0)
  (-0.0248788 -0.0122817 0)
  (-0.0237002 -0.0124469 0)
  (-0.0217787 -0.0112198 0)
  (-0.0181344 -0.00785679 0)
  (-0.00951182 -0.00168311 0)
  (-0.00122724 0.00629954 0)
  (0.00928121 0.0144322 0)
  (0.0209323 0.0214377 0)
  (0.0406383 0.0286951 0)
  (0.0595666 0.0221665 0)
  (0.0794723 -0.00484434 0)
  (0.138018 0.0392453 0)
  (-0.404993 0.202662 0)
  (1.01967 0.423073 0)
  (0.485089 0.279601 0)
  (0.499946 0.183081 0)
  (0.526364 0.111794 0)
  (0.50738 0.0604727 0)
  (0.465488 0.0133023 0)
  (0.416744 -0.0260133 0)
  (0.363189 -0.0529341 0)
  (0.305116 -0.0666766 0)
  (0.24543 -0.0692518 0)
  (0.187599 -0.0640355 0)
  (0.134218 -0.0541911 0)
  (0.0868561 -0.0415991 0)
  (0.0470768 -0.028481 0)
  (0.0149662 -0.016644 0)
  (-0.0105018 -0.00715602 0)
  (-0.0254793 -0.00290642 0)
  (-0.0347169 -0.00185443 0)
  (-0.0409197 -0.00234553 0)
  (-0.0457211 -0.00333225 0)
  (-0.0496391 -0.00434072 0)
  (-0.0528146 -0.00533198 0)
  (-0.0553627 -0.00633458 0)
  (-0.0574528 -0.00738765 0)
  (-0.0593295 -0.00853092 0)
  (-0.0613384 -0.00974197 0)
  (-0.0638289 -0.0108189 0)
  (-0.0670992 -0.0113928 0)
  (-0.0714631 -0.0109357 0)
  (-0.0773404 -0.00874212 0)
  (-0.0852671 -0.0039908 0)
  (-0.0952 0.00386988 0)
  (-0.10533 0.014321 0)
  (-0.120115 0.0275894 0)
  (-0.143323 0.0438087 0)
  (-0.177463 0.0619205 0)
  (-0.22587 0.0780767 0)
  (-0.281519 0.0897264 0)
  (-0.349483 0.0968114 0)
  (-0.609135 0.0999027 0)
  (-0.150858 0.00201337 0)
  (0.121399 0.0017724 0)
  (0.200554 -0.0315798 0)
  (0.187545 -0.0417149 0)
  (0.171468 -0.0398676 0)
  (0.149391 -0.0350799 0)
  (0.119946 -0.0289454 0)
  (0.0862075 -0.021613 0)
  (0.0516864 -0.0135517 0)
  (0.0168396 -0.00537539 0)
  (-0.0166588 0.00222946 0)
  (-0.0390643 0.00653941 0)
  (-0.0545307 0.00888104 0)
  (-0.0637845 0.00938615 0)
  (-0.0689012 0.00856344 0)
  (-0.0724511 0.00764435 0)
  (-0.0752518 0.00689552 0)
  (-0.0777226 0.00631992 0)
  (-0.0801904 0.00583536 0)
  (-0.0827882 0.00518151 0)
  (-0.0854954 0.0044221 0)
  (-0.0883981 0.0035694 0)
  (-0.0916227 0.00268168 0)
  (-0.0953094 0.00188383 0)
  (-0.0995338 0.00142336 0)
  (-0.104292 0.00161578 0)
  (-0.10951 0.002791 0)
  (-0.11501 0.00525767 0)
  (-0.12018 0.00954227 0)
  (-0.124293 0.0165422 0)
  (-0.127707 0.0273659 0)
  (-0.130637 0.0423934 0)
  (-0.13375 0.0608151 0)
  (-0.137481 0.0792203 0)
  (-0.138782 0.0881085 0)
  (-0.121367 0.0670259 0)
  (-0.0784775 -0.0231053 0)
  (-0.274021 -0.198315 0)
  (0.0154332 0.194637 0)
  (0.0413039 0.0703885 0)
  (0.000383067 0.00593741 0)
  (-0.012604 -0.00215958 0)
  (-0.0259367 -0.00019679 0)
  (-0.040845 8.98554e-05 0)
  (-0.0571155 0.00117883 0)
  (-0.0726163 0.00343107 0)
  (-0.0848512 0.00556016 0)
  (-0.0915917 0.00592434 0)
  (-0.0959073 0.00402248 0)
  (-0.0976947 3.15199e-05 0)
  (-0.0979917 -0.00449115 0)
  (-0.0974417 -0.00934953 0)
  (-0.0969474 -0.0145413 0)
  (-0.0970432 -0.0196048 0)
  (-0.0977596 -0.0242634 0)
  (-0.0990062 -0.0282615 0)
  (-0.100659 -0.0314003 0)
  (-0.102637 -0.0335669 0)
  (-0.104998 -0.0349076 0)
  (-0.107647 -0.0353803 0)
  (-0.110486 -0.0349302 0)
  (-0.113431 -0.0337387 0)
  (-0.116364 -0.0318524 0)
  (-0.119052 -0.0290526 0)
  (-0.121126 -0.0249293 0)
  (-0.122111 -0.0188762 0)
  (-0.12158 -0.0109689 0)
  (-0.11865 -0.000894086 0)
  (-0.111961 0.0120746 0)
  (-0.100235 0.0285849 0)
  (-0.0830342 0.0481483 0)
  (-0.0611092 0.066846 0)
  (-0.0373238 0.0777562 0)
  (0.00250051 0.0618923 0)
  (0.14273 -0.00824449 0)
  (-0.204931 -0.108505 0)
  (-0.043511 -0.319853 0)
  (-0.413199 -0.123197 0)
  (-0.301238 0.0643734 0)
  (-0.24979 -0.0172628 0)
  (-0.209973 -0.0226861 0)
  (-0.198701 -0.0117082 0)
  (-0.194238 -0.00205906 0)
  (-0.19077 0.00593278 0)
  (-0.186256 0.0134321 0)
  (-0.179791 0.0208886 0)
  (-0.171199 0.0283854 0)
  (-0.160796 0.0358276 0)
  (-0.149722 0.0430503 0)
  (-0.139136 0.0500391 0)
  (-0.129831 0.0570666 0)
  (-0.122079 0.0640806 0)
  (-0.115923 0.0710305 0)
  (-0.11119 0.0777017 0)
  (-0.107642 0.083699 0)
  (-0.105075 0.0886448 0)
  (-0.103308 0.0922825 0)
  (-0.102187 0.094464 0)
  (-0.101626 0.0952614 0)
  (-0.101584 0.094618 0)
  (-0.102019 0.0924999 0)
  (-0.102852 0.0892907 0)
  (-0.103953 0.0853084 0)
  (-0.105107 0.0806584 0)
  (-0.105933 0.0753927 0)
  (-0.105759 0.0696136 0)
  (-0.103325 0.0645837 0)
  (-0.0967968 0.0612192 0)
  (-0.083807 0.0604099 0)
  (-0.0625623 0.0631119 0)
  (-0.0335218 0.0698285 0)
  (0.0121715 0.0796499 0)
  (0.0551276 0.0805806 0)
  (0.0958933 0.0678511 0)
  (0.160938 0.042182 0)
  (-0.231918 -0.00790853 0)
)
;

boundaryField
{
  floor
  {
    type noSlip;
  }
  ceiling
  {
    type noSlip;
  }
  sWall
  {
    type noSlip;
  }
  nWall
  {
    type noSlip;
  }
  sideWalls
  {
    type empty;
  }
  glass1
  {
    type noSlip;
  }
  glass2
  {
    type noSlip;
  }
  sun
  {
    type noSlip;
  }
  heatsource1
  {
    type noSlip;
  }
  heatsource2
  {
    type noSlip;
  }
  Table_master
  {
    type noSlip;
  }
  Table_slave
  {
    type noSlip;
  }
  inlet
  {
    type fixedValue;
    value uniform (0.277164 -0.114805 0);
  }
  outlet
  {
    type zeroGradient;
  }
} 	// ************************************************************************* //

