/*--------------------------------*- C++ -*----------------------------------*\
  =========                 |
  \\      /  F ield         | OpenFOAM: The Open Source CFD Toolbox
   \\    /   O peration     | Website:  https://openfoam.org
    \\  /    A nd           | Version:  6
     \\/     M anipulation  |
\*---------------------------------------------------------------------------*/
FoamFile
{
    version     2.0;
    format      ascii;
    class       volScalarField;
    location    "200";
    object      alphat;
}
// * * * * * * * * * * * * * * * * * * * * * * * * * * * * * * * * * * * * * //

dimensions      [1 -1 -1 0 0 0 0];

internalField   nonuniform List<scalar> 
459
(
0.00144387
0.0015955
0.00164444
0.00173388
0.00182338
0.00191877
0.00199606
0.00204185
0.00204674
0.0020028
0.00186818
0.0016947
0.00151063
0.00131951
0.0011332
0.00064681
0.000757228
0.000887445
0.000964922
0.000975388
0.000951893
0.000893017
0.000829938
0.000773081
0.000723565
0.000680575
0.000643154
0.000610274
0.000581128
0.00055472
0.00052959
0.000503685
0.000478013
0.000433706
0.00190296
0.00494944
0.00487415
0.00566028
0.00642022
0.00697862
0.007463
0.00786183
0.00814465
0.00828386
0.00819008
0.00775786
0.0070571
0.00569434
0.00376555
0.00136136
0.00110245
0.000634466
0.00159404
0.00256817
0.0033766
0.00386006
0.00379309
0.00265046
0.00218558
0.00188598
0.00167026
0.00150701
0.0013792
0.00127767
0.00118731
0.00109091
0.00099697
0.000912629
0.000965483
0.000500242
0.0022773
0.00673615
0.00604248
0.00697572
0.00742541
0.00775357
0.00807442
0.00842313
0.00880464
0.00917808
0.00938296
0.00928491
0.00891539
0.00811273
0.00657955
0.00421883
0.00132333
0.000820641
0.00167216
0.00278066
0.00397594
0.00481731
0.00459593
0.00121726
0.0010581
0.000929924
0.000827491
0.000745167
0.00067836
0.000623648
0.000579506
0.000546746
0.000617325
0.000741497
0.00111055
0.000546069
0.00263011
0.00839049
0.00628578
0.00725165
0.00740739
0.00752493
0.00769079
0.00798035
0.00842232
0.00893778
0.00927753
0.00938989
0.00927133
0.0088894
0.00800858
0.00639708
0.00344539
0.00148577
0.00179175
0.00269208
0.00404058
0.0053917
0.00628072
0.00583082
0.00138437
0.00125292
0.00115114
0.0010683
0.000995473
0.000926755
0.000858365
0.000787189
0.000707728
0.000651369
0.000718007
0.00127487
0.000581073
0.00298603
0.0104621
0.0070734
0.00753646
0.0075857
0.00749061
0.00747209
0.00770487
0.00817379
0.00870538
0.00909888
0.00924751
0.00917618
0.00894819
0.00851501
0.00771959
0.00635035
0.00562551
0.00610295
0.00690424
0.00776872
0.00842982
0.00872332
0.00841645
0.00681335
0.00593952
0.00535312
0.00479558
0.00421276
0.0035997
0.00296255
0.00231969
0.00170195
0.00119157
0.000953739
0.00121581
0.000718823
0.000677885
0.000815128
0.000916313
0.00336031
0.0127491
0.00945498
0.0085392
0.00822936
0.00774747
0.00750616
0.00766577
0.00815378
0.00872915
0.00913686
0.00925449
0.00914847
0.00899146
0.00891836
0.00887742
0.00875682
0.00900832
0.009717
0.0103059
0.0106523
0.0107138
0.0104929
0.00997532
0.0090988
0.00824385
0.00743722
0.0066406
0.00583587
0.00500697
0.00415819
0.00330574
0.0024903
0.00179313
0.00138124
0.0012738
0.000974783
0.000862965
0.00124605
0.000959787
0.00367757
0.0142294
0.012496
0.0104058
0.0089845
0.00794449
0.00754747
0.00775336
0.00835054
0.00900957
0.00943015
0.00950956
0.0094134
0.00948918
0.00994496
0.0104936
0.0109762
0.0115384
0.012069
0.0122484
0.0121183
0.0117287
0.0111353
0.0103792
0.00948824
0.00859489
0.00774014
0.00692231
0.00612286
0.00531671
0.00453771
0.00378024
0.0030563
0.0023924
0.00194182
0.00166831
0.00141879
0.00138025
0.00143519
0.00111332
0.00372586
0.011976
0.011023
0.00938213
0.0080006
0.00728856
0.00731193
0.00792208
0.00880782
0.00957821
0.00995744
0.00998416
0.0100532
0.0108213
0.0115246
0.0120194
0.0124077
0.0127272
0.0128528
0.0126431
0.0121301
0.0113913
0.0104954
0.00950023
0.008479
0.00752164
0.00664873
0.00585436
0.00514854
0.00456644
0.0041117
0.00371939
0.00334784
0.0029487
0.00272938
0.00271091
0.00293709
0.00350955
0.00438315
0.00170564
0.00361742
0.00424378
0.0045169
0.00460767
0.0049935
0.0059029
0.00721671
0.00865699
0.00985178
0.0104617
0.0104778
0.0106512
0.0111633
0.0117602
0.0121501
0.0123504
0.0124411
0.0123855
0.0120924
0.0115154
0.0106908
0.00968915
0.00857968
0.00743288
0.0063204
0.00530286
0.00442059
0.00371596
0.00320647
0.00286775
0.00266235
0.002551
0.00249707
0.00248366
0.00250234
0.00253278
0.00252051
0.00241874
0.00225983
0.00158766
0.00138413
0.00360138
0.0072894
0.00973018
0.0111085
0.0116875
0.0116657
0.0110799
0.010553
0.0105676
0.0109111
0.0111155
0.0111435
0.0110633
0.0108625
0.0104721
0.00984421
0.00899199
0.00798645
0.00692351
0.00589426
0.00496882
0.00418729
0.00356352
0.00309622
0.00277286
0.00256901
0.00245693
0.00241455
0.00242479
0.00247298
0.00254476
0.00262033
0.00266871
0.00265601
0.00258514
0.0023913
0.00134085
0.00246506
0.00864477
0.0109052
0.0111719
0.0107497
0.0100051
0.00923664
0.00867352
0.0083576
0.00822273
0.00810562
0.00796575
0.00782226
0.00764662
0.00738101
0.00697682
0.00642898
0.00578584
0.00512845
0.00453219
0.00403895
0.00365497
0.00336473
0.00314535
0.0029748
0.00283614
0.00272079
0.00263029
0.00257368
0.00256069
0.002594
0.00266304
0.00274317
0.00280649
0.00277879
0.00284276
0.00284274
0.00136971
0.00217419
0.0023093
0.00240823
0.00257338
0.00234804
0.0021684
0.0020251
0.00187029
0.00171364
0.00157476
0.00147043
0.00139985
0.00135229
0.00131774
0.00128832
0.00125787
0.00122237
0.0011806
0.00113449
0.00108793
0.00104488
0.00100779
0.000977262
0.000952627
0.000932877
0.000917444
0.000906674
0.000901941
0.000905407
0.000919418
0.000945878
0.000985949
0.0010401
0.00110786
0.00118871
0.00127547
0.00129331
0.00123937
0.00117147
0.00110008
)
;

boundaryField
{
    floor
    {
        type            compressible::alphatWallFunction;
        Prt             0.85;
        value           nonuniform List<scalar> 
29
(
0.000160898
9.13437e-05
0.000107561
0.00012633
0.000137342
0.000138825
0.000135503
0.000127133
0.000118093
0.000109874
0.000102658
9.63442e-05
9.08093e-05
8.59136e-05
8.15467e-05
7.75668e-05
7.37579e-05
6.98077e-05
6.58676e-05
5.90042e-05
5.90034e-05
6.92787e-05
7.62547e-05
8.15346e-05
0.000160896
9.13426e-05
8.95087e-05
0.000116723
0.000209039
)
;
    }
    ceiling
    {
        type            compressible::alphatWallFunction;
        Prt             0.85;
        value           nonuniform List<scalar> 
43
(
0.000299665
0.000317048
0.000329712
0.000350853
0.000322178
0.000299093
0.000280525
0.000260303
0.000239654
0.000221176
0.000207178
0.000197646
0.000191195
0.000186492
0.000182476
0.000178308
0.000173432
0.000167673
0.000161287
0.000154809
0.00014879
0.000143581
0.000139276
0.00013579
0.000132987
0.000130791
0.000129254
0.000128576
0.000129065
0.000131055
0.000134806
0.000140468
0.000148077
0.000157538
0.00016874
0.000180668
0.000183108
0.000175713
0.000166357
0.00015646
0.000480933
0.000556949
0.000336722
)
;
    }
    sWall
    {
        type            compressible::alphatWallFunction;
        Prt             0.85;
        value           uniform 0.000298473;
    }
    nWall
    {
        type            compressible::alphatWallFunction;
        Prt             0.85;
        value           nonuniform List<scalar> 6(0.00013026 0.00013642 0.000157935 0.000189289 0.000193213 0.000156145);
    }
    sideWalls
    {
        type            empty;
    }
    glass1
    {
        type            compressible::alphatWallFunction;
        Prt             0.85;
        value           nonuniform List<scalar> 9(0.00019843 0.000258643 0.000306687 0.00035128 0.000395692 0.000441848 0.000480609 0.000486622 0.00047369);
    }
    glass2
    {
        type            compressible::alphatWallFunction;
        Prt             0.85;
        value           nonuniform List<scalar> 2(0.000236841 0.000221319);
    }
    sun
    {
        type            compressible::alphatWallFunction;
        Prt             0.85;
        value           nonuniform List<scalar> 
14
(
0.000203417
0.000223765
0.000230291
0.000242161
0.000253972
0.000266493
0.000276586
0.000282545
0.000283179
0.00027746
0.00025984
0.00023696
0.000212389
0.000186525
)
;
    }
    heatsource1
    {
        type            compressible::alphatWallFunction;
        Prt             0.85;
        value           nonuniform List<scalar> 3(9.60564e-05 0.000116071 0.000130567);
    }
    heatsource2
    {
        type            compressible::alphatWallFunction;
        Prt             0.85;
        value           nonuniform List<scalar> 4(0.000192381 0.000156778 0.000156776 0.000187196);
    }
    Table_master
    {
        type            compressible::alphatWallFunction;
        Prt             0.85;
        value           nonuniform List<scalar> 9(0.000172676 0.000150587 0.000132518 0.000117867 0.000105936 9.61375e-05 8.80254e-05 8.14169e-05 7.64724e-05);
    }
    Table_slave
    {
        type            compressible::alphatWallFunction;
        Prt             0.85;
        value           nonuniform List<scalar> 9(0.000195518 0.00017758 0.000163545 0.000152016 0.000141794 0.000132068 0.000122305 0.000112045 0.000100458);
    }
    inlet
    {
        type            fixedValue;
        value           uniform 1.94e-05;
    }
    outlet
    {
        type            zeroGradient;
    }
}


// ************************************************************************* //
