/*--------------------------------*- C++ -*----------------------------------*\
  =========                 |
  \\      /  F ield         | OpenFOAM: The Open Source CFD Toolbox
   \\    /   O peration     | Website:  https://openfoam.org
    \\  /    A nd           | Version:  6
     \\/     M anipulation  |
\*---------------------------------------------------------------------------*/
FoamFile
{
    version     2.0;
    format      ascii;
    class       volScalarField;
    location    "100";
    object      epsilon;
}
// * * * * * * * * * * * * * * * * * * * * * * * * * * * * * * * * * * * * * //

dimensions      [0 2 -3 0 0 0 0];

internalField   nonuniform List<scalar> 
459
(
0.00154571
0.0047158
0.00421227
0.00378209
0.00345696
0.00320067
0.00298841
0.00280357
0.00263283
0.00246695
0.00229785
0.00211702
0.0019129
0.00166384
0.00136703
2.71157e-05
5.48201e-05
6.72523e-05
7.77908e-05
7.84856e-05
7.03892e-05
5.64189e-05
4.55945e-05
3.75052e-05
3.11524e-05
2.60322e-05
2.18361e-05
1.83523e-05
1.54235e-05
1.29222e-05
1.0744e-05
8.82166e-06
7.62523e-06
5.64185e-06
0.00642304
0.00557082
0.00443811
0.00346956
0.00282089
0.00240119
0.00211055
0.00189728
0.00174049
0.00162402
0.00153833
0.00147476
0.00141823
0.00132905
0.00117394
0.0012159
0.000861161
4.95734e-05
6.76603e-05
5.3724e-05
5.512e-05
5.65652e-05
5.52346e-05
4.30642e-05
3.37589e-05
2.82999e-05
2.37357e-05
1.97078e-05
1.62457e-05
1.33168e-05
1.08529e-05
8.80893e-06
7.23717e-06
6.42129e-06
1.57463e-05
1.06566e-05
0.00805037
0.00704293
0.00481391
0.0032394
0.00242527
0.0019998
0.00175986
0.0016059
0.00147819
0.00136744
0.00127369
0.00119986
0.00114475
0.0010849
0.00100934
0.00101139
0.000883883
0.000116883
9.20316e-05
6.34523e-05
6.00509e-05
6.16174e-05
6.34087e-05
5.82008e-05
2.78094e-05
1.93301e-05
1.54527e-05
1.28964e-05
1.09014e-05
9.28835e-06
8.01594e-06
7.27768e-06
8.14682e-06
8.8106e-06
4.45682e-05
1.8527e-05
0.00904111
0.00851476
0.00457475
0.00234819
0.00149003
0.00114597
0.00101105
0.000978274
0.000981454
0.00098424
0.000974454
0.000955072
0.00093325
0.000902034
0.000868804
0.000871088
0.000809923
0.000540756
0.000238476
8.48986e-05
6.27732e-05
5.96646e-05
6.23724e-05
7.38598e-05
0.000110162
0.000106007
0.00010413
0.000104243
0.000104409
0.000102791
9.6981e-05
8.49832e-05
7.03637e-05
4.96617e-05
3.56521e-05
8.69707e-05
3.69629e-05
0.00984829
0.0100194
0.0038864
0.00140011
0.000801322
0.000650704
0.000634659
0.000653682
0.000694031
0.00072853
0.000751086
0.000761801
0.000763933
0.000753263
0.000743964
0.000752917
0.000766292
0.000547582
0.000177418
7.56287e-05
6.09799e-05
6.0427e-05
6.31031e-05
6.72688e-05
7.34978e-05
7.73066e-05
7.99822e-05
8.16503e-05
8.19724e-05
8.11742e-05
7.76845e-05
6.96137e-05
5.76153e-05
4.7853e-05
4.04387e-05
5.85148e-05
5.55941e-05
6.85772e-05
0.000106225
0.000164527
0.0106538
0.0112732
0.00354645
0.000768978
0.000577826
0.000499627
0.000501272
0.000515876
0.000543441
0.000572947
0.000599968
0.000619772
0.000631615
0.000632078
0.000637442
0.000655279
0.000700598
0.000516824
0.000181253
8.31674e-05
6.80571e-05
7.16783e-05
7.87714e-05
8.47037e-05
8.87264e-05
9.01383e-05
9.04095e-05
9.17027e-05
9.44389e-05
9.81931e-05
0.000101558
0.000100768
8.89661e-05
6.87273e-05
5.514e-05
5.31419e-05
5.56496e-05
6.03503e-05
0.000194128
0.000199072
0.0116578
0.0120805
0.00529102
0.0008159
0.000540492
0.00042495
0.0004126
0.000424874
0.000446144
0.000469265
0.000492976
0.000513392
0.000528649
0.000538148
0.000552624
0.000577366
0.000623756
0.00046089
0.000178527
8.89621e-05
7.98605e-05
9.18221e-05
0.000106025
0.000115714
0.000119083
0.000116864
0.000112614
0.000110752
0.000113162
0.000120448
0.000133376
0.00015044
0.000161054
0.000138508
0.000117137
0.000113742
0.000132419
0.000175792
0.000331998
0.000350653
0.0132158
0.0149072
0.0123178
0.00131266
0.000471608
0.000333336
0.000325062
0.000343517
0.000368436
0.000392827
0.000416284
0.000437935
0.000457018
0.000473874
0.000493052
0.000518369
0.000548655
0.000396139
0.000163404
9.54058e-05
0.000100417
0.000126735
0.000152381
0.000169496
0.000174951
0.000168594
0.000156407
0.000147886
0.000147102
0.000155289
0.000176552
0.000214476
0.000268455
0.000336136
0.000377495
0.000516553
0.000835297
0.00125191
0.00310518
0.00097796
0.0164027
0.0224166
0.0382722
0.0044738
0.000470456
0.000286308
0.000277109
0.000294588
0.000318512
0.000345696
0.00037251
0.000398812
0.000423922
0.0004467
0.000466177
0.000482455
0.00048659
0.000341627
0.000158428
0.000120157
0.000147694
0.000192098
0.000233029
0.000262759
0.00027608
0.000266749
0.000240522
0.00021733
0.000207257
0.000208283
0.000226495
0.00027314
0.000351443
0.000456274
0.000586506
0.000745513
0.0009386
0.00111643
0.00127957
0.000846413
0.0861934
0.00972294
0.000769532
0.000336813
0.000301133
0.000311824
0.000337146
0.000366499
0.000398142
0.00043137
0.000463696
0.000490444
0.000504681
0.000502226
0.00048073
0.000350791
0.000213516
0.000217808
0.000269448
0.000329334
0.000387501
0.000436008
0.000468877
0.000465894
0.000416989
0.000360348
0.000332053
0.00031549
0.000298858
0.000298197
0.000333763
0.000416143
0.0005265
0.00064525
0.000753441
0.000820056
0.000811009
0.000569562
0.00614658
0.00138155
0.000938318
0.000495964
0.000396773
0.000356293
0.000347559
0.000364136
0.000392837
0.000429006
0.000468011
0.000501975
0.000518276
0.000506583
0.000461156
0.000331495
0.000295749
0.000368026
0.000498547
0.000644102
0.000776899
0.000883654
0.000957373
0.000972189
0.000878795
0.000715994
0.000641669
0.000639782
0.000623449
0.000577753
0.000527248
0.000496129
0.000516643
0.000569795
0.000604176
0.000651114
0.000859115
0.00063926
0.00150294
0.00127496
0.00137163
0.000499032
0.000537216
0.000562658
0.000588255
0.000609479
0.000628517
0.000647896
0.000665677
0.000682185
0.000696265
0.00070541
0.000705529
0.000690167
0.000626506
0.000526874
0.000459284
0.000413502
0.000393976
0.00039243
0.000401364
0.000413387
0.000419933
0.000408978
0.000368713
0.000311019
0.000279003
0.000283601
0.000284532
0.000280243
0.00029389
0.000339544
0.000400596
0.000467694
0.000478488
0.000426446
0.000372381
0.000313943
)
;

boundaryField
{
    floor
    {
        Cmu             0.09;
        kappa           0.41;
        E               9.8;
        type            epsilonWallFunction;
        value           nonuniform List<scalar> 
29
(
0.00136703
2.71157e-05
5.48201e-05
6.72523e-05
7.77908e-05
7.84856e-05
7.03892e-05
5.64189e-05
4.55945e-05
3.75052e-05
3.11524e-05
2.60322e-05
2.18361e-05
1.83523e-05
1.54235e-05
1.29222e-05
1.0744e-05
8.82166e-06
7.62523e-06
5.64185e-06
5.64185e-06
1.06566e-05
1.8527e-05
3.69629e-05
0.00136703
2.71157e-05
4.95734e-05
0.000116883
0.000540756
)
;
    }
    ceiling
    {
        Cmu             0.09;
        kappa           0.41;
        E               9.8;
        type            epsilonWallFunction;
        value           nonuniform List<scalar> 
43
(
0.00150294
0.00127496
0.00137163
0.000499032
0.000537216
0.000562658
0.000588255
0.000609479
0.000628517
0.000647896
0.000665677
0.000682185
0.000696265
0.00070541
0.000705529
0.000690167
0.000626506
0.000526874
0.000459284
0.000413502
0.000393976
0.00039243
0.000401364
0.000413387
0.000419933
0.000408978
0.000368713
0.000311019
0.000279003
0.000283601
0.000284532
0.000280243
0.00029389
0.000339544
0.000400596
0.000467694
0.000478488
0.000426446
0.000372381
0.000313943
0.0164027
0.0224166
0.00614658
)
;
    }
    sWall
    {
        Cmu             0.09;
        kappa           0.41;
        E               9.8;
        type            epsilonWallFunction;
        value           uniform 0.00150294;
    }
    nWall
    {
        Cmu             0.09;
        kappa           0.41;
        E               9.8;
        type            epsilonWallFunction;
        value           nonuniform List<scalar> 6(0.000164527 0.000199072 0.000350653 0.000569562 0.00063926 0.000313943);
    }
    sideWalls
    {
        type            empty;
    }
    glass1
    {
        Cmu             0.09;
        kappa           0.41;
        E               9.8;
        type            epsilonWallFunction;
        value           nonuniform List<scalar> 9(0.00154571 0.00642304 0.00805037 0.00904111 0.00984829 0.0106538 0.0116578 0.0132158 0.0164027);
    }
    glass2
    {
        Cmu             0.09;
        kappa           0.41;
        E               9.8;
        type            epsilonWallFunction;
        value           nonuniform List<scalar> 2(0.00097796 0.000846413);
    }
    sun
    {
        Cmu             0.09;
        kappa           0.41;
        E               9.8;
        type            epsilonWallFunction;
        value           nonuniform List<scalar> 
14
(
0.00154571
0.0047158
0.00421227
0.00378209
0.00345696
0.00320067
0.00298841
0.00280357
0.00263283
0.00246695
0.00229785
0.00211702
0.0019129
0.00166384
)
;
    }
    heatsource1
    {
        Cmu             0.09;
        kappa           0.41;
        E               9.8;
        type            epsilonWallFunction;
        value           nonuniform List<scalar> 3(6.85772e-05 0.000106225 0.000164527);
    }
    heatsource2
    {
        Cmu             0.09;
        kappa           0.41;
        E               9.8;
        type            epsilonWallFunction;
        value           nonuniform List<scalar> 4(0.0012159 0.000861161 0.000861161 0.000883883);
    }
    Table_master
    {
        Cmu             0.09;
        kappa           0.41;
        E               9.8;
        type            epsilonWallFunction;
        value           nonuniform List<scalar> 9(5.82008e-05 2.78094e-05 1.93301e-05 1.54527e-05 1.28964e-05 1.09014e-05 9.28835e-06 8.01594e-06 7.27768e-06);
    }
    Table_slave
    {
        Cmu             0.09;
        kappa           0.41;
        E               9.8;
        type            epsilonWallFunction;
        value           nonuniform List<scalar> 9(0.000110162 0.000106007 0.00010413 0.000104243 0.000104409 0.000102791 9.6981e-05 8.49832e-05 7.03637e-05);
    }
    inlet
    {
        type            turbulentMixingLengthDissipationRateInlet;
        mixingLength    0.01;
        phi             phi;
        k               k;
        value           uniform 3.77336e-06;
    }
    outlet
    {
        type            zeroGradient;
    }
}


// ************************************************************************* //
