/*--------------------------------*- C++ -*----------------------------------*\
  =========                 |
  \\      /  F ield         | OpenFOAM: The Open Source CFD Toolbox
   \\    /   O peration     | Website:  https://openfoam.org
    \\  /    A nd           | Version:  6
     \\/     M anipulation  |
\*---------------------------------------------------------------------------*/
FoamFile
{
    version     2.0;
    format      ascii;
    class       volScalarField;
    location    "100";
    object      nut;
}
// * * * * * * * * * * * * * * * * * * * * * * * * * * * * * * * * * * * * * //

dimensions      [0 2 -1 0 0 0 0];

internalField   nonuniform List<scalar> 
459
(
0.00163461
0.00237082
0.00228324
0.00220271
0.00213769
0.0020835
0.00203639
0.00199351
0.0019522
0.00191031
0.00186563
0.00181535
0.00175502
0.00167529
0.00156908
0.000424662
0.000536995
0.000574758
0.000603304
0.000605084
0.000583515
0.000542024
0.000504874
0.000473055
0.000444679
0.000418849
0.000395019
0.000372791
0.000351808
0.000331667
0.000311884
0.000292061
0.000278236
0.000251669
0.00262804
0.00295423
0.00296576
0.0028741
0.00281324
0.00279702
0.00280356
0.00280851
0.00279162
0.00274955
0.00268102
0.00258358
0.00244612
0.00223055
0.00190507
0.00150899
0.00134508
0.000519234
0.00230203
0.00254919
0.00251123
0.00222315
0.00177798
0.00136415
0.00122341
0.00111707
0.00101912
0.000927453
0.000843438
0.000765592
0.000690887
0.000616138
0.000548175
0.000501636
0.000620874
0.000311112
0.00283348
0.00337915
0.00309049
0.00280205
0.00272759
0.0027872
0.00290305
0.00301354
0.0030872
0.00310803
0.00306882
0.00296791
0.00280332
0.00255782
0.00223735
0.00191769
0.00135681
0.000691144
0.00283009
0.00306362
0.00278597
0.00223425
0.0014825
0.00054752
0.000428016
0.000379215
0.000351982
0.000331406
0.000313358
0.000297075
0.000282841
0.000273887
0.000383283
0.000470975
0.000851895
0.000374125
0.00294525
0.00367954
0.00281927
0.00235647
0.00247645
0.00283163
0.00322937
0.00349406
0.00359044
0.00355262
0.00343071
0.00325562
0.0030368
0.00276035
0.00243518
0.00211029
0.0016204
0.00115175
0.00204084
0.00286211
0.00298833
0.00256986
0.00195859
0.00122887
0.000677679
0.00066912
0.000665197
0.000665463
0.00066583
0.000662388
0.000649684
0.000621722
0.00058378
0.000615551
0.000648725
0.00105553
0.000471078
0.00303042
0.00375702
0.00220282
0.00210687
0.0032142
0.0042144
0.00485776
0.00511076
0.0047426
0.00424074
0.00380397
0.00345482
0.00315116
0.00283838
0.00250865
0.00218958
0.00180292
0.00157696
0.00243579
0.00297115
0.00295941
0.00271462
0.00254324
0.00248005
0.00251856
0.00263918
0.00275392
0.0028421
0.00287869
0.0028648
0.0027922
0.00264569
0.00232444
0.0019151
0.00153809
0.00131222
0.000929108
0.00057875
0.000669548
0.000774681
0.0031109
0.0035851
0.00161635
0.00286928
0.00471541
0.00529195
0.00553978
0.0055432
0.00504111
0.00437671
0.00383933
0.00344047
0.00311375
0.0027954
0.0024812
0.00218319
0.00191911
0.00192924
0.00277273
0.00306353
0.00291477
0.00272711
0.00265423
0.002658
0.00272021
0.00281984
0.00293752
0.00305181
0.00313932
0.00317293
0.00314861
0.00307988
0.00296398
0.00268421
0.00230081
0.00184062
0.00142887
0.00106534
0.00130891
0.000825512
0.0032057
0.00321902
0.00150849
0.00267124
0.00453155
0.00480938
0.00480528
0.00468999
0.00441051
0.00400068
0.00360471
0.00326887
0.00297342
0.00268683
0.00241192
0.00217059
0.00204662
0.00225489
0.00299301
0.00311063
0.00290644
0.00277205
0.00272272
0.00269473
0.00268518
0.00271523
0.00279032
0.00288181
0.00296147
0.00300909
0.00301997
0.00302326
0.00304902
0.00304642
0.00281394
0.00243545
0.0020672
0.00184318
0.00173795
0.000996982
0.00334259
0.00317265
0.00180241
0.00178172
0.003526
0.00383037
0.00381399
0.00377148
0.00367664
0.0034945
0.00326828
0.00303703
0.00280947
0.00258214
0.00236687
0.0022048
0.00220276
0.00252977
0.00313354
0.00321875
0.00306162
0.00298037
0.00293368
0.00286582
0.00278366
0.00273274
0.00274847
0.00280392
0.00285607
0.00287974
0.00287657
0.0028999
0.00301034
0.0032284
0.00345589
0.00339425
0.00347549
0.00355952
0.00382994
0.00140327
0.00359219
0.00398636
0.00299319
0.00161157
0.00248745
0.00310319
0.00317355
0.00319176
0.00317161
0.00311023
0.00300466
0.00287332
0.00272682
0.00257084
0.00242078
0.00232708
0.00239799
0.00278747
0.0033379
0.00352325
0.00345836
0.00336266
0.00329045
0.00318992
0.00304999
0.00291293
0.00285281
0.00286456
0.00288906
0.00287563
0.0027935
0.00267958
0.00259998
0.00255724
0.00252242
0.00247951
0.00237599
0.00220267
0.00202624
0.00133729
0.00463037
0.00210893
0.00245587
0.00280231
0.00292541
0.00300184
0.00303437
0.0030259
0.00299303
0.0029403
0.00286893
0.00277956
0.00268118
0.0026194
0.00270705
0.00313592
0.00361532
0.00389285
0.00387391
0.00376914
0.00368699
0.00359701
0.00345851
0.00325997
0.00310701
0.0030544
0.00307391
0.00308992
0.00302829
0.0028862
0.00272984
0.00264789
0.00259575
0.0025192
0.0023889
0.00221297
0.0019915
0.00117195
0.00258973
0.00225656
0.00269569
0.0025643
0.00261906
0.00270298
0.00277031
0.00278756
0.00281764
0.00284878
0.00287043
0.00287081
0.0028403
0.00279678
0.00281654
0.0029522
0.00317654
0.00354799
0.00380715
0.0039819
0.00407844
0.00409789
0.0040332
0.00387056
0.00362718
0.00340846
0.00338434
0.00354038
0.00363717
0.00356647
0.0033483
0.00305699
0.0028538
0.00271524
0.00254747
0.00244788
0.00260201
0.00121794
0.00161936
0.00153296
0.00157074
0.00112138
0.00114928
0.00116713
0.00118457
0.00119864
0.00121099
0.00122331
0.00123439
0.00124451
0.00125301
0.00125846
0.00125852
0.0012493
0.00120961
0.00114175
0.0010907
0.00105322
0.00103639
0.00103506
0.00104288
0.00105323
0.00105884
0.00104971
0.00101431
0.000958449
0.000924028
0.000928892
0.000930021
0.000925336
0.000940022
0.000986355
0.00104226
0.00109741
0.00110577
0.0010641
0.00101712
0.000960853
)
;

boundaryField
{
    floor
    {
        type            nutkWallFunction;
        Cmu             0.09;
        kappa           0.41;
        E               9.8;
        value           nonuniform List<scalar> 
29
(
0.000185957
4.99799e-05
6.44161e-05
6.91913e-05
7.27718e-05
7.29951e-05
7.0295e-05
6.50665e-05
6.03422e-05
5.62615e-05
5.25935e-05
4.92288e-05
4.61011e-05
4.31617e-05
4.03662e-05
3.76624e-05
3.49857e-05
3.2281e-05
3.03787e-05
2.66905e-05
2.66904e-05
3.48728e-05
4.33229e-05
5.59764e-05
0.000185957
4.99799e-05
6.21652e-05
8.36437e-05
0.000138463
)
;
    }
    ceiling
    {
        type            nutkWallFunction;
        Cmu             0.09;
        kappa           0.41;
        E               9.8;
        value           nonuniform List<scalar> 
43
(
0.000191613
0.000181923
0.000186133
0.000134935
0.000138173
0.000140241
0.000142257
0.000143881
0.000145305
0.000146724
0.000147999
0.000149162
0.000150138
0.000150764
0.000150772
0.000149714
0.00014515
0.000137305
0.000131367
0.000126986
0.000125013
0.000124854
0.000125768
0.000126977
0.000127625
0.000126542
0.000122369
0.000115778
0.000111729
0.000112323
0.000112447
0.00011189
0.000113641
0.000119119
0.000125687
0.000132134
0.000133109
0.000128253
0.000122745
0.000116114
0.000401435
0.000441639
0.000296912
)
;
    }
    sWall
    {
        type            nutkWallFunction;
        Cmu             0.09;
        kappa           0.41;
        E               9.8;
        value           uniform 0.000191656;
    }
    nWall
    {
        type            nutkWallFunction;
        Cmu             0.09;
        kappa           0.41;
        E               9.8;
        value           nonuniform List<scalar> 6(9.38316e-05 9.99714e-05 0.000120377 0.00014079 0.000146093 0.000116119);
    }
    sideWalls
    {
        type            empty;
    }
    glass1
    {
        type            nutkWallFunction;
        Cmu             0.09;
        kappa           0.41;
        E               9.8;
        value           nonuniform List<scalar> 9(0.000193506 0.000301388 0.000323094 0.000334832 0.000343744 0.000352139 0.000362001 0.000376188 0.000401909);
    }
    glass2
    {
        type            nutkWallFunction;
        Cmu             0.09;
        kappa           0.41;
        E               9.8;
        value           nonuniform List<scalar> 2(0.000167304 0.000159806);
    }
    sun
    {
        type            nutkWallFunction;
        Cmu             0.09;
        kappa           0.41;
        E               9.8;
        value           nonuniform List<scalar> 
14
(
0.000193315
0.000273627
0.000264224
0.000255546
0.000248515
0.000242638
0.000237516
0.000232842
0.000228329
0.000223743
0.000218839
0.000213306
0.000206646
0.000197805
)
;
    }
    heatsource1
    {
        type            nutkWallFunction;
        Cmu             0.09;
        kappa           0.41;
        E               9.8;
        value           nonuniform List<scalar> 3(6.96717e-05 8.0977e-05 9.38318e-05);
    }
    heatsource2
    {
        type            nutkWallFunction;
        Cmu             0.09;
        kappa           0.41;
        E               9.8;
        value           nonuniform List<scalar> 4(0.000179213 0.000160668 0.000160668 0.000162003);
    }
    Table_master
    {
        type            nutkWallFunction;
        Cmu             0.09;
        kappa           0.41;
        E               9.8;
        value           nonuniform List<scalar> 9(6.57783e-05 5.04451e-05 4.40269e-05 4.04007e-05 3.76384e-05 3.51978e-05 3.29803e-05 3.10288e-05 2.97937e-05);
    }
    Table_slave
    {
        type            nutkWallFunction;
        Cmu             0.09;
        kappa           0.41;
        E               9.8;
        value           nonuniform List<scalar> 9(8.1983e-05 8.09215e-05 8.04326e-05 8.0463e-05 8.0507e-05 8.00807e-05 7.8508e-05 7.50357e-05 7.02982e-05);
    }
    inlet
    {
        type            calculated;
        value           uniform 3.3541e-05;
    }
    outlet
    {
        type            calculated;
        value           nonuniform List<scalar> 2(0.00161936 0.00153296);
    }
}


// ************************************************************************* //
