/*--------------------------------*- C++ -*----------------------------------*\
  =========                 |
  \\      /  F ield         | OpenFOAM: The Open Source CFD Toolbox
   \\    /   O peration     | Website:  https://openfoam.org
    \\  /    A nd           | Version:  6
     \\/     M anipulation  |
\*---------------------------------------------------------------------------*/
FoamFile
{
    version     2.0;
    format      ascii;
    class       volScalarField;
    location    "100";
    object      epsilon;
}
// * * * * * * * * * * * * * * * * * * * * * * * * * * * * * * * * * * * * * //

dimensions      [0 2 -3 0 0 0 0];

internalField   nonuniform List<scalar> 
459
(
0.000487682
0.000644701
0.000693595
0.000804564
0.000918436
0.00103674
0.0011662
0.0012895
0.00137416
0.00139833
0.0013486
0.00122402
0.00103635
0.000812348
0.000601226
5.66315e-05
0.000104399
0.000156967
0.000164649
0.000156133
0.000141244
0.000119862
9.97878e-05
8.34734e-05
7.05864e-05
6.03849e-05
5.22291e-05
4.55899e-05
4.00478e-05
3.53361e-05
3.10777e-05
2.68649e-05
2.25008e-05
1.6267e-05
0.00118716
0.00166214
0.000610801
0.000602039
0.000638674
0.000697846
0.000784697
0.000888255
0.000976596
0.00102047
0.00100442
0.000928565
0.000805738
0.000658394
0.000543222
0.000665562
0.000173324
6.32537e-05
0.000166844
0.000181665
0.000170555
0.000149988
0.000130419
0.000123939
0.000102183
8.21404e-05
6.59908e-05
5.33324e-05
4.34629e-05
3.5687e-05
2.94475e-05
2.46479e-05
2.18084e-05
2.10429e-05
2.88005e-05
2.30996e-05
0.00211683
0.00393542
0.000737091
0.000572807
0.000613037
0.000705786
0.000840477
0.000992759
0.00111343
0.00116903
0.00115402
0.0010747
0.000949309
0.000800128
0.00068049
0.000634603
0.000810179
0.000444786
0.000342436
0.000275238
0.000223029
0.000181871
0.000158999
0.000319297
0.000221995
0.000158683
0.000116666
8.79159e-05
6.76089e-05
5.28795e-05
4.2133e-05
3.47586e-05
2.56406e-05
2.13098e-05
3.65747e-05
2.82705e-05
0.00337287
0.00807038
0.00114392
0.000584724
0.000610996
0.000748635
0.000966516
0.00118171
0.00131925
0.00136267
0.00132869
0.00122612
0.00107587
0.000914548
0.000776826
0.000694479
0.000695687
0.00133822
0.000782939
0.000498271
0.000350176
0.000262434
0.000205748
0.000179407
0.000423802
0.00030892
0.000238263
0.00019036
0.000155791
0.000128699
0.000105773
8.51574e-05
6.53721e-05
3.75748e-05
2.45058e-05
4.51729e-05
3.30042e-05
0.00509287
0.0143393
0.0022485
0.000719964
0.000666699
0.000879544
0.00127259
0.00152797
0.00163517
0.00163339
0.00155614
0.00141454
0.00122432
0.00101321
0.000814437
0.0006545
0.000549208
0.000512887
0.000440326
0.000367091
0.000302846
0.000247966
0.000202058
0.000167266
0.000157639
0.000142407
0.000128077
0.000114309
0.000101008
8.78889e-05
7.48663e-05
6.21449e-05
4.98258e-05
3.61224e-05
2.58803e-05
3.84297e-05
3.08475e-05
5.77484e-05
0.000107427
0.000147659
0.00748326
0.0213194
0.00506948
0.00145146
0.00112134
0.00157971
0.00200049
0.00213271
0.00211731
0.00203047
0.00188709
0.00168287
0.00142486
0.00114176
0.000874006
0.000657572
0.000511866
0.000432875
0.00038267
0.0003351
0.000284936
0.000236222
0.00019284
0.000158178
0.00013664
0.000124225
0.000115016
0.000105377
9.44281e-05
8.22566e-05
6.94902e-05
5.68115e-05
4.50419e-05
3.4966e-05
2.86772e-05
3.33901e-05
3.1512e-05
4.26304e-05
0.000194878
0.000162362
0.0102001
0.0255086
0.0103818
0.00468407
0.00358455
0.0036053
0.00339016
0.0031051
0.00283858
0.00259786
0.00234529
0.0020421
0.00168413
0.00130479
0.000955418
0.00068403
0.000509376
0.000414871
0.000358664
0.000309561
0.000259613
0.00021288
0.00017368
0.00014482
0.000128069
0.000120259
0.000115059
0.000109144
0.000101556
9.17102e-05
8.04153e-05
6.84965e-05
5.65997e-05
4.64077e-05
4.19748e-05
4.56626e-05
5.42362e-05
8.7445e-05
0.000214217
0.000207672
0.0107795
0.027172
0.0154822
0.0108566
0.00840053
0.00647633
0.00514514
0.00428493
0.00373278
0.0033301
0.00294293
0.00249132
0.00197834
0.00145872
0.00100042
0.000671754
0.000477389
0.000375873
0.000313125
0.000262621
0.000217163
0.000179492
0.000151557
0.000133673
0.000124767
0.000121789
0.00012139
0.000121981
0.000123185
0.000124494
0.00012455
0.00012441
0.000124418
0.000126304
0.000140415
0.00020628
0.000388568
0.000840963
0.00287932
0.000880239
0.00994865
0.0164737
0.0130762
0.00999929
0.00780376
0.0063972
0.00554321
0.00502913
0.00465342
0.00424039
0.0036731
0.0029342
0.0021465
0.00142826
0.000846688
0.000532796
0.000382621
0.000303788
0.000252296
0.000211824
0.00017898
0.000154138
0.000137219
0.000127291
0.000122906
0.000122399
0.000124627
0.000129452
0.000137516
0.000150043
0.000169149
0.000198276
0.000245191
0.00032133
0.000443181
0.000626757
0.000861428
0.00108851
0.00124331
0.000777296
0.00322322
0.00498258
0.00638165
0.0067703
0.0067797
0.00646795
0.00578478
0.00478115
0.0035207
0.00218208
0.00132306
0.000799834
0.000501215
0.000350988
0.000273672
0.000228943
0.000198469
0.000175457
0.000157833
0.000144839
0.000135497
0.000128595
0.000123426
0.000119883
0.000118546
0.000120529
0.000127083
0.000139596
0.000160163
0.000191977
0.000240029
0.000311105
0.000411137
0.00053693
0.000662843
0.000741147
0.000737383
0.000500218
0.00246089
0.00659677
0.00734994
0.0063175
0.00553364
0.00463887
0.00359726
0.00260292
0.00177863
0.00113699
0.000727976
0.000492137
0.000366601
0.000304449
0.000273771
0.000257846
0.000248512
0.000241821
0.000235688
0.000228848
0.000220486
0.000210444
0.000199146
0.000187748
0.000177828
0.000171027
0.000168921
0.000173103
0.000185315
0.0002081
0.000245122
0.000300605
0.000376404
0.000466092
0.000545623
0.000641613
0.000707881
0.000540422
0.0018825
0.00225101
0.00253453
0.00327868
0.00304423
0.00282764
0.00263703
0.00231652
0.00190019
0.00147045
0.00108902
0.000787003
0.000576306
0.000443135
0.000360588
0.000307149
0.00026992
0.000242043
0.000220198
0.00020275
0.000188672
0.000177224
0.000167982
0.000160822
0.000156033
0.000154047
0.000155279
0.000160057
0.000168626
0.000181243
0.000198471
0.000221272
0.000251185
0.000290387
0.000341003
0.000406047
0.000445904
0.000420287
0.000354479
0.000298784
)
;

boundaryField
{
    floor
    {
        Cmu             0.09;
        kappa           0.41;
        E               9.8;
        type            epsilonWallFunction;
        value           nonuniform List<scalar> 
29
(
0.000601226
5.66315e-05
0.000104399
0.000156967
0.000164649
0.000156133
0.000141244
0.000119862
9.97878e-05
8.34734e-05
7.05864e-05
6.03849e-05
5.22291e-05
4.55899e-05
4.00478e-05
3.53361e-05
3.10777e-05
2.68649e-05
2.25008e-05
1.6267e-05
1.6267e-05
2.30996e-05
2.82705e-05
3.30042e-05
0.000601226
5.66315e-05
6.32537e-05
0.000444786
0.00133822
)
;
    }
    ceiling
    {
        Cmu             0.09;
        kappa           0.41;
        E               9.8;
        type            epsilonWallFunction;
        value           nonuniform List<scalar> 
43
(
0.0018825
0.00225101
0.00253453
0.00327868
0.00304423
0.00282764
0.00263703
0.00231652
0.00190019
0.00147045
0.00108902
0.000787003
0.000576306
0.000443135
0.000360588
0.000307149
0.00026992
0.000242043
0.000220198
0.00020275
0.000188672
0.000177224
0.000167982
0.000160822
0.000156033
0.000154047
0.000155279
0.000160057
0.000168626
0.000181243
0.000198471
0.000221272
0.000251185
0.000290387
0.000341003
0.000406047
0.000445904
0.000420287
0.000354479
0.000298784
0.00994865
0.0164737
0.00246089
)
;
    }
    sWall
    {
        Cmu             0.09;
        kappa           0.41;
        E               9.8;
        type            epsilonWallFunction;
        value           uniform 0.0018825;
    }
    nWall
    {
        Cmu             0.09;
        kappa           0.41;
        E               9.8;
        type            epsilonWallFunction;
        value           nonuniform List<scalar> 6(0.000147659 0.000162362 0.000207672 0.000500218 0.000540422 0.000298784);
    }
    sideWalls
    {
        type            empty;
    }
    glass1
    {
        Cmu             0.09;
        kappa           0.41;
        E               9.8;
        type            epsilonWallFunction;
        value           nonuniform List<scalar> 9(0.000487682 0.00118716 0.00211683 0.00337287 0.00509287 0.00748326 0.0102001 0.0107795 0.00994865);
    }
    glass2
    {
        Cmu             0.09;
        kappa           0.41;
        E               9.8;
        type            epsilonWallFunction;
        value           nonuniform List<scalar> 2(0.000880239 0.000777296);
    }
    sun
    {
        Cmu             0.09;
        kappa           0.41;
        E               9.8;
        type            epsilonWallFunction;
        value           nonuniform List<scalar> 
14
(
0.000487682
0.000644701
0.000693595
0.000804564
0.000918436
0.00103674
0.0011662
0.0012895
0.00137416
0.00139833
0.0013486
0.00122402
0.00103635
0.000812348
)
;
    }
    heatsource1
    {
        Cmu             0.09;
        kappa           0.41;
        E               9.8;
        type            epsilonWallFunction;
        value           nonuniform List<scalar> 3(5.77484e-05 0.000107427 0.000147659);
    }
    heatsource2
    {
        Cmu             0.09;
        kappa           0.41;
        E               9.8;
        type            epsilonWallFunction;
        value           nonuniform List<scalar> 4(0.000665562 0.000173324 0.000173324 0.000810179);
    }
    Table_master
    {
        Cmu             0.09;
        kappa           0.41;
        E               9.8;
        type            epsilonWallFunction;
        value           nonuniform List<scalar> 9(0.000319297 0.000221995 0.000158683 0.000116666 8.79159e-05 6.76089e-05 5.28795e-05 4.2133e-05 3.47586e-05);
    }
    Table_slave
    {
        Cmu             0.09;
        kappa           0.41;
        E               9.8;
        type            epsilonWallFunction;
        value           nonuniform List<scalar> 9(0.000423802 0.00030892 0.000238263 0.00019036 0.000155791 0.000128699 0.000105773 8.51574e-05 6.53721e-05);
    }
    inlet
    {
        type            turbulentMixingLengthDissipationRateInlet;
        mixingLength    0.01;
        phi             phi;
        k               k;
        value           uniform 0.000101881;
    }
    outlet
    {
        type            zeroGradient;
    }
}


// ************************************************************************* //
