// -*- C++ -*-
// File generated by PyFoam - sorry for the ugliness

FoamFile
{
 version 2.0;
 format ascii;
 class volScalarField;
 location "100";
 object T;
}

dimensions [ 0 0 0 1 0 0 0 ];

internalField nonuniform List<scalar> 459
(
  303.584
  303.329
  303.315
  303.31
  303.305
  303.3
  303.294
  303.287
  303.276
  303.264
  303.252
  303.242
  303.238
  303.238
  303.246
  303.407
  303.371
  303.354
  303.357
  303.362
  303.368
  303.374
  303.381
  303.388
  303.396
  303.406
  303.416
  303.429
  303.443
  303.459
  303.478
  303.501
  303.533
  303.585
  303.754
  303.372
  303.347
  303.348
  303.349
  303.348
  303.343
  303.331
  303.311
  303.284
  303.258
  303.237
  303.225
  303.221
  303.224
  303.228
  303.246
  303.415
  303.344
  303.335
  303.34
  303.349
  303.358
  303.362
  303.366
  303.37
  303.375
  303.381
  303.39
  303.4
  303.414
  303.43
  303.452
  303.48
  303.518
  303.579
  303.934
  303.423
  303.384
  303.393
  303.405
  303.412
  303.413
  303.397
  303.362
  303.316
  303.27
  303.235
  303.216
  303.211
  303.214
  303.22
  303.227
  303.315
  303.309
  303.319
  303.337
  303.357
  303.373
  303.373
  303.373
  303.374
  303.377
  303.381
  303.389
  303.401
  303.417
  303.436
  303.457
  303.483
  303.519
  303.58
  304.116
  303.485
  303.422
  303.438
  303.465
  303.489
  303.5
  303.479
  303.421
  303.348
  303.28
  303.23
  303.205
  303.201
  303.207
  303.217
  303.226
  303.24
  303.261
  303.292
  303.325
  303.359
  303.39
  303.414
  303.432
  303.446
  303.459
  303.47
  303.481
  303.492
  303.504
  303.517
  303.532
  303.52
  303.518
  303.535
  303.587
  304.294
  303.565
  303.467
  303.479
  303.519
  303.563
  303.59
  303.554
  303.465
  303.363
  303.277
  303.218
  303.191
  303.189
  303.202
  303.221
  303.242
  303.267
  303.299
  303.337
  303.378
  303.417
  303.451
  303.48
  303.504
  303.524
  303.54
  303.553
  303.565
  303.574
  303.581
  303.585
  303.586
  303.572
  303.555
  303.555
  303.591
  303.694
  303.761
  303.763
  304.455
  303.668
  303.542
  303.537
  303.581
  303.646
  303.653
  303.585
  303.471
  303.35
  303.251
  303.19
  303.168
  303.177
  303.204
  303.239
  303.276
  303.316
  303.359
  303.406
  303.452
  303.493
  303.528
  303.557
  303.58
  303.599
  303.615
  303.627
  303.636
  303.64
  303.642
  303.639
  303.632
  303.615
  303.591
  303.578
  303.595
  303.651
  303.68
  303.721
  304.606
  303.832
  303.708
  303.691
  303.718
  303.749
  303.691
  303.567
  303.415
  303.278
  303.181
  303.135
  303.136
  303.17
  303.224
  303.282
  303.339
  303.393
  303.447
  303.496
  303.541
  303.58
  303.612
  303.637
  303.657
  303.672
  303.685
  303.694
  303.698
  303.696
  303.692
  303.684
  303.672
  303.652
  303.626
  303.606
  303.609
  303.635
  303.655
  303.69
  304.82
  304.244
  304.108
  304.044
  303.989
  303.852
  303.649
  303.431
  303.243
  303.114
  303.056
  303.062
  303.114
  303.192
  303.281
  303.366
  303.438
  303.499
  303.553
  303.597
  303.635
  303.666
  303.69
  303.709
  303.723
  303.734
  303.741
  303.745
  303.745
  303.74
  303.732
  303.722
  303.71
  303.692
  303.667
  303.649
  303.65
  303.673
  303.7
  303.826
  305.128
  304.855
  304.606
  304.358
  303.992
  303.56
  303.196
  302.954
  302.841
  302.835
  302.906
  303.026
  303.156
  303.284
  303.409
  303.5
  303.564
  303.613
  303.654
  303.688
  303.715
  303.738
  303.755
  303.767
  303.775
  303.78
  303.783
  303.782
  303.78
  303.777
  303.773
  303.77
  303.77
  303.774
  303.785
  303.809
  303.845
  303.882
  303.904
  303.955
  296.069
  297.466
  298.828
  300.024
  300.954
  301.681
  302.234
  302.645
  302.964
  303.222
  303.379
  303.489
  303.572
  303.631
  303.675
  303.71
  303.738
  303.761
  303.779
  303.792
  303.801
  303.808
  303.811
  303.813
  303.814
  303.814
  303.814
  303.813
  303.813
  303.813
  303.816
  303.823
  303.835
  303.854
  303.879
  303.905
  303.926
  303.948
  296.692
  298.483
  300.127
  301.316
  302.039
  302.537
  302.893
  303.149
  303.331
  303.469
  303.566
  303.635
  303.686
  303.724
  303.753
  303.776
  303.794
  303.807
  303.817
  303.824
  303.829
  303.832
  303.834
  303.836
  303.837
  303.837
  303.838
  303.838
  303.839
  303.84
  303.842
  303.847
  303.855
  303.867
  303.883
  303.903
  303.903
  303.932
  299.868
  299.79
  299.788
  301.741
  302.542
  302.914
  303.137
  303.304
  303.434
  303.533
  303.609
  303.667
  303.71
  303.742
  303.765
  303.782
  303.795
  303.805
  303.812
  303.817
  303.821
  303.824
  303.827
  303.83
  303.832
  303.834
  303.837
  303.839
  303.841
  303.843
  303.845
  303.848
  303.85
  303.854
  303.858
  303.866
  303.877
  303.884
  303.886
  303.926
)
;

boundaryField
{
  floor
  {
    type wallHeatTransfer;
    Tinf uniform 305.2;
    alphaWall uniform 0.24;
    value nonuniform List<scalar> 29
(
  303.437
  303.718
  303.646
  303.606
  303.606
  303.613
  303.625
  303.64
  303.657
  303.675
  303.693
  303.712
  303.731
  303.751
  303.772
  303.794
  303.819
  303.848
  303.886
  303.951
  303.951
  303.921
  303.907
  303.902
  303.437
  303.718
  303.717
  303.514
  303.396
)
;
  }
  ceiling
  {
    type wallHeatTransfer;
    Tinf uniform 303.2;
    alphaWall uniform 0.24;
    value nonuniform List<scalar> 43
(
  300.108
  300.024
  300.015
  301.832
  302.584
  302.933
  303.141
  303.297
  303.417
  303.507
  303.575
  303.625
  303.66
  303.685
  303.702
  303.715
  303.724
  303.73
  303.735
  303.738
  303.74
  303.742
  303.743
  303.744
  303.746
  303.747
  303.749
  303.752
  303.755
  303.758
  303.762
  303.766
  303.771
  303.777
  303.784
  303.794
  303.806
  303.81
  303.809
  303.841
  305.039
  304.788
  297.125
)
;
  }
  sWall
  {
    type wallHeatTransfer;
    Tinf uniform 315.2;
    alphaWall uniform 0.36;
    value uniform 301.472;
  }
  nWall
  {
    type wallHeatTransfer;
    Tinf uniform 307.2;
    alphaWall uniform 0.36;
    value nonuniform List<scalar> 6
(
  304.432
  304.384
  304.323
  304.425
  304.402
  304.469
)
;
  }
  sideWalls
  {
    type empty;
  }
  glass1
  {
    type wallHeatTransfer;
    Tinf uniform 315.2;
    alphaWall uniform 4.3;
    value nonuniform List<scalar> 9
(
  311.462
  310.856
  310.475
  310.184
  309.939
  309.716
  309.554
  309.627
  309.853
)
;
  }
  glass2
  {
    type wallHeatTransfer;
    Tinf uniform 307.2;
    alphaWall uniform 4.3;
    value nonuniform List<scalar> 2
(
  305.976
  306.049
)
;
  }
  sun
  {
    type wallHeatTransfer;
    Tinf uniform 305.2;
    alphaWall uniform 0.24;
    value nonuniform List<scalar> 14
(
  303.751
  303.509
  303.493
  303.482
  303.472
  303.462
  303.451
  303.44
  303.428
  303.416
  303.406
  303.402
  303.404
  303.416
)
;
  }
  heatsource1
  {
    type fixedGradient;
    gradient uniform 0;
  }
  heatsource2
  {
    type fixedGradient;
    gradient uniform 0;
  }
  Table_master
  {
    type zeroGradient;
  }
  Table_slave
  {
    type zeroGradient;
  }
  inlet
  {
    type fixedValue;
    value uniform 293.15;
  }
  outlet
  {
    type zeroGradient;
  }
} 	// ************************************************************************* //

