// -*- C++ -*-
// File generated by PyFoam - sorry for the ugliness

FoamFile
{
 version 2.0;
 format ascii;
 class volVectorField;
 location "540";
 object U;
}

dimensions [ 0 1 -1 0 0 0 0 ];

internalField nonuniform List<vector> 459
(
  (0.0271477 0.0713399 0)
  (-0.13839 0.02232 0)
  (-0.161365 0.0167117 0)
  (-0.190094 0.0122975 0)
  (-0.212521 0.0074418 0)
  (-0.227922 0.00226557 0)
  (-0.235111 -0.00335788 0)
  (-0.23245 -0.00954885 0)
  (-0.219158 -0.0163652 0)
  (-0.195396 -0.0230576 0)
  (-0.162887 -0.0285942 0)
  (-0.124893 -0.0320749 0)
  (-0.0852234 -0.0327319 0)
  (-0.0454665 -0.030045 0)
  (0.00114057 -0.0256727 0)
  (-0.120007 0.000319279 0)
  (0.0404901 -0.00320529 0)
  (0.0200253 -0.00306561 0)
  (0.0177172 -0.00311275 0)
  (0.022172 -0.00190308 0)
  (0.0252196 -0.000810924 0)
  (0.0263119 -0.00088299 0)
  (0.0271418 -0.00106335 0)
  (0.0281459 -0.001012 0)
  (0.0291065 -0.00088969 0)
  (0.0298349 -0.000771782 0)
  (0.0302438 -0.000629859 0)
  (0.0302263 -0.000384112 0)
  (0.0295268 0.000138388 0)
  (0.0276455 0.00126494 0)
  (0.0238993 0.00336431 0)
  (0.0194286 0.0048127 0)
  (-0.0492093 0.0116396 0)
  (0.144711 -0.0100041 0)
  (0.170493 0.145931 0)
  (-0.131226 0.0578486 0)
  (-0.132682 0.048005 0)
  (-0.162482 0.0393101 0)
  (-0.184705 0.0294443 0)
  (-0.200219 0.018353 0)
  (-0.207974 0.00557234 0)
  (-0.206228 -0.00921422 0)
  (-0.194297 -0.0252237 0)
  (-0.172826 -0.0401627 0)
  (-0.14392 -0.0515322 0)
  (-0.110999 -0.0575255 0)
  (-0.0780614 -0.0570309 0)
  (-0.0490441 -0.0496524 0)
  (-0.0267421 -0.0357678 0)
  (-0.011544 -0.0155491 0)
  (-0.00561939 0.0143796 0)
  (-0.153466 0.00146644 0)
  (0.0392698 -0.0176786 0)
  (0.0283241 -0.0120272 0)
  (0.0302669 -0.00793722 0)
  (0.0342169 -0.00361735 0)
  (0.035729 -0.00021822 0)
  (0.035458 -0.000714531 0)
  (0.035652 -0.00106195 0)
  (0.036067 -0.000796516 0)
  (0.0363859 -0.000318151 0)
  (0.0366114 0.00020769 0)
  (0.0368077 0.000858303 0)
  (0.036951 0.00177434 0)
  (0.036949 0.0031548 0)
  (0.0363646 0.00562558 0)
  (0.0334493 0.0113173 0)
  (0.0328084 0.0157802 0)
  (-0.0478194 0.0204354 0)
  (0.204674 -0.000441177 0)
  (0.303067 0.219159 0)
  (-0.145851 0.0924706 0)
  (-0.101522 0.0780613 0)
  (-0.13077 0.062254 0)
  (-0.150706 0.0457564 0)
  (-0.1653 0.0275987 0)
  (-0.173277 0.00678693 0)
  (-0.172009 -0.017071 0)
  (-0.160401 -0.0425964 0)
  (-0.140015 -0.0655722 0)
  (-0.11353 -0.0818915 0)
  (-0.0843619 -0.0891515 0)
  (-0.0558293 -0.0862573 0)
  (-0.0308606 -0.0734168 0)
  (-0.0112398 -0.0518122 0)
  (0.00366341 -0.023771 0)
  (0.00446937 0.0114695 0)
  (-0.0686443 -0.017456 0)
  (0.0357745 -0.0268385 0)
  (0.0480056 -0.0223124 0)
  (0.0494676 -0.0140491 0)
  (0.050722 -0.00567434 0)
  (0.0493923 0.000865755 0)
  (0.0445759 -0.00293623 0)
  (0.0428826 -0.0036085 0)
  (0.0419914 -0.00397231 0)
  (0.04099 -0.00419824 0)
  (0.0400411 -0.00438636 0)
  (0.0393979 -0.00449463 0)
  (0.0392907 -0.00438842 0)
  (0.0402154 -0.00371323 0)
  (0.0432933 -0.000848351 0)
  (0.0432302 0.0134166 0)
  (0.044411 0.022503 0)
  (-0.0247982 0.027212 0)
  (0.222827 0.0244122 0)
  (0.424331 0.278641 0)
  (-0.175278 0.123038 0)
  (-0.0676033 0.104005 0)
  (-0.0960961 0.0822259 0)
  (-0.11099 0.0612802 0)
  (-0.12274 0.0379963 0)
  (-0.129858 0.0102512 0)
  (-0.127874 -0.0228747 0)
  (-0.115267 -0.0584365 0)
  (-0.0958337 -0.0889958 0)
  (-0.0725481 -0.1094 0)
  (-0.0483499 -0.11754 0)
  (-0.0253178 -0.112777 0)
  (-0.00482394 -0.0961479 0)
  (0.0136401 -0.0693406 0)
  (0.0310678 -0.039657 0)
  (0.0526216 -0.0171278 0)
  (0.0811158 -0.0731568 0)
  (0.0892021 -0.0463543 0)
  (0.0864611 -0.0357884 0)
  (0.0779296 -0.0264221 0)
  (0.0712827 -0.0159193 0)
  (0.068496 -0.00615835 0)
  (0.068299 0.00262338 0)
  (0.0698563 0.00253363 0)
  (0.0675163 0.00102586 0)
  (0.0644281 0.000202008 0)
  (0.0616813 -0.00022052 0)
  (0.0590442 -0.00041028 0)
  (0.0561282 -0.000378983 0)
  (0.0525859 -5.30054e-05 0)
  (0.0478374 0.000752396 0)
  (0.0403837 0.00232569 0)
  (0.0367905 0.0165451 0)
  (0.0445463 0.0261323 0)
  (-0.00863128 0.0302713 0)
  (0.234984 0.0561055 0)
  (0.531957 0.324955 0)
  (-0.212189 0.147876 0)
  (-0.0323119 0.120116 0)
  (-0.0594032 0.0947912 0)
  (-0.0669601 0.0715646 0)
  (-0.0734952 0.0452437 0)
  (-0.0779312 0.0124052 0)
  (-0.0721239 -0.0290386 0)
  (-0.0571234 -0.0740251 0)
  (-0.0400893 -0.109548 0)
  (-0.0222672 -0.131498 0)
  (-0.00553031 -0.138987 0)
  (0.00968348 -0.131781 0)
  (0.0225853 -0.113043 0)
  (0.0350747 -0.0864475 0)
  (0.0486605 -0.0575112 0)
  (0.0649191 -0.0337232 0)
  (0.0778997 -0.0259795 0)
  (0.0807747 -0.0225497 0)
  (0.0748702 -0.0199625 0)
  (0.067939 -0.0149534 0)
  (0.0624804 -0.00821256 0)
  (0.0589969 -0.00177424 0)
  (0.0569205 0.00288424 0)
  (0.0550553 0.0038237 0)
  (0.0524457 0.00392763 0)
  (0.0494907 0.00410461 0)
  (0.0466936 0.00434009 0)
  (0.0440606 0.00466638 0)
  (0.041445 0.00523723 0)
  (0.0387503 0.00624896 0)
  (0.0359539 0.00795167 0)
  (0.0330479 0.0107131 0)
  (0.0322792 0.0170412 0)
  (0.0414651 0.0223636 0)
  (0.0176472 0.020494 0)
  (0.113674 0.0534009 0)
  (0.0827415 0.0531302 0)
  (-0.0961209 0.0563291 0)
  (0.334331 -0.0215604 0)
  (0.613584 0.363656 0)
  (-0.249974 0.164747 0)
  (-0.00258421 0.120291 0)
  (-0.0218581 0.0991684 0)
  (-0.0213056 0.0764981 0)
  (-0.0214187 0.0494712 0)
  (-0.0215839 0.01417 0)
  (-0.00413727 -0.0374499 0)
  (0.0126651 -0.0905165 0)
  (0.0243303 -0.125722 0)
  (0.0338292 -0.145437 0)
  (0.0406118 -0.150305 0)
  (0.0451341 -0.1416 0)
  (0.0484703 -0.122 0)
  (0.0517789 -0.0955551 0)
  (0.0560248 -0.0677499 0)
  (0.0613477 -0.0446071 0)
  (0.0642678 -0.0316464 0)
  (0.0618791 -0.0246787 0)
  (0.055917 -0.0181817 0)
  (0.0495686 -0.0113494 0)
  (0.0441972 -0.0047083 0)
  (0.0399542 0.000952781 0)
  (0.0373011 0.00480722 0)
  (0.0352994 0.00633581 0)
  (0.033266 0.00656596 0)
  (0.031136 0.00648047 0)
  (0.0291016 0.00641646 0)
  (0.0272181 0.00652187 0)
  (0.0254784 0.00694314 0)
  (0.0239331 0.0078247 0)
  (0.0227207 0.0092941 0)
  (0.0219828 0.0113886 0)
  (0.0226801 0.0142019 0)
  (0.0277179 0.0154393 0)
  (0.0159834 0.00720075 0)
  (0.0383694 0.0322033 0)
  (0.0421392 0.055 0)
  (-0.134651 0.0727446 0)
  (0.349025 -0.040254 0)
  (0.65758 0.397937 0)
  (-0.272554 0.153271 0)
  (0.0204546 0.0849161 0)
  (0.023724 0.0898286 0)
  (0.0298304 0.0754311 0)
  (0.0360853 0.045995 0)
  (0.0504692 0.000859059 0)
  (0.0744341 -0.0558649 0)
  (0.0876282 -0.102021 0)
  (0.0921915 -0.132932 0)
  (0.0912252 -0.148715 0)
  (0.0861594 -0.150513 0)
  (0.0784673 -0.139972 0)
  (0.0698815 -0.11978 0)
  (0.0618387 -0.0937574 0)
  (0.0552395 -0.0668765 0)
  (0.0501278 -0.0440933 0)
  (0.045003 -0.028724 0)
  (0.038632 -0.0189585 0)
  (0.0317495 -0.0115838 0)
  (0.0255174 -0.00529979 0)
  (0.0203724 0.000106779 0)
  (0.0168908 0.00423218 0)
  (0.0150278 0.00683664 0)
  (0.0138621 0.0079425 0)
  (0.0128183 0.00807417 0)
  (0.0117224 0.00789006 0)
  (0.010636 0.00771662 0)
  (0.00964784 0.00769133 0)
  (0.00886371 0.00790404 0)
  (0.00844306 0.00842082 0)
  (0.00858998 0.00927895 0)
  (0.00944372 0.0104384 0)
  (0.0112818 0.0118121 0)
  (0.0143585 0.0127265 0)
  (0.00808373 0.0113674 0)
  (0.0131125 0.0336392 0)
  (0.0320034 0.0739774 0)
  (-0.183205 0.0895409 0)
  (0.437983 -0.0478346 0)
  (0.750568 0.402486 0)
  (-0.0829319 0.125251 0)
  (0.0802184 0.0162527 0)
  (0.119615 0.0192323 0)
  (0.118587 0.0192198 0)
  (0.121927 -0.00696411 0)
  (0.14885 -0.045677 0)
  (0.16715 -0.0812599 0)
  (0.16985 -0.110445 0)
  (0.161066 -0.12992 0)
  (0.144994 -0.13843 0)
  (0.124557 -0.136063 0)
  (0.102207 -0.123859 0)
  (0.0802525 -0.103968 0)
  (0.0604515 -0.079506 0)
  (0.0438385 -0.0547585 0)
  (0.0304706 -0.0339546 0)
  (0.0197769 -0.0195524 0)
  (0.0110716 -0.0104618 0)
  (0.00408467 -0.00424647 0)
  (-0.00151248 0.000634898 0)
  (-0.00504746 0.00418731 0)
  (-0.00682008 0.00660756 0)
  (-0.00755127 0.00813343 0)
  (-0.00778864 0.00885853 0)
  (-0.0079348 0.00900627 0)
  (-0.00813204 0.00889523 0)
  (-0.00833415 0.00872137 0)
  (-0.00841921 0.00857154 0)
  (-0.0082199 0.00848369 0)
  (-0.00752497 0.00847251 0)
  (-0.00609012 0.00855772 0)
  (-0.00369007 0.00879922 0)
  (-6.25576e-06 0.00944965 0)
  (0.00490448 0.0110866 0)
  (0.0070492 0.0144013 0)
  (0.0170806 0.0339818 0)
  (0.0537627 0.0750283 0)
  (-0.145014 0.0750846 0)
  (0.729705 0.00349146 0)
  (0.874507 0.403724 0)
  (0.420674 0.286405 0)
  (0.42311 0.219538 0)
  (0.410573 0.153651 0)
  (0.372134 0.103855 0)
  (0.343313 0.0560139 0)
  (0.319813 0.00668287 0)
  (0.289236 -0.0390775 0)
  (0.254809 -0.0741909 0)
  (0.217988 -0.0960531 0)
  (0.179758 -0.105135 0)
  (0.141279 -0.103171 0)
  (0.104064 -0.0922011 0)
  (0.0700455 -0.0747363 0)
  (0.0409476 -0.0536228 0)
  (0.0180864 -0.0328361 0)
  (0.00101222 -0.0160564 0)
  (-0.0108287 -0.00548702 0)
  (-0.018579 0.000380783 0)
  (-0.0240099 0.00419244 0)
  (-0.0271154 0.00676386 0)
  (-0.0285975 0.0085685 0)
  (-0.0290518 0.00989093 0)
  (-0.0288447 0.0108269 0)
  (-0.0282908 0.0113738 0)
  (-0.0276264 0.0115808 0)
  (-0.0269438 0.011551 0)
  (-0.0262185 0.0113625 0)
  (-0.0253642 0.0110509 0)
  (-0.0242572 0.0106213 0)
  (-0.0227396 0.0100667 0)
  (-0.0206128 0.00940396 0)
  (-0.0176306 0.00872353 0)
  (-0.0134508 0.00827412 0)
  (-0.00774213 0.00861775 0)
  (-0.000333606 0.0110634 0)
  (0.0160153 0.023258 0)
  (0.0529158 0.0527964 0)
  (-0.109326 0.0441202 0)
  (0.719286 0.0451557 0)
  (0.125019 0.0675526 0)
  (0.236249 0.0955178 0)
  (0.273925 0.0748077 0)
  (0.270508 0.0415009 0)
  (0.258766 0.00949852 0)
  (0.242375 -0.0201525 0)
  (0.218034 -0.0458661 0)
  (0.185884 -0.0634198 0)
  (0.147981 -0.0712596 0)
  (0.107348 -0.0701609 0)
  (0.0671326 -0.0615507 0)
  (0.0305424 -0.0474519 0)
  (-6.76794e-05 -0.0298231 0)
  (-0.0210634 -0.0134147 0)
  (-0.0333352 -0.00192049 0)
  (-0.0406228 0.00477554 0)
  (-0.0448102 0.00808459 0)
  (-0.0468737 0.0100152 0)
  (-0.047688 0.011287 0)
  (-0.0476366 0.0121611 0)
  (-0.0469833 0.0127495 0)
  (-0.0459091 0.0130747 0)
  (-0.0445753 0.0131216 0)
  (-0.0431161 0.0128981 0)
  (-0.041611 0.0124415 0)
  (-0.0400891 0.0117893 0)
  (-0.0385511 0.0109611 0)
  (-0.0369837 0.00995583 0)
  (-0.0353624 0.00875723 0)
  (-0.0336527 0.00734225 0)
  (-0.0318418 0.005645 0)
  (-0.0300153 0.00337187 0)
  (-0.02807 0.000766502 0)
  (-0.0241274 0.00123278 0)
  (-0.0140048 0.0103393 0)
  (-0.00421006 0.0315261 0)
  (-0.158481 0.0250329 0)
  (0.437841 0.0723598 0)
  (-0.0239768 0.130499 0)
  (0.0944106 0.0941547 0)
  (0.129208 0.0373389 0)
  (0.146674 -0.0117694 0)
  (0.15206 -0.05615 0)
  (0.14657 -0.0886116 0)
  (0.126657 -0.0956345 0)
  (0.0986937 -0.0928233 0)
  (0.067379 -0.0882576 0)
  (0.0352671 -0.083618 0)
  (0.00515118 -0.0798881 0)
  (-0.0194776 -0.0798212 0)
  (-0.0366956 -0.0824753 0)
  (-0.048578 -0.0840629 0)
  (-0.0554875 -0.0841835 0)
  (-0.0588641 -0.0842662 0)
  (-0.0602954 -0.0844113 0)
  (-0.0607838 -0.0847332 0)
  (-0.060628 -0.0849276 0)
  (-0.0599452 -0.0849417 0)
  (-0.0588314 -0.084802 0)
  (-0.0573751 -0.084585 0)
  (-0.0556718 -0.0843842 0)
  (-0.0538212 -0.0842704 0)
  (-0.0519121 -0.0842869 0)
  (-0.0500179 -0.0844729 0)
  (-0.0482039 -0.0848882 0)
  (-0.0465399 -0.0856241 0)
  (-0.0451183 -0.0868005 0)
  (-0.0441025 -0.0885388 0)
  (-0.0438473 -0.0908974 0)
  (-0.0449651 -0.0936142 0)
  (-0.0475385 -0.0956121 0)
  (-0.0491789 -0.0934153 0)
  (-0.0479401 -0.0786247 0)
  (-0.0582687 -0.0497805 0)
  (-0.128776 -0.0358449 0)
  (0.347882 -0.00859922 0)
  (0.142486 -0.18872 0)
  (-0.2524 -0.0273622 0)
  (-0.16324 0.233064 0)
  (-0.0831223 0.22575 0)
  (-0.0363149 0.226879 0)
  (0.00343417 0.250547 0)
  (0.018855 0.278543 0)
  (0.0220108 0.300454 0)
  (0.0190822 0.285177 0)
  (-0.00123169 0.273449 0)
  (-0.0234943 0.269475 0)
  (-0.0417193 0.270122 0)
  (-0.0565137 0.274772 0)
  (-0.0668403 0.282564 0)
  (-0.072944 0.292288 0)
  (-0.0757931 0.299838 0)
  (-0.0764677 0.304208 0)
  (-0.0759482 0.307677 0)
  (-0.0747419 0.310303 0)
  (-0.0732011 0.312572 0)
  (-0.0714792 0.314381 0)
  (-0.0696123 0.315797 0)
  (-0.0676207 0.316892 0)
  (-0.0655334 0.31774 0)
  (-0.063406 0.3184 0)
  (-0.0613188 0.318909 0)
  (-0.0593655 0.319285 0)
  (-0.0576451 0.319545 0)
  (-0.0562595 0.319728 0)
  (-0.0553087 0.319911 0)
  (-0.0548912 0.320233 0)
  (-0.0551461 0.320925 0)
  (-0.0562879 0.322294 0)
  (-0.0582044 0.324303 0)
  (-0.0593588 0.325685 0)
  (-0.0575549 0.322732 0)
  (-0.058534 0.309144 0)
  (-0.087581 0.28943 0)
  (-0.15446 0.287429 0)
  (0.444727 0.325981 0)
)
;

boundaryField
{
  floor
  {
    type noSlip;
  }
  ceiling
  {
    type noSlip;
  }
  sWall
  {
    type noSlip;
  }
  nWall
  {
    type noSlip;
  }
  sideWalls
  {
    type empty;
  }
  glass1
  {
    type noSlip;
  }
  glass2
  {
    type noSlip;
  }
  sun
  {
    type noSlip;
  }
  heatsource1
  {
    type noSlip;
  }
  heatsource2
  {
    type noSlip;
  }
  Table_master
  {
    type noSlip;
  }
  Table_slave
  {
    type noSlip;
  }
  inlet
  {
    type fixedValue;
    value uniform (0.277164 -0.114805 0);
  }
  outlet
  {
    type zeroGradient;
  }
} 	// ************************************************************************* //

