/*--------------------------------*- C++ -*----------------------------------*\
  =========                 |
  \\      /  F ield         | OpenFOAM: The Open Source CFD Toolbox
   \\    /   O peration     | Website:  https://openfoam.org
    \\  /    A nd           | Version:  6
     \\/     M anipulation  |
\*---------------------------------------------------------------------------*/
FoamFile
{
    version     2.0;
    format      ascii;
    class       volScalarField;
    location    "800";
    object      alphat;
}
// * * * * * * * * * * * * * * * * * * * * * * * * * * * * * * * * * * * * * //

dimensions      [1 -1 -1 0 0 0 0];

internalField   nonuniform List<scalar> 
459
(
0.00117963
0.00128063
0.00129232
0.00135132
0.00140587
0.00145604
0.00150376
0.00155148
0.00159426
0.0016225
0.00163052
0.00161332
0.00156979
0.00150694
0.00143709
0.000538199
0.000668722
0.000705102
0.000679885
0.000646887
0.000611916
0.000575534
0.000541385
0.000510505
0.000482779
0.000457766
0.000434915
0.000413842
0.000393956
0.000374372
0.000353842
0.000330158
0.000311786
0.000283165
0.00164833
0.00387557
0.00365238
0.00425639
0.00480804
0.00536498
0.00588837
0.00631814
0.00666166
0.00695151
0.00714014
0.00715592
0.00688591
0.00609896
0.00423856
0.00145469
0.00103841
0.000753377
0.0011993
0.00150864
0.00170456
0.00178024
0.00174894
0.001487
0.00131426
0.00118221
0.00107554
0.000987086
0.000912884
0.000844515
0.0007752
0.000703977
0.000641004
0.000576328
0.000666131
0.00039902
0.00204568
0.00536459
0.00447243
0.00586953
0.00652826
0.00700285
0.00735926
0.00762887
0.00786378
0.00810842
0.00833689
0.00849907
0.00852467
0.00832372
0.00771633
0.00612007
0.00146552
0.00120828
0.00166842
0.00200142
0.00223781
0.00236161
0.00225151
0.00079891
0.000710418
0.000638793
0.000580179
0.000531539
0.000490681
0.000456224
0.000427441
0.00040414
0.000432018
0.000476229
0.000760048
0.000472924
0.00243353
0.00707991
0.00450868
0.00631495
0.00710248
0.00739299
0.00750551
0.00757168
0.00767909
0.00787473
0.0081278
0.00839239
0.00859966
0.00868228
0.00857126
0.00799992
0.00616441
0.00159434
0.00207126
0.00260902
0.00297688
0.00318568
0.00327695
0.00303014
0.000883864
0.000811164
0.000762469
0.000727947
0.000699411
0.000670411
0.000642438
0.000612214
0.000575356
0.000526493
0.000507844
0.000905597
0.000528159
0.00283043
0.00928917
0.00522134
0.00601982
0.00714136
0.0074393
0.00740998
0.00728423
0.00731144
0.00749187
0.00776282
0.00808472
0.00836691
0.00851281
0.00846245
0.00814106
0.00739719
0.00596889
0.00533799
0.00497294
0.00471588
0.00454444
0.00444128
0.00429787
0.00371894
0.00348062
0.0033588
0.00326041
0.0031403
0.00296555
0.0026603
0.002264
0.00180962
0.00132916
0.000943537
0.000904785
0.000685456
0.000695738
0.000835446
0.000932538
0.00324758
0.0116624
0.00763591
0.00612393
0.00667095
0.00716636
0.00735709
0.00713217
0.00716904
0.0073319
0.00759795
0.00793045
0.00823546
0.008396
0.0083204
0.00797646
0.00740281
0.00670248
0.00615139
0.00573579
0.00542143
0.00521221
0.0050744
0.00493626
0.00471855
0.00452802
0.00435374
0.00418064
0.00399951
0.00380325
0.00354038
0.00316683
0.00268036
0.00209949
0.00155813
0.00109004
0.000897234
0.000820767
0.00121998
0.00097044
0.00362117
0.0133229
0.010959
0.00840535
0.0076034
0.0074788
0.00752706
0.00740161
0.00732586
0.00739779
0.00764124
0.00799079
0.00831435
0.00846356
0.00832855
0.00789148
0.00724867
0.00659928
0.00612467
0.00580635
0.00555809
0.00531911
0.00504994
0.00479012
0.00456256
0.00437111
0.00419903
0.00404075
0.00389214
0.00375541
0.00362932
0.00341495
0.00305168
0.00255759
0.00207259
0.00160072
0.00133277
0.0012749
0.00131914
0.00108463
0.00368446
0.0118413
0.0107371
0.010216
0.00954541
0.0089301
0.00828994
0.00773571
0.00746896
0.00753637
0.00785735
0.00827372
0.00860148
0.00867687
0.00839667
0.00778079
0.00697575
0.00626746
0.00585819
0.00554677
0.00515705
0.00472577
0.00434697
0.0040728
0.00388585
0.00374952
0.00363885
0.00354719
0.00347711
0.00343614
0.00343317
0.00344442
0.00328589
0.00293607
0.00264782
0.00252258
0.00267895
0.00312798
0.00406386
0.00168639
0.00357517
0.0042224
0.00480807
0.00506606
0.00535165
0.00554823
0.00580409
0.006232
0.0068792
0.00763905
0.00835738
0.00888109
0.0090881
0.00889487
0.00826072
0.00731653
0.00632162
0.00563344
0.00516886
0.00467776
0.00413885
0.00369565
0.00340341
0.00322594
0.00311236
0.00302821
0.00295553
0.00288606
0.0028151
0.00273924
0.00265643
0.00256732
0.00249073
0.00243807
0.00243877
0.0024832
0.00250224
0.00242828
0.00227163
0.00156571
0.00212257
0.00563554
0.00665153
0.00746348
0.0083696
0.00922915
0.00982408
0.0101236
0.010143
0.00988044
0.00932886
0.00846514
0.00724136
0.00593487
0.00495713
0.0043445
0.00381298
0.00330074
0.002909
0.00267127
0.00253978
0.00246661
0.00242321
0.00239507
0.00237525
0.00236079
0.0023511
0.00234774
0.00235428
0.00237917
0.00241515
0.00246347
0.0025245
0.00257963
0.00259468
0.0025497
0.00226394
0.00126149
0.00255634
0.00743573
0.009058
0.0092301
0.00971297
0.0101391
0.0102207
0.00989036
0.00924119
0.00830249
0.00713249
0.00586324
0.00470017
0.00379116
0.00315764
0.00265983
0.00227383
0.00204083
0.00192753
0.00187232
0.00184887
0.00184975
0.00186825
0.00190118
0.00194695
0.00200426
0.0020712
0.0021441
0.00221978
0.00230871
0.00240906
0.00251663
0.00261906
0.00269609
0.00273261
0.00271167
0.00195147
0.00129003
0.00229678
0.00234852
0.00245028
0.00261502
0.0025725
0.00250497
0.00239967
0.00223039
0.00202749
0.00182734
0.00163182
0.00142428
0.00120712
0.000996965
0.000816954
0.000688251
0.000613266
0.000578683
0.000568771
0.000572738
0.000584878
0.000602603
0.000624496
0.000649428
0.00067731
0.000708182
0.000742192
0.000779662
0.000821216
0.00086802
0.000921555
0.000980093
0.00104415
0.00111439
0.00119066
0.00127353
0.00128824
0.00115658
0.001096
0.00129053
)
;

boundaryField
{
    floor
    {
        type            compressible::alphatWallFunction;
        Prt             0.85;
        value           nonuniform List<scalar> 
29
(
0.000202509
7.50636e-05
9.45939e-05
9.99485e-05
9.62383e-05
9.13583e-05
8.61533e-05
8.06994e-05
7.55416e-05
7.08426e-05
6.65929e-05
6.27325e-05
5.91822e-05
5.58867e-05
5.2757e-05
4.96541e-05
4.63785e-05
4.25682e-05
3.95897e-05
3.49072e-05
3.49067e-05
5.35661e-05
6.50861e-05
7.35451e-05
0.000202506
7.50626e-05
0.000107013
0.000171295
0.000223626
)
;
    }
    ceiling
    {
        type            compressible::alphatWallFunction;
        Prt             0.85;
        value           nonuniform List<scalar> 
43
(
0.000315504
0.00032203
0.000334993
0.00035605
0.000350702
0.000342146
0.00032874
0.000307041
0.000280793
0.000254619
0.000228744
0.000200895
0.000171259
0.000141987
0.000116336
9.75853e-05
8.64671e-05
8.12841e-05
7.97919e-05
8.039e-05
8.22165e-05
8.48748e-05
8.8145e-05
9.18521e-05
9.59773e-05
0.000100521
0.000105498
0.00011095
0.00011696
0.000123686
0.000131326
0.000139621
0.000148633
0.00015844
0.000169009
0.000180404
0.000182417
0.000164297
0.000155882
0.000182736
0.000475795
0.000554414
0.000348226
)
;
    }
    sWall
    {
        type            compressible::alphatWallFunction;
        Prt             0.85;
        value           uniform 0.000314337;
    }
    nWall
    {
        type            compressible::alphatWallFunction;
        Prt             0.85;
        value           nonuniform List<scalar> 6(0.000132559 0.000137924 0.000153957 0.000178425 0.000182331 0.000182403);
    }
    sideWalls
    {
        type            empty;
    }
    glass1
    {
        type            compressible::alphatWallFunction;
        Prt             0.85;
        value           nonuniform List<scalar> 9(0.000163186 0.000225796 0.000277464 0.000326953 0.000376805 0.00042847 0.000474209 0.000482045 0.000468972);
    }
    glass2
    {
        type            compressible::alphatWallFunction;
        Prt             0.85;
        value           nonuniform List<scalar> 2(0.000234264 0.000218318);
    }
    sun
    {
        type            compressible::alphatWallFunction;
        Prt             0.85;
        value           nonuniform List<scalar> 
14
(
0.000167367
0.00018124
0.000182838
0.000190886
0.00019829
0.000205072
0.000211498
0.000217901
0.000223623
0.000227391
0.000228459
0.000226166
0.00022035
0.000211922
)
;
    }
    heatsource1
    {
        type            compressible::alphatWallFunction;
        Prt             0.85;
        value           nonuniform List<scalar> 3(9.86917e-05 0.000119005 0.000132882);
    }
    heatsource2
    {
        type            compressible::alphatWallFunction;
        Prt             0.85;
        value           nonuniform List<scalar> 4(0.000205015 0.000147819 0.000147817 0.000206475);
    }
    Table_master
    {
        type            compressible::alphatWallFunction;
        Prt             0.85;
        value           nonuniform List<scalar> 9(0.000113725 0.000100838 9.02641e-05 8.1503e-05 7.41495e-05 6.79075e-05 6.25927e-05 5.81142e-05 5.44605e-05);
    }
    Table_slave
    {
        type            compressible::alphatWallFunction;
        Prt             0.85;
        value           nonuniform List<scalar> 9(0.00012594 0.0001155 0.000108445 0.000103411 9.9229e-05 9.49569e-05 9.08147e-05 8.63142e-05 8.07881e-05);
    }
    inlet
    {
        type            fixedValue;
        value           uniform 1.94e-05;
    }
    outlet
    {
        type            zeroGradient;
    }
}


// ************************************************************************* //
