/*--------------------------------*- C++ -*----------------------------------*\
  =========                 |
  \\      /  F ield         | OpenFOAM: The Open Source CFD Toolbox
   \\    /   O peration     | Website:  https://openfoam.org
    \\  /    A nd           | Version:  6
     \\/     M anipulation  |
\*---------------------------------------------------------------------------*/
FoamFile
{
    version     2.0;
    format      ascii;
    class       volScalarField;
    location    "560";
    object      epsilon;
}
// * * * * * * * * * * * * * * * * * * * * * * * * * * * * * * * * * * * * * //

dimensions      [0 2 -3 0 0 0 0];

internalField   nonuniform List<scalar> 
459
(
0.000233769
0.000301328
0.000322107
0.000369798
0.000416693
0.000463189
0.000510984
0.000562866
0.000614082
0.000655205
0.000677363
0.000670392
0.000624829
0.000534939
0.000413475
7.82319e-05
0.000123162
9.26753e-05
6.78904e-05
4.9352e-05
3.57261e-05
2.60607e-05
1.9687e-05
1.5169e-05
1.1865e-05
9.41459e-06
7.55769e-06
6.14894e-06
5.06116e-06
4.18232e-06
3.46355e-06
3.72243e-06
1.45868e-05
3.83979e-05
0.000572322
0.000841311
0.000281282
0.000273906
0.000280611
0.000293125
0.000313805
0.00034648
0.0003891
0.000433197
0.000467697
0.000481247
0.000465869
0.000421821
0.0003738
0.000479409
8.7697e-05
0.000205314
0.000385277
0.000173742
0.000107862
7.43383e-05
5.29651e-05
4.03103e-05
3.02266e-05
2.24717e-05
1.67646e-05
1.26433e-05
9.66959e-06
7.51718e-06
5.98733e-06
5.00895e-06
4.74219e-06
1.56483e-05
7.13017e-05
7.02026e-05
0.00103731
0.00203626
0.000326275
0.000249134
0.000249295
0.000264156
0.000290956
0.000331891
0.000385413
0.000441764
0.000489406
0.000520116
0.000527355
0.000507331
0.000463467
0.000416375
0.000387954
0.000341315
0.000276543
0.000186118
0.000136005
0.000102362
8.00068e-05
0.000117393
7.23554e-05
4.73525e-05
3.25053e-05
2.32233e-05
1.71812e-05
1.31293e-05
1.03722e-05
8.53158e-06
6.59912e-06
1.41864e-05
8.98101e-05
9.59646e-05
0.00167976
0.00421196
0.000481103
0.000236664
0.000225917
0.000242673
0.000273919
0.000324458
0.000392941
0.000458547
0.000511937
0.000552225
0.000574133
0.000568417
0.000528009
0.000467691
0.000413069
0.000802765
0.000511838
0.000322171
0.000219882
0.000158818
0.000119587
9.70407e-05
0.000193933
0.000141899
0.000107524
8.37485e-05
6.65872e-05
5.36317e-05
4.33424e-05
3.46831e-05
2.67847e-05
1.45057e-05
1.56506e-05
0.000114782
0.000115854
0.00256939
0.00758678
0.000899938
0.000249352
0.000205514
0.000220595
0.000260071
0.000338084
0.000438549
0.000511667
0.000564578
0.000607956
0.000635191
0.000624316
0.000569145
0.000483957
0.000389886
0.000332582
0.000271837
0.000218033
0.00017318
0.000137177
0.00010995
9.18453e-05
8.81834e-05
7.80155e-05
6.69488e-05
5.68016e-05
4.79992e-05
4.04154e-05
3.37534e-05
2.77108e-05
2.19571e-05
1.60834e-05
1.51535e-05
5.52339e-05
9.86422e-05
0.000102812
0.000190556
0.000593093
0.00381616
0.011469
0.00200497
0.00038919
0.000230787
0.000223331
0.000265891
0.00042101
0.000556962
0.000623257
0.000667672
0.000709706
0.00073762
0.000722308
0.000646884
0.000529392
0.000408505
0.000316265
0.000250653
0.000200962
0.000161712
0.000130941
0.000108041
9.23171e-05
8.25547e-05
7.38339e-05
6.53197e-05
5.73055e-05
4.99709e-05
4.3251e-05
3.69847e-05
3.10491e-05
2.54283e-05
2.06098e-05
1.9062e-05
2.56753e-05
5.84435e-05
0.000183336
0.000896436
0.00141823
0.00541569
0.0139656
0.00457129
0.0012826
0.000645213
0.000479236
0.000507376
0.000714191
0.000791388
0.000813496
0.00083538
0.000874029
0.000906115
0.000885652
0.000785862
0.000630246
0.000472632
0.000351739
0.000269471
0.000211785
0.00016938
0.000138825
0.000117541
0.000103227
9.35343e-05
8.56603e-05
7.84576e-05
7.1818e-05
6.57482e-05
6.01185e-05
5.47367e-05
4.94454e-05
4.41671e-05
3.91351e-05
3.56554e-05
3.77979e-05
8.0206e-05
0.000570007
0.0028701
0.00331434
0.00594731
0.0179378
0.00899458
0.005045
0.00297836
0.00196258
0.00160862
0.0013759
0.00120631
0.00110888
0.00109043
0.00113098
0.00117389
0.0011449
0.00100555
0.000792037
0.000580951
0.000422
0.000319961
0.000253819
0.000209021
0.000181558
0.000162577
0.000149975
0.000141587
0.000135512
0.000130775
0.00012712
0.000124457
0.000122609
0.000121281
0.000120012
0.000118056
0.000114241
0.000108024
0.000108419
0.000195298
0.00119811
0.00997266
0.00803095
0.0056495
0.0101284
0.00773249
0.00569633
0.0041738
0.0031197
0.00241013
0.00189665
0.00157534
0.00143773
0.00144985
0.00154393
0.00161897
0.00156859
0.00135381
0.00104839
0.000771586
0.000579662
0.000477456
0.000419761
0.000384014
0.000358387
0.000341197
0.000330485
0.000324813
0.00032296
0.000324159
0.000328137
0.000334844
0.000344199
0.000355854
0.000368867
0.000381262
0.000389654
0.000388455
0.000383178
0.000521035
0.00197927
0.0135778
0.0108445
0.00233053
0.00289274
0.00272311
0.00234
0.00197843
0.00177858
0.00179123
0.00193995
0.00217109
0.00240492
0.002522
0.00240055
0.00204419
0.00162508
0.00134911
0.0011859
0.00111664
0.00107624
0.0010471
0.00102695
0.0010139
0.0010075
0.00100769
0.00101436
0.00102745
0.00104714
0.00107396
0.00110858
0.00115141
0.00120156
0.00125545
0.00130816
0.00133851
0.00131886
0.00146327
0.00282693
0.00982326
0.00641202
0.00132615
0.00230972
0.00249613
0.00251309
0.00275109
0.00329012
0.00374995
0.00411105
0.00456492
0.00500587
0.00525565
0.00510138
0.004631
0.00410958
0.00367369
0.00339286
0.00322581
0.00313429
0.00307989
0.00304507
0.00302423
0.00301715
0.00302481
0.00304717
0.00308344
0.00313332
0.00319776
0.00327892
0.00337951
0.00349979
0.00362821
0.00371843
0.00368321
0.00348442
0.00331255
0.00377468
0.00531458
0.0037029
0.000804778
0.000987947
0.00119785
0.0015489
0.00158069
0.00148724
0.00139978
0.00133855
0.0014337
0.00160137
0.00191565
0.00222231
0.00243811
0.00250629
0.00242292
0.00228555
0.00218424
0.00211165
0.00206375
0.00203222
0.00201182
0.00199976
0.00199448
0.00199505
0.00200071
0.00201072
0.0020244
0.00204129
0.00206104
0.00208323
0.00210666
0.00212774
0.00213721
0.0021203
0.00207332
0.00204463
0.00216012
0.00250713
0.00284068
0.0020992
)
;

boundaryField
{
    floor
    {
        Cmu             0.09;
        kappa           0.41;
        E               9.8;
        type            epsilonWallFunction;
        value           nonuniform List<scalar> 
29
(
0.000413475
7.82319e-05
0.000123162
9.26753e-05
6.78904e-05
4.9352e-05
3.57261e-05
2.60607e-05
1.9687e-05
1.5169e-05
1.1865e-05
9.41459e-06
7.55769e-06
6.14894e-06
5.06116e-06
4.18232e-06
3.46355e-06
3.72243e-06
1.45868e-05
3.83979e-05
3.83979e-05
7.02026e-05
9.59646e-05
0.000115854
0.000413475
7.82319e-05
0.000205314
0.000341315
0.000802765
)
;
    }
    ceiling
    {
        Cmu             0.09;
        kappa           0.41;
        E               9.8;
        type            epsilonWallFunction;
        value           nonuniform List<scalar> 
43
(
0.000804778
0.000987947
0.00119785
0.0015489
0.00158069
0.00148724
0.00139978
0.00133855
0.0014337
0.00160137
0.00191565
0.00222231
0.00243811
0.00250629
0.00242292
0.00228555
0.00218424
0.00211165
0.00206375
0.00203222
0.00201182
0.00199976
0.00199448
0.00199505
0.00200071
0.00201072
0.0020244
0.00204129
0.00206104
0.00208323
0.00210666
0.00212774
0.00213721
0.0021203
0.00207332
0.00204463
0.00216012
0.00250713
0.00284068
0.0020992
0.0056495
0.0101284
0.00132615
)
;
    }
    sWall
    {
        Cmu             0.09;
        kappa           0.41;
        E               9.8;
        type            epsilonWallFunction;
        value           uniform 0.000804778;
    }
    nWall
    {
        Cmu             0.09;
        kappa           0.41;
        E               9.8;
        type            epsilonWallFunction;
        value           nonuniform List<scalar> 6(0.000593093 0.00141823 0.00331434 0.00641202 0.0037029 0.0020992);
    }
    sideWalls
    {
        type            empty;
    }
    glass1
    {
        Cmu             0.09;
        kappa           0.41;
        E               9.8;
        type            epsilonWallFunction;
        value           nonuniform List<scalar> 9(0.000233769 0.000572322 0.00103731 0.00167976 0.00256939 0.00381616 0.00541569 0.00594731 0.0056495);
    }
    glass2
    {
        Cmu             0.09;
        kappa           0.41;
        E               9.8;
        type            epsilonWallFunction;
        value           nonuniform List<scalar> 2(0.00803095 0.0108445);
    }
    sun
    {
        Cmu             0.09;
        kappa           0.41;
        E               9.8;
        type            epsilonWallFunction;
        value           nonuniform List<scalar> 
14
(
0.000233769
0.000301328
0.000322107
0.000369798
0.000416693
0.000463189
0.000510984
0.000562866
0.000614082
0.000655205
0.000677363
0.000670392
0.000624829
0.000534939
)
;
    }
    heatsource1
    {
        Cmu             0.09;
        kappa           0.41;
        E               9.8;
        type            epsilonWallFunction;
        value           nonuniform List<scalar> 3(0.000102812 0.000190556 0.000593093);
    }
    heatsource2
    {
        Cmu             0.09;
        kappa           0.41;
        E               9.8;
        type            epsilonWallFunction;
        value           nonuniform List<scalar> 4(0.000479409 8.7697e-05 8.7697e-05 0.000387954);
    }
    Table_master
    {
        Cmu             0.09;
        kappa           0.41;
        E               9.8;
        type            epsilonWallFunction;
        value           nonuniform List<scalar> 9(0.000117393 7.23554e-05 4.73525e-05 3.25053e-05 2.32233e-05 1.71812e-05 1.31293e-05 1.03722e-05 8.53158e-06);
    }
    Table_slave
    {
        Cmu             0.09;
        kappa           0.41;
        E               9.8;
        type            epsilonWallFunction;
        value           nonuniform List<scalar> 9(0.000193933 0.000141899 0.000107524 8.37485e-05 6.65872e-05 5.36317e-05 4.33424e-05 3.46831e-05 2.67847e-05);
    }
    inlet
    {
        type            turbulentMixingLengthDissipationRateInlet;
        mixingLength    0.01;
        phi             phi;
        k               k;
        value           uniform 0.000101881;
    }
    outlet
    {
        type            zeroGradient;
    }
}


// ************************************************************************* //
