// -*- C++ -*-
// File generated by PyFoam - sorry for the ugliness

FoamFile
{
 version 2.0;
 format ascii;
 class volVectorField;
 location "60";
 object U;
}

dimensions [ 0 1 -1 0 0 0 0 ];

internalField nonuniform List<vector> 459
(
  (-0.0999934 -0.120399 0)
  (0.170341 -0.0621078 0)
  (0.22461 -0.050565 0)
  (0.253956 -0.0376185 0)
  (0.27964 -0.024895 0)
  (0.294116 -0.0158902 0)
  (0.297614 -0.00984988 0)
  (0.293534 -0.00519281 0)
  (0.284944 -0.00121737 0)
  (0.272544 0.00252194 0)
  (0.255866 0.0065632 0)
  (0.233591 0.011764 0)
  (0.202908 0.0199458 0)
  (0.155208 0.0372422 0)
  (0.131296 0.0850511 0)
  (-0.107936 0.0122221 0)
  (-0.0216584 -0.00199772 0)
  (-0.018554 -0.0316128 0)
  (0.0287861 -0.0466976 0)
  (0.0686308 -0.0406551 0)
  (0.108758 -0.0324351 0)
  (0.139877 -0.0218962 0)
  (0.160544 -0.0166641 0)
  (0.174071 -0.0144477 0)
  (0.183882 -0.0120601 0)
  (0.190316 -0.00874536 0)
  (0.191952 -0.00478888 0)
  (0.188131 -0.000481955 0)
  (0.179212 0.00403599 0)
  (0.164702 0.0093119 0)
  (0.142405 0.0168003 0)
  (0.110765 0.0254514 0)
  (0.0344623 0.0397187 0)
  (0.119483 0.0109222 0)
  (-0.262906 -0.166009 0)
  (0.176078 -0.0874666 0)
  (0.169123 -0.0810167 0)
  (0.193815 -0.0517596 0)
  (0.216853 -0.0248189 0)
  (0.227327 -0.00719387 0)
  (0.228489 0.00397791 0)
  (0.224026 0.0116831 0)
  (0.216581 0.0176449 0)
  (0.206834 0.0230158 0)
  (0.19479 0.0290062 0)
  (0.180277 0.0370683 0)
  (0.163709 0.0492515 0)
  (0.145703 0.0691688 0)
  (0.144327 0.107181 0)
  (0.133799 0.0951534 0)
  (0.0825148 0.0821271 0)
  (-0.177413 0.0271358 0)
  (0.0433102 -0.00403156 0)
  (0.0499248 -0.0515141 0)
  (0.0731028 -0.0661684 0)
  (0.100915 -0.0626125 0)
  (0.127589 -0.0516945 0)
  (0.143543 -0.026281 0)
  (0.147464 -0.0133716 0)
  (0.147737 -0.00960949 0)
  (0.148885 -0.00652482 0)
  (0.149794 -0.00142022 0)
  (0.148167 0.00468648 0)
  (0.145424 0.0103919 0)
  (0.142796 0.0159694 0)
  (0.139443 0.0240972 0)
  (0.128689 0.0427133 0)
  (0.107538 0.0594872 0)
  (0.0334078 0.0770146 0)
  (0.194689 0.0526365 0)
  (-0.377456 -0.215343 0)
  (0.19152 -0.152113 0)
  (0.100462 -0.132037 0)
  (0.12755 -0.0782779 0)
  (0.144632 -0.0390367 0)
  (0.147891 -0.015082 0)
  (0.145347 0.00041151 0)
  (0.141621 0.011625 0)
  (0.137796 0.020275 0)
  (0.133812 0.0279193 0)
  (0.1295 0.0361237 0)
  (0.124902 0.0464037 0)
  (0.12061 0.0602691 0)
  (0.116405 0.0789279 0)
  (0.117705 0.103743 0)
  (0.106711 0.100279 0)
  (0.0816953 0.126406 0)
  (-0.213862 0.00655796 0)
  (0.0985849 -0.06589 0)
  (0.103842 -0.0864535 0)
  (0.1137 -0.0900739 0)
  (0.127605 -0.084928 0)
  (0.14255 -0.0792853 0)
  (0.15144 -0.0564014 0)
  (0.128262 -0.036159 0)
  (0.104252 -0.0237277 0)
  (0.0904652 -0.0137346 0)
  (0.0852607 -0.00472681 0)
  (0.0870615 0.00210526 0)
  (0.0935988 0.00651348 0)
  (0.105214 0.0101969 0)
  (0.124851 0.0178508 0)
  (0.128851 0.0543919 0)
  (0.112358 0.0833934 0)
  (0.0329101 0.109893 0)
  (0.24208 0.103647 0)
  (-0.45598 -0.237282 0)
  (0.193284 -0.195455 0)
  (0.0177172 -0.159898 0)
  (0.0611063 -0.0836325 0)
  (0.0683839 -0.0371331 0)
  (0.0647468 -0.0108794 0)
  (0.0620951 0.00510407 0)
  (0.0628258 0.0152946 0)
  (0.0649342 0.0227406 0)
  (0.0677095 0.0296169 0)
  (0.0708736 0.0374016 0)
  (0.0745135 0.0471715 0)
  (0.0791448 0.0597704 0)
  (0.0849812 0.07571 0)
  (0.0968859 0.0961231 0)
  (0.113568 0.10782 0)
  (0.134887 0.135331 0)
  (0.17662 0.0238114 0)
  (0.163447 -0.0132084 0)
  (0.167044 -0.061213 0)
  (0.154783 -0.0852417 0)
  (0.143406 -0.0895899 0)
  (0.133903 -0.0843953 0)
  (0.119602 -0.0749046 0)
  (0.115109 -0.0426557 0)
  (0.133355 -0.0260763 0)
  (0.146357 -0.0176105 0)
  (0.15079 -0.0124296 0)
  (0.148961 -0.00746512 0)
  (0.141631 -0.00131115 0)
  (0.127371 0.00643484 0)
  (0.105355 0.0135992 0)
  (0.065429 0.0163731 0)
  (0.0765059 0.0692621 0)
  (0.0868233 0.101995 0)
  (0.0196082 0.131658 0)
  (0.278308 0.165773 0)
  (-0.485434 -0.233371 0)
  (0.152599 -0.209765 0)
  (-0.0550964 -0.17483 0)
  (0.00640877 -0.0820844 0)
  (0.00317156 -0.0320156 0)
  (-0.000593486 -0.00803989 0)
  (0.000533278 0.00448357 0)
  (0.00508649 0.0119271 0)
  (0.0108965 0.0179026 0)
  (0.0176943 0.0240801 0)
  (0.0253254 0.0312838 0)
  (0.0340386 0.0400376 0)
  (0.0444102 0.0507618 0)
  (0.0573646 0.063663 0)
  (0.076669 0.0789276 0)
  (0.102229 0.0878415 0)
  (0.134029 0.0883918 0)
  (0.163659 0.0230185 0)
  (0.171726 -0.0199537 0)
  (0.165914 -0.0556781 0)
  (0.152225 -0.0736526 0)
  (0.135959 -0.0765987 0)
  (0.119956 -0.0700656 0)
  (0.104515 -0.0557342 0)
  (0.0971241 -0.0274614 0)
  (0.098509 -0.0101177 0)
  (0.0985212 -0.00163949 0)
  (0.0921057 0.00483705 0)
  (0.0821007 0.0120253 0)
  (0.0695773 0.0201181 0)
  (0.0561532 0.0273306 0)
  (0.0446362 0.0308336 0)
  (0.0298423 0.0310611 0)
  (0.0392359 0.0630644 0)
  (0.0655261 0.0968794 0)
  (0.0317431 0.120876 0)
  (0.178751 0.167535 0)
  (0.140886 0.131179 0)
  (-0.104231 0.0964515 0)
  (0.405034 -0.023111 0)
  (-0.500298 -0.206567 0)
  (0.092557 -0.200123 0)
  (-0.0906311 -0.181331 0)
  (-0.0398919 -0.0869126 0)
  (-0.0414683 -0.034391 0)
  (-0.0408105 -0.0117243 0)
  (-0.0374498 -0.00130898 0)
  (-0.0313879 0.00482158 0)
  (-0.0243917 0.00985983 0)
  (-0.0162606 0.0151056 0)
  (-0.00702672 0.0211106 0)
  (0.00411599 0.0284368 0)
  (0.0170366 0.0368046 0)
  (0.0327537 0.0457848 0)
  (0.053323 0.054233 0)
  (0.0785407 0.0556841 0)
  (0.108779 0.044998 0)
  (0.131334 0.0079181 0)
  (0.137293 -0.0244705 0)
  (0.131138 -0.0470805 0)
  (0.117579 -0.0587178 0)
  (0.100407 -0.0599415 0)
  (0.0825503 -0.0533577 0)
  (0.0658017 -0.0406274 0)
  (0.0533947 -0.0217529 0)
  (0.0456531 -0.00688379 0)
  (0.036285 0.00398601 0)
  (0.0270511 0.0131198 0)
  (0.0175453 0.0219273 0)
  (0.00975042 0.029643 0)
  (0.00535096 0.0339408 0)
  (0.0044934 0.0335707 0)
  (0.00158499 0.0313603 0)
  (0.00884116 0.0483912 0)
  (0.0341875 0.0762152 0)
  (0.0179615 0.0862162 0)
  (0.0869266 0.122922 0)
  (0.0853376 0.102203 0)
  (-0.146263 0.107957 0)
  (0.432877 -0.0428734 0)
  (-0.525459 -0.162027 0)
  (0.0450911 -0.174995 0)
  (-0.120162 -0.193294 0)
  (-0.0710203 -0.0968862 0)
  (-0.0690157 -0.0396153 0)
  (-0.0645155 -0.016711 0)
  (-0.0594107 -0.00745554 0)
  (-0.0531361 -0.00258584 0)
  (-0.0457378 0.00151173 0)
  (-0.0374675 0.00575632 0)
  (-0.0282568 0.0103644 0)
  (-0.0176045 0.0155161 0)
  (-0.00507017 0.021223 0)
  (0.0106856 0.0269372 0)
  (0.0291755 0.0306881 0)
  (0.0504524 0.0287946 0)
  (0.0729462 0.0186325 0)
  (0.0865129 -0.00246855 0)
  (0.088582 -0.0223383 0)
  (0.0808754 -0.0364553 0)
  (0.0665578 -0.043238 0)
  (0.0486707 -0.0424359 0)
  (0.0299235 -0.0356626 0)
  (0.012057 -0.0243534 0)
  (-0.00332451 -0.00872094 0)
  (-0.0156689 0.00455997 0)
  (-0.0226547 0.0135255 0)
  (-0.0278141 0.0207812 0)
  (-0.0306419 0.0269241 0)
  (-0.0304362 0.0309948 0)
  (-0.0273743 0.0319403 0)
  (-0.0229668 0.030013 0)
  (-0.0207109 0.0284442 0)
  (-0.0155594 0.0373186 0)
  (0.00235591 0.0568747 0)
  (-0.00276592 0.0658352 0)
  (0.0342166 0.104259 0)
  (0.0672855 0.121886 0)
  (-0.207271 0.141144 0)
  (0.52994 -0.0524646 0)
  (-0.561842 -0.0903702 0)
  (0.0124918 -0.134952 0)
  (-0.144862 -0.223313 0)
  (-0.0883852 -0.119634 0)
  (-0.0839234 -0.0478166 0)
  (-0.0770658 -0.0219636 0)
  (-0.0719861 -0.0130312 0)
  (-0.0666024 -0.00912639 0)
  (-0.0604459 -0.00615031 0)
  (-0.0534082 -0.00297393 0)
  (-0.045388 0.000555277 0)
  (-0.0363181 0.0042979 0)
  (-0.0261463 0.00795371 0)
  (-0.0142354 0.0111509 0)
  (-0.000276937 0.0129881 0)
  (0.0145354 0.0112122 0)
  (0.0273029 0.00496695 0)
  (0.0324648 -0.0061468 0)
  (0.0303888 -0.0172072 0)
  (0.0207803 -0.0247423 0)
  (0.00578212 -0.0270603 0)
  (-0.012625 -0.0237597 0)
  (-0.0302691 -0.0166411 0)
  (-0.0458705 -0.00715916 0)
  (-0.057881 0.00290351 0)
  (-0.0636043 0.0106057 0)
  (-0.0659129 0.0165294 0)
  (-0.0657701 0.0213752 0)
  (-0.0630615 0.0248276 0)
  (-0.058007 0.0263728 0)
  (-0.0514546 0.0258722 0)
  (-0.0449643 0.0242597 0)
  (-0.0400481 0.0241757 0)
  (-0.0339044 0.0304164 0)
  (-0.0208841 0.0436931 0)
  (-0.0148268 0.0550302 0)
  (0.0147373 0.0931349 0)
  (0.0787507 0.129578 0)
  (-0.185751 0.131337 0)
  (0.928751 0.0342653 0)
  (-0.629594 0.142008 0)
  (-0.0156774 -0.104302 0)
  (-0.155471 -0.261924 0)
  (-0.0738455 -0.138259 0)
  (-0.0804927 -0.0455851 0)
  (-0.0815321 -0.0194277 0)
  (-0.0807608 -0.012227 0)
  (-0.0782567 -0.00943254 0)
  (-0.0748707 -0.00726747 0)
  (-0.0709194 -0.0049817 0)
  (-0.0663796 -0.00255185 0)
  (-0.0610898 -9.36549e-05 0)
  (-0.0548282 0.00222602 0)
  (-0.0478745 0.00418848 0)
  (-0.0407079 0.00539865 0)
  (-0.0341222 0.00501586 0)
  (-0.0297128 0.00258017 0)
  (-0.0297255 -0.00207384 0)
  (-0.0347876 -0.00678214 0)
  (-0.044759 -0.00911489 0)
  (-0.0576696 -0.00839164 0)
  (-0.0712723 -0.00526128 0)
  (-0.0833957 -0.000730227 0)
  (-0.0922771 0.00446564 0)
  (-0.0965187 0.00937304 0)
  (-0.0974611 0.0135598 0)
  (-0.096054 0.0170457 0)
  (-0.0926149 0.0197231 0)
  (-0.0873858 0.0212965 0)
  (-0.080855 0.021622 0)
  (-0.0738071 0.0209546 0)
  (-0.0670951 0.0201818 0)
  (-0.0608652 0.0208928 0)
  (-0.0531917 0.0251764 0)
  (-0.0413329 0.0334013 0)
  (-0.0284343 0.0427005 0)
  (-0.000239061 0.0673259 0)
  (0.0697402 0.102611 0)
  (-0.158826 0.0862086 0)
  (0.91385 0.0759396 0)
  (-0.107836 -0.197341 0)
  (-0.0236002 -0.11938 0)
  (-0.0665113 -0.0347273 0)
  (-0.0868425 -0.0197631 0)
  (-0.0905462 -0.0153437 0)
  (-0.0912131 -0.0119206 0)
  (-0.0915795 -0.00815469 0)
  (-0.0917784 -0.00413852 0)
  (-0.0916935 -0.000128488 0)
  (-0.0912279 0.00370429 0)
  (-0.0903216 0.00730322 0)
  (-0.0890498 0.0106536 0)
  (-0.0876606 0.0133515 0)
  (-0.087015 0.0147052 0)
  (-0.0877641 0.0152245 0)
  (-0.090513 0.0150425 0)
  (-0.0955626 0.0150592 0)
  (-0.102308 0.0160651 0)
  (-0.109376 0.0179858 0)
  (-0.115463 0.020251 0)
  (-0.119644 0.0222779 0)
  (-0.121701 0.0239865 0)
  (-0.121769 0.0254381 0)
  (-0.120153 0.0265501 0)
  (-0.117115 0.0272422 0)
  (-0.112899 0.0274278 0)
  (-0.107833 0.0270368 0)
  (-0.102363 0.0261158 0)
  (-0.0969668 0.0249107 0)
  (-0.0919091 0.0239045 0)
  (-0.0868642 0.0237415 0)
  (-0.0806227 0.0249316 0)
  (-0.0717974 0.0272446 0)
  (-0.0597008 0.0308832 0)
  (-0.0375819 0.0438745 0)
  (-0.0104055 0.0692398 0)
  (-0.216566 0.0506417 0)
  (0.56235 0.105784 0)
  (-0.259312 -0.207764 0)
  (-0.0843545 -0.114624 0)
  (-0.0962089 -0.111125 0)
  (-0.0951676 -0.114584 0)
  (-0.095927 -0.115662 0)
  (-0.0994073 -0.115981 0)
  (-0.103941 -0.116218 0)
  (-0.108539 -0.116506 0)
  (-0.112833 -0.116854 0)
  (-0.116695 -0.11716 0)
  (-0.119998 -0.117115 0)
  (-0.122519 -0.116096 0)
  (-0.124169 -0.113954 0)
  (-0.125275 -0.112371 0)
  (-0.126593 -0.112378 0)
  (-0.128613 -0.113904 0)
  (-0.131444 -0.116095 0)
  (-0.134674 -0.118068 0)
  (-0.137681 -0.119323 0)
  (-0.139972 -0.119637 0)
  (-0.141284 -0.118935 0)
  (-0.141514 -0.117211 0)
  (-0.140586 -0.114752 0)
  (-0.138508 -0.112037 0)
  (-0.135411 -0.109549 0)
  (-0.131547 -0.107705 0)
  (-0.127289 -0.10682 0)
  (-0.123089 -0.107035 0)
  (-0.119397 -0.108228 0)
  (-0.116543 -0.109937 0)
  (-0.114601 -0.111334 0)
  (-0.113126 -0.111274 0)
  (-0.110553 -0.10791 0)
  (-0.103487 -0.0965776 0)
  (-0.0899444 -0.0692839 0)
  (-0.089532 -0.0317944 0)
  (-0.171776 -0.0283507 0)
  (0.42315 0.0191914 0)
  (-0.72427 -0.0621322 0)
  (0.161358 0.109141 0)
  (-0.0171147 0.612753 0)
  (-0.020382 0.384154 0)
  (-0.0509477 0.364031 0)
  (-0.074531 0.367125 0)
  (-0.092472 0.365588 0)
  (-0.107278 0.363784 0)
  (-0.119729 0.362861 0)
  (-0.130146 0.362778 0)
  (-0.13877 0.363402 0)
  (-0.145804 0.364519 0)
  (-0.151418 0.365631 0)
  (-0.155665 0.365775 0)
  (-0.158468 0.364753 0)
  (-0.159963 0.364837 0)
  (-0.160514 0.366731 0)
  (-0.160601 0.37015 0)
  (-0.160538 0.374272 0)
  (-0.16038 0.378231 0)
  (-0.160061 0.381403 0)
  (-0.159514 0.383414 0)
  (-0.158695 0.384117 0)
  (-0.157547 0.383551 0)
  (-0.155995 0.382044 0)
  (-0.154015 0.380082 0)
  (-0.151655 0.378175 0)
  (-0.149034 0.376809 0)
  (-0.146317 0.376397 0)
  (-0.143667 0.37723 0)
  (-0.141186 0.379419 0)
  (-0.138891 0.38283 0)
  (-0.136683 0.386939 0)
  (-0.134028 0.390437 0)
  (-0.129134 0.390297 0)
  (-0.11983 0.38135 0)
  (-0.112143 0.361267 0)
  (-0.13211 0.341068 0)
  (-0.176722 0.343809 0)
  (0.491846 0.386013 0)
)
;

boundaryField
{
  floor
  {
    type noSlip;
  }
  ceiling
  {
    type noSlip;
  }
  sWall
  {
    type noSlip;
  }
  nWall
  {
    type noSlip;
  }
  sideWalls
  {
    type empty;
  }
  glass1
  {
    type noSlip;
  }
  glass2
  {
    type noSlip;
  }
  sun
  {
    type noSlip;
  }
  heatsource1
  {
    type noSlip;
  }
  heatsource2
  {
    type noSlip;
  }
  Table_master
  {
    type noSlip;
  }
  Table_slave
  {
    type noSlip;
  }
  inlet
  {
    type fixedValue;
    value uniform (0.277164 -0.114805 0);
  }
  outlet
  {
    type zeroGradient;
  }
} 	// ************************************************************************* //

