/*--------------------------------*- C++ -*----------------------------------*\
  =========                 |
  \\      /  F ield         | OpenFOAM: The Open Source CFD Toolbox
   \\    /   O peration     | Website:  https://openfoam.org
    \\  /    A nd           | Version:  6
     \\/     M anipulation  |
\*---------------------------------------------------------------------------*/
FoamFile
{
    version     2.0;
    format      ascii;
    class       volScalarField;
    location    "100";
    object      alphat;
}
// * * * * * * * * * * * * * * * * * * * * * * * * * * * * * * * * * * * * * //

dimensions      [1 -1 -1 0 0 0 0];

internalField   nonuniform List<scalar> 
459
(
0.00169221
0.00190119
0.00199072
0.00212466
0.00227955
0.00240437
0.00247819
0.00246894
0.00234897
0.00221459
0.00206758
0.00190858
0.00176264
0.00161209
0.00143949
0.000820137
0.000965376
0.00112982
0.00124781
0.00128423
0.00125798
0.00117564
0.00108807
0.00101032
0.000943558
0.00088636
0.00083722
0.000794588
0.000757203
0.000723701
0.000691999
0.000659094
0.000620882
0.000565046
0.00215801
0.00618962
0.00643885
0.00741058
0.00807132
0.00860988
0.00905541
0.00945245
0.00944787
0.00903879
0.00840134
0.00760989
0.00634894
0.00484373
0.00320113
0.00156139
0.00133597
0.000802113
0.00206345
0.00360132
0.0047148
0.00536692
0.00519466
0.00347814
0.00282947
0.00242463
0.0021411
0.00193246
0.00177396
0.00165221
0.0015461
0.0014265
0.00130553
0.00118847
0.00109298
0.000606212
0.00254467
0.00866687
0.00824234
0.00882778
0.00900477
0.00907809
0.00938089
0.0100664
0.0105212
0.0105417
0.0102234
0.00966997
0.00871441
0.00728818
0.00547477
0.00344566
0.00145355
0.000816226
0.00212519
0.00373552
0.00548408
0.00667656
0.0062496
0.00157767
0.00136303
0.00119034
0.00105321
0.000944177
0.000857021
0.000787006
0.000732268
0.000695005
0.000818262
0.000986314
0.00114952
0.000621304
0.00291388
0.0108001
0.00929961
0.00949023
0.00904423
0.00858443
0.00878766
0.00961562
0.0103459
0.0106587
0.0105862
0.0102604
0.00965508
0.00863927
0.00715858
0.00523787
0.00284325
0.00154289
0.00172534
0.00290042
0.00492552
0.00701831
0.00840075
0.00778596
0.00180564
0.00164447
0.00151738
0.00140999
0.00131092
0.00121402
0.00111543
0.00101165
0.000895214
0.000828385
0.000918495
0.00116195
0.000630138
0.0032825
0.013199
0.0110442
0.0105464
0.00922781
0.00825422
0.00846328
0.00937311
0.0102657
0.0107272
0.0107674
0.0105582
0.0101872
0.00955776
0.00857224
0.00723743
0.00568813
0.00529108
0.00623698
0.00775948
0.00940922
0.0107396
0.0114786
0.0112822
0.00921913
0.00803218
0.00707165
0.00613564
0.00522161
0.00432982
0.00346035
0.00262006
0.00182894
0.00124579
0.00105919
0.00116504
0.000759352
0.00061741
0.000618649
0.000748888
0.00365004
0.0155625
0.0138335
0.0116189
0.00923145
0.00811823
0.00839036
0.00944392
0.0104771
0.0110307
0.0111594
0.0111169
0.0110686
0.0108586
0.0104266
0.00987244
0.0094531
0.00998786
0.0113737
0.0126321
0.0135535
0.0140331
0.0140463
0.0135497
0.0124286
0.0111274
0.00972415
0.00832297
0.0069611
0.00565704
0.0044232
0.00328232
0.00228802
0.00158603
0.00131936
0.00128857
0.00099756
0.000911314
0.00110063
0.000768623
0.00388424
0.0164682
0.0154732
0.0114011
0.00871628
0.00784152
0.00844995
0.00978074
0.0109704
0.0116036
0.0119472
0.0123929
0.0128013
0.0128907
0.0128544
0.0128905
0.01322
0.0141118
0.0151685
0.0158205
0.0160364
0.0158433
0.0152878
0.0144031
0.0131804
0.0117108
0.0101678
0.00863485
0.00716412
0.00579603
0.00456792
0.00351661
0.00267378
0.00205587
0.00182051
0.00171552
0.00149697
0.00139733
0.00127556
0.000913613
0.00388405
0.0125157
0.0109738
0.00846859
0.0071334
0.00733371
0.00869904
0.0104336
0.0117265
0.0124299
0.0134058
0.014192
0.0145421
0.0147042
0.0148915
0.0152189
0.0157428
0.0164236
0.0169364
0.0170259
0.0166888
0.0159867
0.0149944
0.0137765
0.0123939
0.0109189
0.00942168
0.00796218
0.00659477
0.00537134
0.00433895
0.00353224
0.00296081
0.00260022
0.00240227
0.00235947
0.00235453
0.00225026
0.0030827
0.0011976
0.00373796
0.00425114
0.00442178
0.00442197
0.00531063
0.00727297
0.00965739
0.011566
0.0125979
0.0135783
0.0144807
0.0149674
0.0151526
0.0153318
0.0156105
0.0159765
0.0163614
0.0166294
0.0166039
0.0161963
0.0154337
0.014398
0.0131814
0.0118656
0.0105155
0.00917212
0.00786079
0.00660434
0.00542447
0.00433249
0.00333629
0.00250826
0.00200392
0.00183434
0.0018283
0.00185585
0.00187928
0.00186604
0.00180353
0.00126536
0.000846332
0.00383234
0.00809692
0.0110942
0.0127284
0.0132176
0.0132327
0.0135817
0.0138216
0.0138847
0.0139746
0.0141643
0.0144115
0.014632
0.0147212
0.0145673
0.0141017
0.0133347
0.0123433
0.0112326
0.0100962
0.00899748
0.00796488
0.00699883
0.00609252
0.00524454
0.0044583
0.00374001
0.00310418
0.00258318
0.00222203
0.00203773
0.00198905
0.00200858
0.00203512
0.00202418
0.00191099
0.00134197
0.00285323
0.0112948
0.0123721
0.0122382
0.0116205
0.011043
0.0106343
0.0103445
0.0101544
0.0101016
0.0101711
0.010309
0.0104509
0.0105293
0.0104766
0.0102405
0.00981151
0.00923102
0.0085711
0.00790347
0.00727617
0.00670924
0.00620276
0.00574779
0.00533412
0.00495205
0.00459189
0.00424535
0.00390969
0.00358998
0.00329375
0.00302106
0.00276769
0.00253994
0.00233874
0.00223591
0.00270737
0.00146492
0.0023112
0.00249172
0.0026421
0.00281407
0.00250183
0.00230854
0.00215322
0.00202089
0.00193071
0.00188001
0.00185656
0.00184936
0.00184997
0.00185175
0.00184929
0.00183824
0.00181569
0.00178122
0.00173758
0.00168965
0.00164242
0.00159938
0.00156189
0.00152958
0.00150107
0.00147464
0.00144867
0.00142184
0.00139323
0.00136261
0.00133068
0.00129917
0.00127061
0.00124786
0.00123305
0.00122498
0.00121341
0.00119631
0.0012041
0.00120418
)
;

boundaryField
{
    floor
    {
        type            compressible::alphatWallFunction;
        Prt             0.85;
        value           nonuniform List<scalar> 
29
(
0.000202834
0.000116741
0.000137472
0.00016051
0.000176802
0.0001818
0.000178206
0.000166866
0.000154707
0.000143816
0.000134388
0.000126248
0.000119206
0.000113057
0.000107633
0.000102745
9.80954e-05
9.32413e-05
8.7567e-05
7.91977e-05
7.91967e-05
8.53785e-05
8.76314e-05
8.8948e-05
0.000202832
0.000116739
0.000114139
0.000116168
0.000216762
)
;
    }
    ceiling
    {
        type            compressible::alphatWallFunction;
        Prt             0.85;
        value           nonuniform List<scalar> 
43
(
0.00031747
0.00034053
0.00035961
0.000381375
0.000341955
0.00031728
0.000297288
0.000280131
0.000268373
0.000261738
0.000258664
0.000257723
0.000257806
0.000258042
0.000257721
0.000256269
0.000253302
0.000248758
0.00024299
0.000236636
0.000230356
0.000224616
0.000219602
0.00021527
0.000211439
0.000207881
0.000204378
0.00020075
0.000196872
0.000192708
0.000188353
0.000184041
0.000180121
0.00017699
0.000174947
0.000173833
0.000172245
0.000169903
0.000171008
0.000171035
0.000495656
0.000557825
0.000385887
)
;
    }
    sWall
    {
        type            compressible::alphatWallFunction;
        Prt             0.85;
        value           uniform 0.000316354;
    }
    nWall
    {
        type            compressible::alphatWallFunction;
        Prt             0.85;
        value           nonuniform List<scalar> 6(0.000106286 0.00010912 0.000129941 0.000189592 0.000206264 0.000170765);
    }
    sideWalls
    {
        type            empty;
    }
    glass1
    {
        type            compressible::alphatWallFunction;
        Prt             0.85;
        value           nonuniform List<scalar> 9(0.000231141 0.00029136 0.000340398 0.000386571 0.000432122 0.000477064 0.00050553 0.000505669 0.000488242);
    }
    glass2
    {
        type            compressible::alphatWallFunction;
        Prt             0.85;
        value           nonuniform List<scalar> 2(0.000168927 0.000178384);
    }
    sun
    {
        type            compressible::alphatWallFunction;
        Prt             0.85;
        value           nonuniform List<scalar> 
14
(
0.000236654
0.00026419
0.000275892
0.000293291
0.000313269
0.000329259
0.000338674
0.000337489
0.000322171
0.000304912
0.000285901
0.000265173
0.000245981
0.000226
)
;
    }
    heatsource1
    {
        type            compressible::alphatWallFunction;
        Prt             0.85;
        value           nonuniform List<scalar> 3(8.71141e-05 8.72657e-05 0.000106453);
    }
    heatsource2
    {
        type            compressible::alphatWallFunction;
        Prt             0.85;
        value           nonuniform List<scalar> 4(0.000219381 0.000188944 0.000188942 0.000204885);
    }
    Table_master
    {
        type            compressible::alphatWallFunction;
        Prt             0.85;
        value           nonuniform List<scalar> 9(0.000221583 0.000192646 0.000168989 0.000149925 0.000134563 0.000122133 0.00011204 0.000104074 9.86105e-05);
    }
    Table_slave
    {
        type            compressible::alphatWallFunction;
        Prt             0.85;
        value           nonuniform List<scalar> 9(0.000251849 0.000230505 0.000213512 0.000199027 0.000185555 0.000172267 0.00015862 0.000144104 0.000127608);
    }
    inlet
    {
        type            fixedValue;
        value           uniform 1.94e-05;
    }
    outlet
    {
        type            zeroGradient;
    }
}


// ************************************************************************* //
