/*--------------------------------*- C++ -*----------------------------------*\
  =========                 |
  \\      /  F ield         | OpenFOAM: The Open Source CFD Toolbox
   \\    /   O peration     | Website:  https://openfoam.org
    \\  /    A nd           | Version:  6
     \\/     M anipulation  |
\*---------------------------------------------------------------------------*/
FoamFile
{
    version     2.0;
    format      ascii;
    class       volScalarField;
    location    "500";
    object      nut;
}
// * * * * * * * * * * * * * * * * * * * * * * * * * * * * * * * * * * * * * //

dimensions      [0 2 -1 0 0 0 0];

internalField   nonuniform List<scalar> 
459
(
0.0010334
0.00112364
0.00113979
0.0011925
0.00124088
0.00128552
0.00132837
0.001372
0.00140669
0.00142597
0.00142457
0.0013985
0.0013473
0.00127736
0.00120136
0.000449424
0.00055385
0.000611718
0.000597788
0.000572525
0.000543355
0.000510653
0.000479229
0.000450758
0.000425342
0.000402689
0.000382485
0.000364452
0.000348102
0.000332899
0.000318091
0.000302541
0.000293243
0.000269037
0.00142443
0.00335393
0.00316499
0.0036765
0.00416375
0.00465885
0.00511709
0.0054665
0.00577233
0.00603045
0.0062005
0.00622932
0.00603418
0.00543428
0.00389375
0.00121763
0.000787341
0.000500298
0.000978742
0.00130753
0.0015294
0.00163548
0.00162551
0.00135973
0.00119532
0.00107353
0.000977782
0.000900102
0.00083492
0.000776277
0.000721517
0.00066908
0.000623417
0.000581771
0.000692407
0.000362467
0.00175316
0.00459009
0.00387885
0.00495599
0.00546296
0.00583264
0.00611542
0.00633277
0.00655618
0.0067972
0.00702895
0.00720701
0.00726942
0.00714904
0.00668889
0.00537023
0.00118056
0.00101957
0.00138872
0.00170061
0.00196002
0.00212526
0.00205913
0.000724636
0.000645071
0.000580969
0.000529005
0.000486454
0.000451239
0.000421865
0.000397352
0.000377264
0.000406102
0.000466964
0.000774459
0.000423488
0.00207159
0.00595121
0.00385555
0.00526755
0.00576631
0.0059225
0.00598821
0.00606254
0.00620952
0.00643419
0.00671122
0.00699624
0.00721719
0.00732997
0.0072668
0.00682081
0.00527774
0.00138458
0.0017316
0.00218828
0.00257148
0.00284269
0.00299654
0.00280404
0.000811783
0.000745722
0.000699741
0.000665499
0.000636348
0.00060809
0.000580848
0.000551855
0.000517504
0.000487077
0.000494438
0.000888188
0.000470037
0.00239684
0.00771454
0.00425908
0.00501573
0.0057368
0.00581312
0.00573371
0.00568554
0.00580577
0.00602644
0.00633083
0.00667279
0.00695006
0.00710227
0.0070876
0.00686337
0.00629432
0.00513912
0.00468883
0.00447917
0.0043577
0.00428088
0.00422191
0.00408784
0.00352347
0.00327003
0.0031296
0.00301784
0.00289058
0.00270201
0.00241707
0.00205847
0.00165287
0.00123564
0.000911241
0.000902905
0.000625831
0.000585802
0.000707299
0.000792154
0.0027407
0.0096292
0.00598467
0.00486163
0.00539973
0.00568805
0.00559194
0.00554036
0.00565031
0.00585292
0.00615397
0.00650586
0.00681139
0.00697015
0.00692496
0.00668419
0.00631056
0.00588785
0.00560259
0.00539506
0.00521532
0.00506213
0.00492603
0.0047735
0.00454837
0.00435041
0.00417189
0.00399524
0.00381016
0.00360752
0.00333416
0.0029676
0.00250671
0.00197616
0.00148998
0.00109839
0.00084878
0.00073307
0.00105484
0.000825404
0.00305909
0.0110059
0.00861621
0.00632119
0.00580317
0.00587305
0.00581903
0.00572133
0.00571766
0.00587316
0.0061817
0.00656173
0.00688619
0.00703033
0.00693059
0.00662046
0.00623514
0.00594101
0.00579083
0.0056624
0.0054803
0.00524878
0.00498745
0.00472346
0.00447815
0.00426961
0.00408269
0.00390606
0.00373815
0.0035835
0.00344192
0.00321265
0.00285412
0.00239739
0.00194724
0.00152919
0.00123562
0.0011491
0.00118376
0.000930124
0.00312426
0.00996223
0.00874764
0.00793113
0.00730639
0.0067859
0.00622628
0.00585878
0.00578992
0.00600537
0.00640746
0.00684851
0.00716902
0.00723644
0.00701178
0.0065751
0.00612835
0.00587098
0.00576724
0.00553114
0.00516475
0.00475281
0.00437273
0.00406854
0.0038411
0.00366675
0.00352214
0.00339927
0.00330114
0.00323614
0.00321393
0.00321339
0.00302033
0.00271374
0.00243732
0.00229722
0.00239827
0.00279798
0.00348826
0.00146647
0.00304418
0.00362267
0.00405541
0.00422644
0.00431499
0.00439251
0.0045979
0.00501029
0.00561633
0.00632031
0.00697917
0.00745172
0.00762617
0.00742337
0.00690478
0.00627425
0.005844
0.00554155
0.00520566
0.00473573
0.00421769
0.00376659
0.00343072
0.0031977
0.00303296
0.00290581
0.00279762
0.00269955
0.00260655
0.00251387
0.00241681
0.00231521
0.00223028
0.00216766
0.00214923
0.00216869
0.00216693
0.00208798
0.0019553
0.00137795
0.00163574
0.00321355
0.0044889
0.00550174
0.00641425
0.0072239
0.00787326
0.00827883
0.00839569
0.00821924
0.00775706
0.00699008
0.00609538
0.00537264
0.00490003
0.00445157
0.003936
0.00342117
0.00300512
0.00271334
0.00251865
0.00238602
0.00229
0.002216
0.00215702
0.00211031
0.00207541
0.00205345
0.0020475
0.00206327
0.00208741
0.00211883
0.00215185
0.00216295
0.00211263
0.00198647
0.00179654
0.00113998
0.00203762
0.00467786
0.0066215
0.0074238
0.0080308
0.0083764
0.00842641
0.00813949
0.00756605
0.00678399
0.00591146
0.00508798
0.00440267
0.00385626
0.00336901
0.00291567
0.002553
0.00229977
0.00212477
0.00199857
0.00190993
0.00185036
0.00181296
0.00179425
0.00179253
0.00180657
0.00183474
0.00187391
0.00192733
0.00199646
0.00207912
0.00216949
0.00225324
0.00231208
0.00230133
0.00233195
0.00233686
0.00115988
0.00179085
0.00189611
0.00197181
0.00210007
0.00200884
0.00190239
0.00181859
0.00172746
0.00162356
0.00149911
0.00135289
0.0011924
0.00103066
0.000882704
0.000762935
0.00067818
0.000623826
0.000591347
0.000573985
0.000567231
0.000568046
0.000574947
0.00058615
0.000600809
0.000618817
0.000640211
0.000665143
0.000693912
0.00072708
0.000765686
0.000809818
0.00085885
0.000913447
0.00097427
0.00104128
0.00112149
0.00114877
0.00112101
0.00105173
0.000978402
)
;

boundaryField
{
    floor
    {
        type            nutkWallFunction;
        Cmu             0.09;
        kappa           0.41;
        E               9.8;
        value           nonuniform List<scalar> 
29
(
0.000144165
5.32014e-05
6.65478e-05
7.3807e-05
7.20674e-05
6.89001e-05
6.52215e-05
6.10685e-05
5.70467e-05
5.33742e-05
5.00713e-05
4.71063e-05
4.4444e-05
4.20524e-05
3.98709e-05
3.78305e-05
3.58315e-05
3.37191e-05
3.24492e-05
2.91175e-05
2.91174e-05
4.17882e-05
4.98293e-05
5.58641e-05
0.000144166
5.32013e-05
5.97465e-05
0.000123025
0.000165109
)
;
    }
    ceiling
    {
        type            nutkWallFunction;
        Cmu             0.09;
        kappa           0.41;
        E               9.8;
        value           nonuniform List<scalar> 
43
(
0.000210375
0.000221929
0.000230198
0.000244221
0.000234349
0.000222742
0.000213551
0.000203499
0.000191964
0.000178037
0.000161508
0.000143131
0.000124324
0.000106823
9.24051e-05
8.20416e-05
7.53145e-05
7.12612e-05
6.90836e-05
6.82343e-05
6.8337e-05
6.92047e-05
7.06106e-05
7.24453e-05
7.46917e-05
7.73504e-05
8.0435e-05
8.39774e-05
8.80397e-05
9.27404e-05
9.808e-05
0.000103972
0.000110488
0.000117693
0.000125572
0.000134928
0.000138092
0.000134872
0.000126796
0.000118181
0.000344743
0.000404538
0.000237246
)
;
    }
    sWall
    {
        type            nutkWallFunction;
        Cmu             0.09;
        kappa           0.41;
        E               9.8;
        value           uniform 0.000210433;
    }
    nWall
    {
        type            nutkWallFunction;
        Cmu             0.09;
        kappa           0.41;
        E               9.8;
        value           nonuniform List<scalar> 6(9.59477e-05 9.99589e-05 0.000112472 0.000137083 0.000139389 0.000118187);
    }
    sideWalls
    {
        type            empty;
    }
    glass1
    {
        type            nutkWallFunction;
        Cmu             0.09;
        kappa           0.41;
        E               9.8;
        value           nonuniform List<scalar> 9(0.000124737 0.000169831 0.000206651 0.000241598 0.000276699 0.000313266 0.000346698 0.000353505 0.000345166);
    }
    glass2
    {
        type            nutkWallFunction;
        Cmu             0.09;
        kappa           0.41;
        E               9.8;
        value           nonuniform List<scalar> 2(0.000174441 0.000164424);
    }
    sun
    {
        type            nutkWallFunction;
        Cmu             0.09;
        kappa           0.41;
        E               9.8;
        value           nonuniform List<scalar> 
14
(
0.000124651
0.000135177
0.00013705
0.000143145
0.000148712
0.000153828
0.00015872
0.000163682
0.000167615
0.000169796
0.000169638
0.000166687
0.000160874
0.000152893
)
;
    }
    heatsource1
    {
        type            nutkWallFunction;
        Cmu             0.09;
        kappa           0.41;
        E               9.8;
        value           nonuniform List<scalar> 3(7.05696e-05 8.56207e-05 9.59473e-05);
    }
    heatsource2
    {
        type            nutkWallFunction;
        Cmu             0.09;
        kappa           0.41;
        E               9.8;
        value           nonuniform List<scalar> 4(0.000146035 9.53649e-05 9.53649e-05 0.000141763);
    }
    Table_master
    {
        type            nutkWallFunction;
        Cmu             0.09;
        kappa           0.41;
        E               9.8;
        value           nonuniform List<scalar> 9(8.77415e-05 7.79544e-05 6.99637e-05 6.34072e-05 5.79794e-05 5.34429e-05 4.96249e-05 4.6413e-05 4.37621e-05);
    }
    Table_slave
    {
        type            nutkWallFunction;
        Cmu             0.09;
        kappa           0.41;
        E               9.8;
        value           nonuniform List<scalar> 9(9.83161e-05 9.03134e-05 8.46937e-05 8.04803e-05 7.68728e-05 7.33567e-05 6.99483e-05 6.62994e-05 6.19454e-05);
    }
    inlet
    {
        type            calculated;
        value           uniform 0.000100623;
    }
    outlet
    {
        type            calculated;
        value           nonuniform List<scalar> 2(0.00179085 0.00189611);
    }
}


// ************************************************************************* //
