/*--------------------------------*- C++ -*----------------------------------*\
  =========                 |
  \\      /  F ield         | OpenFOAM: The Open Source CFD Toolbox
   \\    /   O peration     | Website:  https://openfoam.org
    \\  /    A nd           | Version:  6
     \\/     M anipulation  |
\*---------------------------------------------------------------------------*/
FoamFile
{
    version     2.0;
    format      ascii;
    class       volScalarField;
    location    "900";
    object      nut;
}
// * * * * * * * * * * * * * * * * * * * * * * * * * * * * * * * * * * * * * //

dimensions      [0 2 -1 0 0 0 0];

internalField   nonuniform List<scalar> 
459
(
0.00105405
0.0011493
0.0011689
0.00122427
0.00127521
0.00132245
0.0013681
0.00141506
0.00145037
0.00146863
0.00146465
0.00143471
0.00137883
0.00130333
0.00122161
0.000462777
0.000571704
0.000636381
0.00062455
0.000598853
0.000568162
0.000533013
0.000499128
0.000468501
0.000441265
0.000417082
0.000395523
0.000376344
0.000359041
0.000343012
0.000327451
0.000311129
0.000299688
0.000273282
0.0014434
0.00346548
0.00329791
0.0038377
0.0043617
0.00489103
0.00537366
0.00572668
0.00604805
0.00631563
0.00648908
0.00651694
0.00632296
0.00572683
0.00415541
0.00124109
0.000780648
0.000510963
0.00103422
0.00139469
0.00163698
0.00175199
0.00173625
0.00143239
0.00124879
0.00111437
0.00100967
0.000925425
0.000856247
0.000795026
0.000737827
0.000682704
0.00063436
0.000591791
0.000695159
0.000360567
0.00176947
0.00473871
0.00407355
0.00516368
0.00570135
0.00609846
0.00640446
0.00663514
0.00688118
0.00714232
0.00738987
0.00757341
0.00763906
0.00751747
0.00702885
0.00556117
0.0012043
0.00104264
0.00144682
0.00179733
0.00208823
0.00226979
0.00219393
0.000761363
0.000675065
0.000605662
0.000549513
0.00050363
0.000465736
0.000434193
0.000407931
0.000386458
0.000414573
0.000476539
0.000777239
0.000417915
0.00208439
0.00610182
0.00406932
0.00548507
0.00599865
0.00617337
0.0062633
0.00635535
0.00653215
0.00678478
0.00709048
0.00738433
0.00761382
0.00773065
0.00765238
0.00717134
0.00554332
0.00144907
0.00180148
0.00229045
0.00271615
0.00301984
0.00318593
0.0029741
0.000855338
0.000781303
0.000728464
0.000688361
0.000654318
0.000622886
0.000592742
0.000561063
0.000524132
0.000491875
0.000500118
0.000882746
0.000462027
0.00240651
0.00786354
0.00449072
0.00524583
0.00595919
0.00603792
0.0059695
0.00596914
0.00612357
0.00637223
0.00671642
0.00706528
0.00735065
0.00750541
0.00749312
0.0072692
0.00668796
0.00547794
0.00502755
0.00482605
0.00470567
0.00461553
0.00452965
0.00435701
0.00372355
0.0034252
0.00325525
0.00312306
0.00297859
0.00276225
0.002461
0.00208932
0.00167139
0.00124163
0.000913548
0.000908181
0.000613851
0.000574252
0.000696323
0.000780196
0.00274809
0.0097804
0.00625689
0.00515882
0.00567551
0.00594499
0.00582787
0.00585048
0.00597667
0.00620273
0.00653381
0.0069109
0.00722914
0.00739054
0.00734801
0.00712004
0.00677219
0.00637496
0.00610615
0.00589683
0.00569642
0.00550871
0.005335
0.00514771
0.00488358
0.00465016
0.00444028
0.00423403
0.00401858
0.00377905
0.00346403
0.00305964
0.00256479
0.00200599
0.00150346
0.00111753
0.000845549
0.000722313
0.0010357
0.00081207
0.00306132
0.0111391
0.00887638
0.00670667
0.00627325
0.00630217
0.00615909
0.00603157
0.0060387
0.006232
0.00658617
0.00700334
0.00734541
0.00749114
0.00739257
0.00710153
0.00676227
0.00652145
0.00639539
0.00625552
0.00604393
0.00578154
0.00549272
0.00519566
0.00490507
0.00464638
0.00440977
0.00418519
0.00397219
0.00377672
0.00359854
0.00332798
0.00293391
0.00244855
0.00197871
0.00155324
0.00124357
0.00114439
0.00116797
0.000913493
0.00312364
0.0099917
0.00883659
0.0081124
0.00760491
0.00697953
0.00639057
0.00607438
0.00609188
0.00639899
0.00687816
0.00736915
0.00770297
0.00776043
0.00753039
0.00711979
0.00673754
0.00653804
0.0064361
0.00618113
0.00578997
0.00534423
0.00491302
0.0045421
0.004243
0.0040006
0.00379366
0.00361465
0.0034678
0.0033628
0.00330975
0.00328416
0.00306039
0.00273552
0.00244627
0.00229162
0.002366
0.00272845
0.00339381
0.00144161
0.00304184
0.00361318
0.00402451
0.0041594
0.00421574
0.00436791
0.00471713
0.00529871
0.00606631
0.00689244
0.00762176
0.00811368
0.00824889
0.00799131
0.00746011
0.00689705
0.0065353
0.0062458
0.0058894
0.00539477
0.00483521
0.00431664
0.00389692
0.00357914
0.0033371
0.00314147
0.00297296
0.0028228
0.00268649
0.00255916
0.00243508
0.00231573
0.00221844
0.00214632
0.00212053
0.00213518
0.00213283
0.00205817
0.00193004
0.00136064
0.00153481
0.00310574
0.00470704
0.00608343
0.00721145
0.0081457
0.00881124
0.00915494
0.00918034
0.00891081
0.00831938
0.00750684
0.00666261
0.00602141
0.00555448
0.00506655
0.00452149
0.00398228
0.00351335
0.00315381
0.00288732
0.00268449
0.00252244
0.00238765
0.00227445
0.00218169
0.00211012
0.00206124
0.0020385
0.0020416
0.00205745
0.00208376
0.00211424
0.00212585
0.00207988
0.00196112
0.0017807
0.00113521
0.00199704
0.00492034
0.00727077
0.00820423
0.00875967
0.00901885
0.00894259
0.00855353
0.00792373
0.00714937
0.00633221
0.00558636
0.00494466
0.0043968
0.00388845
0.0034336
0.00307339
0.00280897
0.00261624
0.00246147
0.0023278
0.00220965
0.00211164
0.00203326
0.00197487
0.00193689
0.00191886
0.00191848
0.00194226
0.00198838
0.00205377
0.00213196
0.00220786
0.00226127
0.00224938
0.0022822
0.00233015
0.00115761
0.00177479
0.00188075
0.00195605
0.00209991
0.00202743
0.00193762
0.00187871
0.00180564
0.00170447
0.00157642
0.0014279
0.00126907
0.0011123
0.000970232
0.000857124
0.000776787
0.000722725
0.00068681
0.000663033
0.000647606
0.000638408
0.00063412
0.000634661
0.000640099
0.000649519
0.000663129
0.000681194
0.000704063
0.000732289
0.000766852
0.000806845
0.000852194
0.000903487
0.000961289
0.00102536
0.00110087
0.0011284
0.00110135
0.00103492
0.000965702
)
;

boundaryField
{
    floor
    {
        type            nutkWallFunction;
        Cmu             0.09;
        kappa           0.41;
        E               9.8;
        value           nonuniform List<scalar> 
29
(
0.000146497
5.49262e-05
6.87957e-05
7.68738e-05
7.54035e-05
7.21989e-05
6.83496e-05
6.39097e-05
5.95951e-05
5.56642e-05
5.21413e-05
4.89904e-05
4.61618e-05
4.3629e-05
4.13295e-05
3.91868e-05
3.70941e-05
3.4885e-05
3.33275e-05
2.97019e-05
2.97018e-05
4.15329e-05
4.90995e-05
5.48295e-05
0.000146497
5.49261e-05
6.11064e-05
0.00012573
0.000172406
)
;
    }
    ceiling
    {
        type            nutkWallFunction;
        Cmu             0.09;
        kappa           0.41;
        E               9.8;
        value           nonuniform List<scalar> 
43
(
0.000208605
0.000220247
0.00022848
0.000244207
0.000236378
0.000226603
0.000220162
0.000212137
0.000200962
0.000186709
0.000170015
0.000151945
0.000133857
0.000117215
0.000103764
9.40848e-05
8.75054e-05
8.31025e-05
8.01726e-05
7.8265e-05
7.71252e-05
7.65933e-05
7.66608e-05
7.73357e-05
7.85031e-05
8.01859e-05
8.24133e-05
8.52229e-05
8.86755e-05
9.2882e-05
9.77215e-05
0.000103175
0.000109303
0.000116161
0.000123707
0.000132532
0.000135731
0.000132587
0.000124829
0.000116683
0.000344505
0.000403572
0.000232826
)
;
    }
    sWall
    {
        type            nutkWallFunction;
        Cmu             0.09;
        kappa           0.41;
        E               9.8;
        value           uniform 0.000208663;
    }
    nWall
    {
        type            nutkWallFunction;
        Cmu             0.09;
        kappa           0.41;
        E               9.8;
        value           nonuniform List<scalar> 6(9.45001e-05 9.83526e-05 0.000110497 0.000136531 0.000139127 0.000116688);
    }
    sideWalls
    {
        type            empty;
    }
    glass1
    {
        type            nutkWallFunction;
        Cmu             0.09;
        kappa           0.41;
        E               9.8;
        value           nonuniform List<scalar> 9(0.00012716 0.000171979 0.000208456 0.00024299 0.000277736 0.000314048 0.000346934 0.000353443 0.000344925);
    }
    glass2
    {
        type            nutkWallFunction;
        Cmu             0.09;
        kappa           0.41;
        E               9.8;
        value           nonuniform List<scalar> 2(0.000171635 0.000162457);
    }
    sun
    {
        type            nutkWallFunction;
        Cmu             0.09;
        kappa           0.41;
        E               9.8;
        value           nonuniform List<scalar> 
14
(
0.000127068
0.000138152
0.00014042
0.000146804
0.000152649
0.000158045
0.00016324
0.000168563
0.000172553
0.000174613
0.000174164
0.000170785
0.000164457
0.000155863
)
;
    }
    heatsource1
    {
        type            nutkWallFunction;
        Cmu             0.09;
        kappa           0.41;
        E               9.8;
        value           nonuniform List<scalar> 3(6.91187e-05 8.42739e-05 9.45001e-05);
    }
    heatsource2
    {
        type            nutkWallFunction;
        Cmu             0.09;
        kappa           0.41;
        E               9.8;
        value           nonuniform List<scalar> 4(0.000148732 9.45562e-05 9.45562e-05 0.000144502);
    }
    Table_master
    {
        type            nutkWallFunction;
        Cmu             0.09;
        kappa           0.41;
        E               9.8;
        value           nonuniform List<scalar> 9(9.22139e-05 8.16583e-05 7.3052e-05 6.60019e-05 6.01752e-05 5.53134e-05 5.12288e-05 4.77997e-05 4.4975e-05);
    }
    Table_slave
    {
        type            nutkWallFunction;
        Cmu             0.09;
        kappa           0.41;
        E               9.8;
        value           nonuniform List<scalar> 9(0.000103549 9.46322e-05 8.82076e-05 8.32947e-05 7.90973e-05 7.51985e-05 7.1437e-05 6.74589e-05 6.27861e-05);
    }
    inlet
    {
        type            calculated;
        value           uniform 0.000100623;
    }
    outlet
    {
        type            calculated;
        value           nonuniform List<scalar> 2(0.00177479 0.00188075);
    }
}


// ************************************************************************* //
