// -*- C++ -*-
// File generated by PyFoam - sorry for the ugliness

FoamFile
{
 version 2.0;
 format ascii;
 class volVectorField;
 location "900";
 object U;
}

dimensions [ 0 1 -1 0 0 0 0 ];

internalField nonuniform List<vector> 459
(
  (0.0347856 0.0847609 0)
  (-0.16465 0.0250523 0)
  (-0.18826 0.0178374 0)
  (-0.218838 0.0127157 0)
  (-0.241795 0.00709677 0)
  (-0.256454 0.00121021 0)
  (-0.261659 -0.00503838 0)
  (-0.255829 -0.0116767 0)
  (-0.239286 -0.0185379 0)
  (-0.212831 -0.024698 0)
  (-0.178821 -0.0293133 0)
  (-0.140216 -0.0320338 0)
  (-0.0999919 -0.0334824 0)
  (-0.0632749 -0.0355577 0)
  (-0.0455169 -0.039842 0)
  (0.000617368 0.00645719 0)
  (-0.0187955 -0.0182375 0)
  (0.00616294 -0.0259141 0)
  (0.0255795 -0.0186818 0)
  (0.0408907 -0.0122707 0)
  (0.0515862 -0.0077101 0)
  (0.0575527 -0.0046953 0)
  (0.0603842 -0.00314298 0)
  (0.0616621 -0.00243975 0)
  (0.0623503 -0.00207738 0)
  (0.0627726 -0.00184045 0)
  (0.0629539 -0.00164847 0)
  (0.0628315 -0.00140581 0)
  (0.0621882 -0.000942167 0)
  (0.060446 0.000128044 0)
  (0.0563957 0.00234969 0)
  (0.048708 0.00474604 0)
  (0.0409243 0.00667533 0)
  (-0.0113799 0.02008 0)
  (0.20832 0.173296 0)
  (-0.153738 0.0654876 0)
  (-0.150611 0.0516368 0)
  (-0.18179 0.0410563 0)
  (-0.204066 0.0292789 0)
  (-0.218528 0.0163208 0)
  (-0.22408 0.0017942 0)
  (-0.218908 -0.0142755 0)
  (-0.203655 -0.0302894 0)
  (-0.179556 -0.0438526 0)
  (-0.149303 -0.0529995 0)
  (-0.116189 -0.0568025 0)
  (-0.0835449 -0.0558437 0)
  (-0.0556203 -0.05176 0)
  (-0.0379293 -0.0449631 0)
  (-0.0233111 -0.0238844 0)
  (-0.00934561 0.00668512 0)
  (0.0635339 0.0284644 0)
  (0.0351551 -0.0203587 0)
  (0.0411766 -0.0297406 0)
  (0.0516189 -0.0243326 0)
  (0.0596121 -0.016069 0)
  (0.064493 -0.00881875 0)
  (0.0662129 -0.00345022 0)
  (0.0663419 -0.000576072 0)
  (0.0662269 0.000689039 0)
  (0.0662905 0.00131165 0)
  (0.0664239 0.00171819 0)
  (0.0665159 0.00208496 0)
  (0.0665238 0.00256946 0)
  (0.0663952 0.00352052 0)
  (0.0655868 0.00585036 0)
  (0.0616537 0.0122616 0)
  (0.051773 0.0177014 0)
  (0.0453755 0.0213701 0)
  (-0.0441822 0.0435662 0)
  (0.367223 0.259011 0)
  (-0.170787 0.104095 0)
  (-0.112346 0.083117 0)
  (-0.142139 0.0640666 0)
  (-0.161335 0.0447064 0)
  (-0.174253 0.023767 0)
  (-0.179253 0.00020279 0)
  (-0.173269 -0.0255597 0)
  (-0.1578 -0.0506683 0)
  (-0.134839 -0.0710027 0)
  (-0.107465 -0.0837508 0)
  (-0.0789493 -0.0878449 0)
  (-0.0518326 -0.0842535 0)
  (-0.0285918 -0.0743349 0)
  (-0.0115937 -0.0587504 0)
  (0.00214524 -0.033562 0)
  (0.0116853 3.06114e-05 0)
  (0.104341 -0.0464556 0)
  (0.0717472 -0.0459293 0)
  (0.0682409 -0.039575 0)
  (0.070812 -0.0303828 0)
  (0.0725049 -0.0205999 0)
  (0.0730519 -0.0124982 0)
  (0.0710176 -0.0103664 0)
  (0.0675345 -0.00758701 0)
  (0.0652678 -0.00609152 0)
  (0.0642645 -0.00524275 0)
  (0.0638385 -0.00471186 0)
  (0.0636668 -0.0043392 0)
  (0.0638132 -0.00393695 0)
  (0.0647511 -0.00316208 0)
  (0.0677126 -5.94016e-05 0)
  (0.0657326 0.0172477 0)
  (0.0523949 0.0296081 0)
  (0.0514579 0.0382557 0)
  (-0.0725861 0.068807 0)
  (0.509771 0.327772 0)
  (-0.205432 0.138301 0)
  (-0.0724531 0.109326 0)
  (-0.100257 0.0829589 0)
  (-0.11339 0.0583034 0)
  (-0.122339 0.0312868 0)
  (-0.124553 -0.000679892 0)
  (-0.115137 -0.0365309 0)
  (-0.0982457 -0.070326 0)
  (-0.0768242 -0.0960926 0)
  (-0.0537382 -0.110946 0)
  (-0.0318025 -0.114289 0)
  (-0.011993 -0.108143 0)
  (0.00535741 -0.0936573 0)
  (0.0193648 -0.0732844 0)
  (0.0338373 -0.0480241 0)
  (0.0563731 -0.0231206 0)
  (0.0869571 -0.00735475 0)
  (0.0963478 -0.0377479 0)
  (0.0832146 -0.0403399 0)
  (0.075362 -0.0342744 0)
  (0.072174 -0.0269267 0)
  (0.0704798 -0.0189275 0)
  (0.070325 -0.00995393 0)
  (0.0728135 -0.00588824 0)
  (0.0768984 -0.00493897 0)
  (0.0802853 -0.00439024 0)
  (0.0827451 -0.00388531 0)
  (0.0843295 -0.00312622 0)
  (0.084405 -0.00189922 0)
  (0.0818957 -8.6226e-06 0)
  (0.0756123 0.00281031 0)
  (0.0628051 0.00707785 0)
  (0.0520555 0.0275474 0)
  (0.0415351 0.0446435 0)
  (0.0543654 0.058448 0)
  (-0.101784 0.0921325 0)
  (0.631675 0.38106 0)
  (-0.246995 0.166418 0)
  (-0.0337053 0.123655 0)
  (-0.0568715 0.0930209 0)
  (-0.0613785 0.0655914 0)
  (-0.0633333 0.0350259 0)
  (-0.0575121 -0.00389292 0)
  (-0.0421982 -0.0494063 0)
  (-0.02404 -0.0893128 0)
  (-0.00637991 -0.117034 0)
  (0.0096022 -0.130998 0)
  (0.0218655 -0.131457 0)
  (0.0315758 -0.122352 0)
  (0.0391082 -0.106045 0)
  (0.0455046 -0.0850121 0)
  (0.0527526 -0.0619042 0)
  (0.063383 -0.0417833 0)
  (0.0741114 -0.0341634 0)
  (0.076426 -0.0386054 0)
  (0.0702969 -0.0359732 0)
  (0.0628385 -0.0297085 0)
  (0.0575564 -0.023197 0)
  (0.0542242 -0.0169091 0)
  (0.0529814 -0.0108921 0)
  (0.0539119 -0.00631883 0)
  (0.0565439 -0.00429286 0)
  (0.0593015 -0.00350418 0)
  (0.0619462 -0.00271917 0)
  (0.0643284 -0.00108891 0)
  (0.0660374 0.00189912 0)
  (0.0658879 0.00631158 0)
  (0.0633491 0.0122803 0)
  (0.0577752 0.0204803 0)
  (0.0510842 0.0360399 0)
  (0.0420426 0.0549344 0)
  (0.0625581 0.0758546 0)
  (-0.0157857 0.10509 0)
  (0.0447493 0.0341187 0)
  (-0.0621595 -0.0351477 0)
  (-0.268752 -0.0572845 0)
  (0.718591 0.425637 0)
  (-0.286466 0.185479 0)
  (-0.00525643 0.118359 0)
  (-0.01263 0.0919666 0)
  (-0.00565509 0.0658768 0)
  (0.00186332 0.0313113 0)
  (0.0239177 -0.0166102 0)
  (0.0450524 -0.0666474 0)
  (0.0611668 -0.105414 0)
  (0.0715088 -0.129531 0)
  (0.0763941 -0.139372 0)
  (0.0768588 -0.136983 0)
  (0.0743637 -0.125487 0)
  (0.0701503 -0.107781 0)
  (0.0656433 -0.0867477 0)
  (0.0622789 -0.0651763 0)
  (0.0610672 -0.0466253 0)
  (0.0602745 -0.0355188 0)
  (0.0562656 -0.0315392 0)
  (0.0487444 -0.0279435 0)
  (0.0407744 -0.0231189 0)
  (0.0347289 -0.0183071 0)
  (0.0309704 -0.013996 0)
  (0.0295603 -0.0102121 0)
  (0.0302732 -0.00759456 0)
  (0.032502 -0.00680206 0)
  (0.0353794 -0.00674579 0)
  (0.0386153 -0.00629696 0)
  (0.0420501 -0.00455308 0)
  (0.0454503 -0.000702258 0)
  (0.0483196 0.00544957 0)
  (0.0496451 0.0135225 0)
  (0.0497126 0.0237724 0)
  (0.0500043 0.0381592 0)
  (0.049132 0.0564349 0)
  (0.0708728 0.0797214 0)
  (0.0527683 0.0986542 0)
  (0.0912692 0.0692393 0)
  (0.114513 0.0448476 0)
  (-0.129407 -0.00827253 0)
  (0.769114 0.466332 0)
  (-0.304974 0.171347 0)
  (0.0207787 0.0669668 0)
  (0.0463701 0.0651443 0)
  (0.0648079 0.0513069 0)
  (0.0868613 0.0140305 0)
  (0.120974 -0.0397305 0)
  (0.142441 -0.0847777 0)
  (0.151905 -0.115687 0)
  (0.151017 -0.132201 0)
  (0.142021 -0.135867 0)
  (0.127545 -0.129207 0)
  (0.110152 -0.115213 0)
  (0.0920001 -0.0967438 0)
  (0.0748874 -0.0765011 0)
  (0.0600671 -0.0567751 0)
  (0.0482152 -0.0400777 0)
  (0.0386281 -0.0288759 0)
  (0.0294795 -0.0229809 0)
  (0.0204579 -0.0193716 0)
  (0.0126753 -0.0161999 0)
  (0.00712383 -0.0135161 0)
  (0.00388089 -0.0114301 0)
  (0.00277838 -0.00988188 0)
  (0.00346903 -0.00915589 0)
  (0.00534974 -0.00942249 0)
  (0.00784213 -0.00997994 0)
  (0.0107819 -0.0100176 0)
  (0.0142456 -0.00872663 0)
  (0.0183641 -0.00513001 0)
  (0.0241482 0.00169399 0)
  (0.0295961 0.0105961 0)
  (0.0347207 0.0209685 0)
  (0.0414382 0.0336662 0)
  (0.0490295 0.0485959 0)
  (0.0707255 0.0674242 0)
  (0.0841306 0.0762659 0)
  (0.115718 0.0540714 0)
  (0.15537 0.0445093 0)
  (-0.0376118 0.0925148 0)
  (0.872963 0.468777 0)
  (-0.0685398 0.15066 0)
  (0.106829 -0.0125651 0)
  (0.176372 -0.0320644 0)
  (0.193683 -0.0394686 0)
  (0.226099 -0.062021 0)
  (0.24876 -0.0865804 0)
  (0.255079 -0.105969 0)
  (0.245535 -0.11754 0)
  (0.223802 -0.12061 0)
  (0.194143 -0.115814 0)
  (0.160552 -0.104828 0)
  (0.126299 -0.0895936 0)
  (0.093867 -0.0720895 0)
  (0.0650513 -0.0543802 0)
  (0.040678 -0.0380102 0)
  (0.0214756 -0.0248251 0)
  (0.00714801 -0.0165115 0)
  (-0.00396964 -0.0125916 0)
  (-0.0121666 -0.0110872 0)
  (-0.0182789 -0.010296 0)
  (-0.0224476 -0.00988772 0)
  (-0.0249635 -0.00979987 0)
  (-0.0261229 -0.0100015 0)
  (-0.0262622 -0.0105849 0)
  (-0.0258149 -0.0115352 0)
  (-0.0251267 -0.0125349 0)
  (-0.024263 -0.0131684 0)
  (-0.0230427 -0.0129676 0)
  (-0.021065 -0.0113612 0)
  (-0.0173206 -0.0076132 0)
  (-0.00820952 -0.00102967 0)
  (-0.00035824 0.00719373 0)
  (0.0100125 0.0153094 0)
  (0.0216797 0.0225338 0)
  (0.0417171 0.0301473 0)
  (0.0612012 0.0239454 0)
  (0.081781 -0.00388454 0)
  (0.141108 0.0383436 0)
  (-0.403305 0.201622 0)
  (1.01835 0.423384 0)
  (0.484674 0.28015 0)
  (0.499084 0.185522 0)
  (0.52141 0.117975 0)
  (0.502794 0.0714473 0)
  (0.46532 0.0261862 0)
  (0.420496 -0.0149218 0)
  (0.37067 -0.0458511 0)
  (0.315721 -0.0642983 0)
  (0.258341 -0.0710351 0)
  (0.201839 -0.0687017 0)
  (0.148984 -0.0605464 0)
  (0.101277 -0.0490286 0)
  (0.0600031 -0.0360092 0)
  (0.0260166 -0.0234157 0)
  (-0.00156049 -0.012651 0)
  (-0.0202526 -0.00635451 0)
  (-0.0316357 -0.00421283 0)
  (-0.0393099 -0.00422584 0)
  (-0.0449038 -0.00509081 0)
  (-0.04926 -0.00609514 0)
  (-0.0526383 -0.00708248 0)
  (-0.055295 -0.00804743 0)
  (-0.0574749 -0.00901162 0)
  (-0.0594543 -0.0100304 0)
  (-0.0615583 -0.0110653 0)
  (-0.0641091 -0.0119116 0)
  (-0.0673857 -0.0122178 0)
  (-0.071695 -0.0114662 0)
  (-0.0774642 -0.00896011 0)
  (-0.0852319 -0.00389966 0)
  (-0.0949 0.00421539 0)
  (-0.104472 0.0147601 0)
  (-0.119015 0.0280498 0)
  (-0.141896 0.0443412 0)
  (-0.175631 0.0626307 0)
  (-0.223715 0.0790773 0)
  (-0.279477 0.0911945 0)
  (-0.348008 0.0988566 0)
  (-0.60892 0.102341 0)
  (-0.164551 0.00716154 0)
  (0.126963 0.0157317 0)
  (0.214095 -0.0143302 0)
  (0.200328 -0.0309859 0)
  (0.186274 -0.034709 0)
  (0.166264 -0.0343492 0)
  (0.138245 -0.0316971 0)
  (0.105136 -0.0269342 0)
  (0.0702721 -0.0204987 0)
  (0.0364239 -0.0129355 0)
  (0.00223984 -0.00449664 0)
  (-0.0265133 0.00246384 0)
  (-0.0457669 0.00647553 0)
  (-0.0583534 0.00828768 0)
  (-0.0656337 0.00828752 0)
  (-0.0700809 0.00754555 0)
  (-0.073378 0.0067119 0)
  (-0.0762959 0.00586851 0)
  (-0.0792529 0.0048801 0)
  (-0.0822349 0.00391204 0)
  (-0.0853261 0.00298233 0)
  (-0.0886232 0.00210647 0)
  (-0.092232 0.00131106 0)
  (-0.0962426 0.000727943 0)
  (-0.100723 0.000567144 0)
  (-0.105672 0.00109311 0)
  (-0.111016 0.00259506 0)
  (-0.116585 0.00534629 0)
  (-0.121778 0.00979963 0)
  (-0.125795 0.0169179 0)
  (-0.129064 0.027816 0)
  (-0.131848 0.0428686 0)
  (-0.134788 0.0613542 0)
  (-0.138331 0.0799466 0)
  (-0.139518 0.0890412 0)
  (-0.122565 0.0679106 0)
  (-0.0823735 -0.0224147 0)
  (-0.273946 -0.197451 0)
  (0.00159379 0.197715 0)
  (0.0464472 0.0765092 0)
  (0.00683239 0.0103995 0)
  (-0.00381586 0.00107084 0)
  (-0.0109791 0.0011613 0)
  (-0.0221254 -0.000830018 0)
  (-0.0372284 -0.0016227 0)
  (-0.0538349 -0.000499704 0)
  (-0.0691996 0.00133437 0)
  (-0.0810173 0.00255095 0)
  (-0.0876311 0.0017801 0)
  (-0.0915908 -0.00131143 0)
  (-0.0932857 -0.00609025 0)
  (-0.0937659 -0.0115436 0)
  (-0.0939073 -0.0173986 0)
  (-0.0944297 -0.0230721 0)
  (-0.0955231 -0.0279792 0)
  (-0.09712 -0.0318255 0)
  (-0.0991499 -0.0344635 0)
  (-0.101695 -0.0361723 0)
  (-0.104626 -0.0369592 0)
  (-0.107825 -0.0368641 0)
  (-0.111215 -0.0362395 0)
  (-0.114709 -0.0350629 0)
  (-0.118146 -0.0332083 0)
  (-0.121257 -0.0304196 0)
  (-0.123646 -0.0262616 0)
  (-0.124815 -0.0200434 0)
  (-0.12434 -0.0118507 0)
  (-0.121412 -0.00151972 0)
  (-0.114667 0.0116655 0)
  (-0.102811 0.0283496 0)
  (-0.085366 0.0481303 0)
  (-0.063115 0.0672954 0)
  (-0.0387936 0.0787403 0)
  (0.000371158 0.0633985 0)
  (0.143665 -0.00758682 0)
  (-0.204967 -0.107949 0)
  (-0.0417128 -0.319252 0)
  (-0.412002 -0.122098 0)
  (-0.300154 0.0668233 0)
  (-0.24182 -0.018135 0)
  (-0.200685 -0.0257066 0)
  (-0.186433 -0.0146961 0)
  (-0.180682 -0.00467812 0)
  (-0.177555 0.00369432 0)
  (-0.174418 0.0116689 0)
  (-0.169916 0.0196072 0)
  (-0.163529 0.0276455 0)
  (-0.155261 0.0358852 0)
  (-0.14557 0.0442118 0)
  (-0.135603 0.0524702 0)
  (-0.126358 0.0606466 0)
  (-0.118525 0.0687016 0)
  (-0.112377 0.0764066 0)
  (-0.107875 0.0833887 0)
  (-0.104789 0.0891785 0)
  (-0.102843 0.093464 0)
  (-0.101767 0.0961457 0)
  (-0.101381 0.097403 0)
  (-0.101575 0.0972332 0)
  (-0.102255 0.0957088 0)
  (-0.103333 0.0933683 0)
  (-0.104729 0.0902796 0)
  (-0.106307 0.0865101 0)
  (-0.10784 0.0821124 0)
  (-0.108942 0.077095 0)
  (-0.108949 0.0714255 0)
  (-0.106604 0.0663962 0)
  (-0.100084 0.0630357 0)
  (-0.0870512 0.0622008 0)
  (-0.0656388 0.0648304 0)
  (-0.0360924 0.0714874 0)
  (0.00897884 0.0813793 0)
  (0.0532497 0.0828472 0)
  (0.094405 0.0700248 0)
  (0.161006 0.044273 0)
  (-0.234639 -0.00577518 0)
)
;

boundaryField
{
  floor
  {
    type noSlip;
  }
  ceiling
  {
    type noSlip;
  }
  sWall
  {
    type noSlip;
  }
  nWall
  {
    type noSlip;
  }
  sideWalls
  {
    type empty;
  }
  glass1
  {
    type noSlip;
  }
  glass2
  {
    type noSlip;
  }
  sun
  {
    type noSlip;
  }
  heatsource1
  {
    type noSlip;
  }
  heatsource2
  {
    type noSlip;
  }
  Table_master
  {
    type noSlip;
  }
  Table_slave
  {
    type noSlip;
  }
  inlet
  {
    type fixedValue;
    value uniform (0.277164 -0.114805 0);
  }
  outlet
  {
    type zeroGradient;
  }
} 	// ************************************************************************* //

