// -*- C++ -*-
// File generated by PyFoam - sorry for the ugliness

FoamFile
{
 version 2.0;
 format ascii;
 class volVectorField;
 location "100";
 object U;
}

dimensions [ 0 1 -1 0 0 0 0 ];

internalField nonuniform List<vector> 459
(
  (0.374565 -0.174589 0)
  (0.296643 -0.164336 0)
  (0.442203 -0.110048 0)
  (0.554487 -0.0728667 0)
  (0.607248 -0.0513872 0)
  (0.628335 -0.0372095 0)
  (0.636683 -0.0262818 0)
  (0.635508 -0.0169763 0)
  (0.623696 -0.0082336 0)
  (0.600523 0.000766886 0)
  (0.564693 0.0109555 0)
  (0.513645 0.0237829 0)
  (0.442314 0.0426141 0)
  (0.335819 0.0791418 0)
  (0.250247 0.178894 0)
  (0.0120199 0.00180177 0)
  (-0.000505845 0.00116188 0)
  (0.00371912 -0.00355278 0)
  (0.00987187 -0.00770423 0)
  (0.0165839 -0.00849388 0)
  (0.0225074 -0.00595552 0)
  (0.0247876 -0.00328329 0)
  (0.02216 -0.00175017 0)
  (0.0185135 -0.000514833 0)
  (0.0151259 0.000521802 0)
  (0.0120491 0.00124737 0)
  (0.00926441 0.00159726 0)
  (0.00680861 0.00162752 0)
  (0.00457135 0.00160015 0)
  (0.00194297 0.00187787 0)
  (-0.000106529 0.000767489 0)
  (0.000479989 -0.00073118 0)
  (0.00538381 -0.000969346 0)
  (-0.0166601 0.00181848 0)
  (0.483306 -0.360113 0)
  (0.230452 -0.274156 0)
  (0.359705 -0.151333 0)
  (0.449936 -0.078246 0)
  (0.485274 -0.0410052 0)
  (0.499638 -0.0174641 0)
  (0.507774 0.0016075 0)
  (0.50993 0.0183946 0)
  (0.502914 0.0338849 0)
  (0.486078 0.0497644 0)
  (0.458674 0.0676741 0)
  (0.420031 0.0895606 0)
  (0.371222 0.118545 0)
  (0.316186 0.160773 0)
  (0.285737 0.236069 0)
  (0.256762 0.206391 0)
  (0.136352 0.152999 0)
  (0.00912967 0.00371374 0)
  (-0.00779299 0.00063447 0)
  (-0.00789201 -0.00468796 0)
  (-0.00678737 -0.0093838 0)
  (-0.0045605 -0.0110803 0)
  (0.000113404 -0.00607216 0)
  (0.00775939 0.00291358 0)
  (0.00405554 0.00418952 0)
  (0.00219411 0.00495333 0)
  (0.00179358 0.00500099 0)
  (0.00186405 0.00461917 0)
  (0.00208573 0.00416566 0)
  (0.00235978 0.00392201 0)
  (0.00237498 0.00422508 0)
  (0.000119057 0.00568629 0)
  (-0.000455262 0.00211296 0)
  (0.00127704 -0.000290344 0)
  (0.00427748 -4.45559e-05 0)
  (-0.0388927 -0.000964022 0)
  (0.52574 -0.547584 0)
  (0.088334 -0.373573 0)
  (0.243404 -0.204468 0)
  (0.311927 -0.116923 0)
  (0.328114 -0.0740719 0)
  (0.337118 -0.0452448 0)
  (0.345794 -0.0209507 0)
  (0.352878 0.0024798 0)
  (0.353471 0.0272523 0)
  (0.346936 0.0543979 0)
  (0.332738 0.0848079 0)
  (0.310744 0.119347 0)
  (0.282263 0.158931 0)
  (0.248278 0.203864 0)
  (0.221138 0.253792 0)
  (0.178391 0.2212 0)
  (0.111616 0.196739 0)
  (-0.0200814 0.0172003 0)
  (-0.0257082 0.00284903 0)
  (-0.0288659 -0.00387239 0)
  (-0.0314748 -0.00989743 0)
  (-0.0333008 -0.0137695 0)
  (-0.0320389 -0.0132624 0)
  (-0.00694939 0.000609541 0)
  (-0.0134396 -0.00151753 0)
  (-0.0113743 -0.00190763 0)
  (-0.00832379 -0.00271176 0)
  (-0.00525403 -0.0038699 0)
  (-0.00252329 -0.00498914 0)
  (-0.000147974 -0.00577768 0)
  (0.00181838 -0.00548877 0)
  (-0.00161293 -0.000247324 0)
  (0.0270173 -0.00594239 0)
  (0.0225016 0.00389519 0)
  (0.0211695 0.0110507 0)
  (-0.0194116 0.00786405 0)
  (0.542808 -0.667904 0)
  (-0.0479668 -0.426969 0)
  (0.15681 -0.231344 0)
  (0.192914 -0.133388 0)
  (0.185295 -0.0856275 0)
  (0.1906 -0.0517371 0)
  (0.199533 -0.0236527 0)
  (0.208672 0.00359918 0)
  (0.214419 0.0325725 0)
  (0.215186 0.064612 0)
  (0.210542 0.100503 0)
  (0.200108 0.140446 0)
  (0.184163 0.183985 0)
  (0.161627 0.229621 0)
  (0.141928 0.27532 0)
  (0.114028 0.270625 0)
  (0.0913231 0.257874 0)
  (0.00980895 0.139823 0)
  (-0.0677928 0.0232746 0)
  (-0.0518367 0.0070836 0)
  (-0.0556391 -0.000183174 0)
  (-0.0623042 -0.00652193 0)
  (-0.0701915 -0.0116424 0)
  (-0.0767958 -0.0140552 0)
  (-0.0753329 -0.0105244 0)
  (-0.0652729 -0.0108527 0)
  (-0.0532997 -0.0129787 0)
  (-0.0387593 -0.0156052 0)
  (-0.0218162 -0.0183803 0)
  (0.000673951 -0.020127 0)
  (0.0226838 -0.0198326 0)
  (0.044112 -0.0185115 0)
  (0.0648408 -0.0166388 0)
  (0.0751314 -0.0128817 0)
  (0.0743974 0.00228903 0)
  (0.0629697 0.0207323 0)
  (0.0392587 0.0458117 0)
  (0.530046 -0.733815 0)
  (-0.14367 -0.460662 0)
  (0.0980581 -0.248184 0)
  (0.0924729 -0.131216 0)
  (0.0597092 -0.0892065 0)
  (0.0702541 -0.0586601 0)
  (0.081005 -0.0322547 0)
  (0.0884062 -0.00434293 0)
  (0.0968875 0.0279124 0)
  (0.100477 0.0644259 0)
  (0.100359 0.105329 0)
  (0.096258 0.15007 0)
  (0.0882865 0.197655 0)
  (0.0750944 0.246555 0)
  (0.0654567 0.294797 0)
  (0.0468436 0.304417 0)
  (0.0394898 0.291255 0)
  (-0.0158395 0.147288 0)
  (-0.0438824 0.0363967 0)
  (-0.048523 0.0159827 0)
  (-0.0579119 0.00755964 0)
  (-0.0641961 0.000721195 0)
  (-0.0686326 -0.0053586 0)
  (-0.0707285 -0.0094639 0)
  (-0.0686274 -0.0110219 0)
  (-0.0623237 -0.0143429 0)
  (-0.0532471 -0.0186324 0)
  (-0.0417078 -0.023534 0)
  (-0.0278922 -0.0285451 0)
  (-0.0120089 -0.0323703 0)
  (0.00730467 -0.033734 0)
  (0.0260998 -0.0324527 0)
  (0.0442554 -0.0277497 0)
  (0.0595245 -0.0172792 0)
  (0.0719769 0.00420107 0)
  (0.0792779 0.0281537 0)
  (0.0808313 0.0526142 0)
  (0.0894543 0.0416504 0)
  (0.0968672 0.0327352 0)
  (-0.156167 0.0364892 0)
  (0.475857 -0.746818 0)
  (-0.189281 -0.472362 0)
  (0.0344095 -0.240294 0)
  (0.00224229 -0.0983602 0)
  (-0.0437225 -0.0894404 0)
  (-0.0271134 -0.0671133 0)
  (-0.01899 -0.0423805 0)
  (-0.012684 -0.0134315 0)
  (-0.00598734 0.0212048 0)
  (-0.00346141 0.0611991 0)
  (-0.00161814 0.105659 0)
  (-0.00143701 0.153807 0)
  (-0.00289172 0.204661 0)
  (-0.00764591 0.256461 0)
  (-0.00713909 0.305546 0)
  (-0.0166299 0.31937 0)
  (-0.0101352 0.300846 0)
  (-0.0377031 0.161631 0)
  (-0.0387288 0.0561324 0)
  (-0.0457152 0.0263499 0)
  (-0.0535267 0.0135956 0)
  (-0.0580364 0.00437168 0)
  (-0.0606513 -0.00373041 0)
  (-0.0612076 -0.0103395 0)
  (-0.059478 -0.0156589 0)
  (-0.0554609 -0.0213611 0)
  (-0.0495374 -0.0277251 0)
  (-0.0418159 -0.0345545 0)
  (-0.0323901 -0.0412612 0)
  (-0.0214605 -0.0468345 0)
  (-0.00913949 -0.0501717 0)
  (0.00533462 -0.0505123 0)
  (0.0199159 -0.0464051 0)
  (0.0354264 -0.0342924 0)
  (0.0525998 -0.0102175 0)
  (0.0696021 0.0191007 0)
  (0.0789928 0.0392239 0)
  (0.0803679 0.0352449 0)
  (0.0971604 0.0417125 0)
  (-0.117411 0.0699019 0)
  (0.361998 -0.683893 0)
  (-0.201981 -0.433304 0)
  (-0.0852384 -0.210731 0)
  (-0.0825899 -0.0684492 0)
  (-0.142794 -0.0883994 0)
  (-0.126809 -0.073636 0)
  (-0.119917 -0.0490287 0)
  (-0.113538 -0.0176661 0)
  (-0.107449 0.0188053 0)
  (-0.103659 0.0595287 0)
  (-0.0990762 0.104242 0)
  (-0.0939331 0.152681 0)
  (-0.0881827 0.203973 0)
  (-0.0823793 0.255797 0)
  (-0.0713493 0.301981 0)
  (-0.0660918 0.317439 0)
  (-0.0469633 0.293621 0)
  (-0.0511578 0.164523 0)
  (-0.0407842 0.066223 0)
  (-0.0432721 0.0325657 0)
  (-0.0456795 0.0171697 0)
  (-0.0466326 0.00632011 0)
  (-0.0466142 -0.0030922 0)
  (-0.0458877 -0.011179 0)
  (-0.0446707 -0.0182145 0)
  (-0.0429434 -0.0252576 0)
  (-0.0406873 -0.0328884 0)
  (-0.0377301 -0.0410483 0)
  (-0.0339461 -0.049055 0)
  (-0.0293888 -0.0558065 0)
  (-0.0241398 -0.0603977 0)
  (-0.0181081 -0.0624675 0)
  (-0.0110904 -0.0611011 0)
  (-0.0015575 -0.0527882 0)
  (0.0125112 -0.0324044 0)
  (0.0361152 -0.000217554 0)
  (0.0538398 0.0246104 0)
  (0.0639 0.0335093 0)
  (0.10317 0.0550813 0)
  (-0.0832923 0.116491 0)
  (0.190618 -0.535143 0)
  (-0.325783 -0.343753 0)
  (-0.319813 -0.201542 0)
  (-0.190786 -0.050174 0)
  (-0.265486 -0.102477 0)
  (-0.232532 -0.0879278 0)
  (-0.220351 -0.059231 0)
  (-0.211899 -0.0242806 0)
  (-0.204231 0.0142766 0)
  (-0.197516 0.0549368 0)
  (-0.188898 0.0983124 0)
  (-0.177458 0.144856 0)
  (-0.162708 0.193956 0)
  (-0.144449 0.243068 0)
  (-0.120696 0.285159 0)
  (-0.0985346 0.300188 0)
  (-0.0680108 0.272272 0)
  (-0.054265 0.153584 0)
  (-0.0375286 0.0652124 0)
  (-0.0345612 0.0323679 0)
  (-0.0316804 0.0165547 0)
  (-0.0284007 0.00539387 0)
  (-0.0247844 -0.00394861 0)
  (-0.0226898 -0.0115491 0)
  (-0.0219151 -0.017991 0)
  (-0.02241 -0.0244483 0)
  (-0.0239994 -0.031753 0)
  (-0.0263762 -0.0399104 0)
  (-0.0292464 -0.0480929 0)
  (-0.0326262 -0.0549646 0)
  (-0.0365677 -0.0595454 0)
  (-0.0413234 -0.062052 0)
  (-0.0465494 -0.0623441 0)
  (-0.0508823 -0.0589553 0)
  (-0.0511317 -0.0499403 0)
  (-0.041411 -0.0352008 0)
  (-0.0110626 -0.0165671 0)
  (0.00705653 0.000851689 0)
  (0.0829158 0.0654972 0)
  (-0.364169 0.188668 0)
  (-0.0638834 -0.390859 0)
  (-0.670498 -0.345975 0)
  (-0.884994 -0.337745 0)
  (-0.24733 -0.180484 0)
  (-0.371141 -0.147993 0)
  (-0.314112 -0.109366 0)
  (-0.299848 -0.070657 0)
  (-0.293408 -0.0334744 0)
  (-0.287484 0.00433096 0)
  (-0.278796 0.0442191 0)
  (-0.265778 0.0850962 0)
  (-0.247066 0.127829 0)
  (-0.221898 0.172267 0)
  (-0.189988 0.216271 0)
  (-0.151599 0.253363 0)
  (-0.1124 0.26729 0)
  (-0.0708702 0.2393 0)
  (-0.0426591 0.133572 0)
  (-0.0197182 0.0570141 0)
  (-0.0126118 0.0278421 0)
  (-0.00639451 0.0137357 0)
  (0.000978188 0.00387583 0)
  (0.00641917 -0.00360076 0)
  (0.00869721 -0.00907708 0)
  (0.00866586 -0.0136085 0)
  (0.00637516 -0.0183045 0)
  (0.00175852 -0.024186 0)
  (-0.00527906 -0.0314272 0)
  (-0.0143898 -0.0388088 0)
  (-0.0258512 -0.0445303 0)
  (-0.0395467 -0.0468333 0)
  (-0.0568104 -0.0458571 0)
  (-0.0790756 -0.0414245 0)
  (-0.107541 -0.0319727 0)
  (-0.141703 -0.015195 0)
  (-0.176825 0.00921248 0)
  (-0.207136 0.0369273 0)
  (-0.230907 0.0606201 0)
  (-0.273086 0.0773531 0)
  (-0.477488 0.0768642 0)
  (-1.88371 -0.372081 0)
  (-0.127338 -0.308037 0)
  (-0.363446 -0.184347 0)
  (-0.344601 -0.114763 0)
  (-0.347996 -0.0609834 0)
  (-0.350777 -0.0171396 0)
  (-0.348745 0.0188411 0)
  (-0.339878 0.0478787 0)
  (-0.323706 0.0775944 0)
  (-0.298392 0.10926 0)
  (-0.263036 0.14285 0)
  (-0.217582 0.176867 0)
  (-0.163774 0.206394 0)
  (-0.107602 0.219072 0)
  (-0.0533126 0.196728 0)
  (-0.00785304 0.104795 0)
  (0.0225865 0.0435985 0)
  (0.0314809 0.0226079 0)
  (0.0380661 0.0117248 0)
  (0.0447238 0.00148038 0)
  (0.0469378 -0.00535511 0)
  (0.046411 -0.00986839 0)
  (0.043916 -0.0135375 0)
  (0.0396401 -0.0173986 0)
  (0.0333806 -0.0221492 0)
  (0.024624 -0.0279565 0)
  (0.0129805 -0.034139 0)
  (-0.00246587 -0.0389953 0)
  (-0.0187932 -0.0392085 0)
  (-0.0352308 -0.0346846 0)
  (-0.0508626 -0.0260835 0)
  (-0.0646762 -0.0144246 0)
  (-0.0760403 -0.000492754 0)
  (-0.0853465 0.014853 0)
  (-0.0921678 0.0336735 0)
  (-0.0824678 0.0422552 0)
  (-0.0565777 0.00561913 0)
  (-0.159734 -0.168804 0)
  (-0.206075 0.0769444 0)
  (-0.0702577 -0.274951 0)
  (-0.272146 -0.180797 0)
  (-0.331934 -0.14348 0)
  (-0.371008 -0.118378 0)
  (-0.391924 -0.0946001 0)
  (-0.397743 -0.067434 0)
  (-0.389736 -0.0337114 0)
  (-0.370308 -0.00187565 0)
  (-0.338267 0.0284857 0)
  (-0.292699 0.0588192 0)
  (-0.233603 0.0893422 0)
  (-0.163569 0.117763 0)
  (-0.0893333 0.135257 0)
  (-0.0126715 0.118976 0)
  (0.0555554 0.0283981 0)
  (0.0875468 -0.0273043 0)
  (0.0979483 -0.0603641 0)
  (0.100123 -0.0811351 0)
  (0.0970969 -0.087438 0)
  (0.09132 -0.0866998 0)
  (0.0846504 -0.0833946 0)
  (0.0778686 -0.0798084 0)
  (0.0708322 -0.0768415 0)
  (0.0629356 -0.0746691 0)
  (0.0534693 -0.0730862 0)
  (0.0420775 -0.0716521 0)
  (0.0287906 -0.0698481 0)
  (0.0148169 -0.0670718 0)
  (0.00151042 -0.0639381 0)
  (-0.00906666 -0.0618796 0)
  (-0.0158987 -0.0612351 0)
  (-0.0165367 -0.0566748 0)
  (-0.0121388 -0.0416893 0)
  (-0.00121168 -0.0272345 0)
  (0.0235215 -0.0326491 0)
  (0.105947 -0.0693681 0)
  (-0.101574 -0.108356 0)
  (0.665383 0.213417 0)
  (0.180104 -0.256296 0)
  (-0.200881 0.209431 0)
  (-0.0946286 0.0708381 0)
  (-0.247889 0.118972 0)
  (-0.319617 0.145875 0)
  (-0.3691 0.159614 0)
  (-0.399181 0.165546 0)
  (-0.412369 0.165614 0)
  (-0.408749 0.161021 0)
  (-0.388509 0.159896 0)
  (-0.351647 0.163001 0)
  (-0.297487 0.169919 0)
  (-0.226347 0.180678 0)
  (-0.142971 0.195076 0)
  (-0.0582779 0.210795 0)
  (0.0588493 0.209783 0)
  (0.117055 0.207541 0)
  (0.146663 0.217464 0)
  (0.155967 0.230208 0)
  (0.155355 0.2406 0)
  (0.15026 0.240135 0)
  (0.143968 0.233979 0)
  (0.136899 0.226426 0)
  (0.12897 0.219887 0)
  (0.120225 0.215284 0)
  (0.110757 0.212591 0)
  (0.100604 0.211285 0)
  (0.089765 0.210723 0)
  (0.0781954 0.210404 0)
  (0.066031 0.210364 0)
  (0.0537133 0.210605 0)
  (0.0425696 0.212753 0)
  (0.034813 0.220914 0)
  (0.0321432 0.227914 0)
  (0.0345171 0.22366 0)
  (0.0419007 0.223043 0)
  (0.0513248 0.232076 0)
  (0.122293 0.225904 0)
  (-0.269834 0.237027 0)
)
;

boundaryField
{
  floor
  {
    type noSlip;
  }
  ceiling
  {
    type noSlip;
  }
  sWall
  {
    type noSlip;
  }
  nWall
  {
    type noSlip;
  }
  sideWalls
  {
    type empty;
  }
  glass1
  {
    type noSlip;
  }
  glass2
  {
    type noSlip;
  }
  sun
  {
    type noSlip;
  }
  heatsource1
  {
    type noSlip;
  }
  heatsource2
  {
    type noSlip;
  }
  Table_master
  {
    type noSlip;
  }
  Table_slave
  {
    type noSlip;
  }
  inlet
  {
    type fixedValue;
    value uniform (0.1 0 0);
  }
  outlet
  {
    type zeroGradient;
  }
} 	// ************************************************************************* //

