/*--------------------------------*- C++ -*----------------------------------*\
  =========                 |
  \\      /  F ield         | OpenFOAM: The Open Source CFD Toolbox
   \\    /   O peration     | Website:  https://openfoam.org
    \\  /    A nd           | Version:  6
     \\/     M anipulation  |
\*---------------------------------------------------------------------------*/
FoamFile
{
    version     2.0;
    format      ascii;
    class       volScalarField;
    location    "1000";
    object      alphat;
}
// * * * * * * * * * * * * * * * * * * * * * * * * * * * * * * * * * * * * * //

dimensions      [1 -1 -1 0 0 0 0];

internalField   nonuniform List<scalar> 
459
(
0.00125012
0.001367
0.00139262
0.00145957
0.0015215
0.00157939
0.00163606
0.00169193
0.00173175
0.00174925
0.00173851
0.00169583
0.001621
0.00152057
0.00141048
0.000551225
0.000675948
0.000759515
0.000753068
0.000726149
0.000691414
0.000648656
0.000606536
0.000568343
0.000534421
0.000504365
0.00047764
0.000453848
0.000432468
0.000412736
0.000393657
0.000373748
0.000358995
0.000326436
0.0017023
0.0041641
0.00398895
0.00464462
0.00528825
0.00593235
0.00650277
0.006929
0.0073148
0.00762924
0.00782808
0.00786025
0.00764767
0.00699594
0.00521303
0.0014374
0.000854232
0.000597838
0.00125322
0.00172407
0.00205647
0.00222874
0.00221751
0.00178992
0.00154669
0.00137208
0.0012377
0.00113059
0.00104326
0.000967895
0.000897371
0.000828731
0.000767657
0.000714506
0.000831023
0.000424819
0.0020781
0.00568707
0.00495349
0.00622447
0.00686037
0.00733088
0.00769424
0.00797892
0.00828725
0.00861007
0.00890969
0.00913085
0.00921191
0.00906439
0.00845352
0.00653289
0.00142325
0.00119819
0.00171405
0.00218691
0.00260117
0.00287586
0.00279063
0.00092862
0.000820279
0.000733243
0.000662993
0.000605737
0.00055857
0.000519411
0.00048693
0.000460564
0.000496124
0.000573538
0.00093092
0.000490053
0.00243847
0.00726799
0.00496661
0.00659691
0.00716617
0.00735883
0.00747639
0.0076142
0.00785412
0.00818133
0.00855713
0.00891257
0.00918387
0.00930198
0.00917948
0.00852935
0.00630021
0.00170924
0.00212004
0.00273166
0.0033116
0.00376019
0.00402535
0.0037621
0.00104679
0.000952734
0.000885048
0.000833255
0.000789259
0.000749278
0.000710964
0.000670919
0.000624673
0.000586209
0.000599104
0.00105603
0.000540664
0.00280582
0.00929828
0.00545862
0.00634592
0.00710597
0.00716333
0.00709371
0.0071554
0.0073658
0.00769735
0.00811919
0.00853663
0.00886218
0.00902303
0.00899117
0.00871655
0.00800684
0.00661678
0.00613858
0.00597341
0.00590742
0.00586009
0.00578489
0.00555459
0.00468824
0.00427024
0.00402588
0.00383705
0.00363906
0.00335414
0.00297352
0.00251264
0.00199987
0.0014802
0.0010902
0.00108939
0.000722369
0.000666556
0.000808308
0.000906811
0.00319519
0.0115083
0.00751381
0.00630432
0.00687251
0.00713058
0.00696955
0.00702654
0.00718644
0.00748388
0.0079081
0.00836511
0.0087242
0.00888113
0.00880756
0.00855361
0.00820754
0.00784278
0.00763347
0.00747652
0.00730093
0.00710342
0.00688518
0.00661648
0.00622446
0.00587356
0.00556195
0.00526349
0.00496009
0.00462893
0.00421419
0.00369986
0.00308495
0.00240329
0.00179963
0.00134593
0.00100849
0.000854809
0.00121879
0.000945218
0.00354916
0.0130516
0.0105243
0.00812305
0.00768125
0.00759672
0.00734722
0.00718348
0.00722936
0.00751783
0.00798804
0.00849854
0.00887868
0.00900519
0.00885983
0.0085492
0.00826931
0.0081599
0.00815815
0.00807716
0.00786013
0.0075451
0.00716922
0.00675443
0.00632133
0.00592107
0.0055547
0.00521332
0.00489712
0.0046135
0.00436229
0.00401365
0.00352855
0.00294019
0.00237528
0.0018696
0.00149518
0.00137436
0.00139676
0.00107137
0.00361553
0.0116023
0.0103148
0.00953036
0.00884181
0.00804057
0.0074049
0.00714497
0.0072904
0.0077588
0.00838964
0.008976
0.00932115
0.00932569
0.00902887
0.00861771
0.00835332
0.00833128
0.00833174
0.0080766
0.00762729
0.00707427
0.00649293
0.00594532
0.00546936
0.00507033
0.00473131
0.00444365
0.0042112
0.00404366
0.00395044
0.00390124
0.00364298
0.00326051
0.00292298
0.00274363
0.00283146
0.00324917
0.004005
0.00167857
0.003516
0.00417315
0.00463693
0.00475693
0.00485451
0.00511915
0.00565516
0.00647641
0.00749064
0.00852303
0.00938312
0.00989286
0.00993146
0.0095452
0.00894276
0.00850005
0.0082558
0.00804425
0.00769246
0.00713583
0.00645599
0.00576244
0.00514157
0.00463209
0.00422892
0.00390552
0.0036371
0.00340952
0.00321413
0.00304202
0.00288341
0.00273827
0.00262291
0.00253743
0.00250416
0.00251546
0.00250493
0.00241034
0.00225662
0.00158205
0.00175784
0.00359974
0.00580393
0.0076476
0.00909288
0.0102044
0.0109144
0.0112041
0.0111121
0.0106344
0.00986175
0.00890605
0.00807602
0.00754496
0.00711343
0.00659087
0.0059604
0.00529367
0.00466762
0.00413508
0.00371511
0.00338829
0.00312874
0.00291804
0.00274669
0.0026108
0.00250906
0.0024411
0.00240937
0.00240998
0.00242733
0.00245713
0.0024908
0.00250103
0.00244314
0.00230111
0.00208677
0.0013197
0.00234607
0.00601299
0.00893898
0.0100656
0.0106376
0.010829
0.0106067
0.0100366
0.00923552
0.00832135
0.00744661
0.00667109
0.00603673
0.00548901
0.00494232
0.00441558
0.00395859
0.00359206
0.00330888
0.00308695
0.00290126
0.00273911
0.00259612
0.00247717
0.00238585
0.00232239
0.00228587
0.00227572
0.0022967
0.00234575
0.00241889
0.00250785
0.00259411
0.00265387
0.00263535
0.00266808
0.0027257
0.00134648
0.00208165
0.00220671
0.00229478
0.00245793
0.00237373
0.00227644
0.00221382
0.00212582
0.00199939
0.0018417
0.00166371
0.00147828
0.00129819
0.00114293
0.00102518
0.000941595
0.000882639
0.000840296
0.000809488
0.000787253
0.000771787
0.000761996
0.000757381
0.000758282
0.000765305
0.000778151
0.000796738
0.000821496
0.00085309
0.000892192
0.000937843
0.000990141
0.00104967
0.00111698
0.00119158
0.00127949
0.00131014
0.00127754
0.00120072
0.00112017
)
;

boundaryField
{
    floor
    {
        type            compressible::alphatWallFunction;
        Prt             0.85;
        value           nonuniform List<scalar> 
29
(
0.000198924
7.70488e-05
9.56737e-05
0.000107915
0.000106976
0.000103047
9.79519e-05
9.16365e-05
8.53654e-05
7.96327e-05
7.45011e-05
6.99203e-05
6.58183e-05
6.21422e-05
5.88179e-05
5.57312e-05
5.27285e-05
4.95751e-05
4.72245e-05
4.19915e-05
4.19909e-05
5.7624e-05
6.77276e-05
7.54494e-05
0.000198922
7.70478e-05
8.40642e-05
0.000169921
0.00023893
)
;
    }
    ceiling
    {
        type            compressible::alphatWallFunction;
        Prt             0.85;
        value           nonuniform List<scalar> 
43
(
0.000287639
0.000303804
0.000315133
0.000336119
0.00032542
0.000312974
0.000304931
0.000293577
0.000277167
0.000256538
0.000233014
0.000208208
0.000183779
0.000162407
0.000145976
0.000134181
0.000125787
0.000119718
0.000115279
0.000112064
0.00010982
0.000108398
0.000107726
0.000107858
0.00010888
0.000110745
0.000113438
0.000117014
0.000121558
0.000127155
0.000133652
0.00014105
0.000149416
0.000158809
0.000169143
0.000181228
0.000185419
0.000180963
0.000170405
0.000159256
0.000468545
0.000548484
0.000321539
)
;
    }
    sWall
    {
        type            compressible::alphatWallFunction;
        Prt             0.85;
        value           uniform 0.00028643;
    }
    nWall
    {
        type            compressible::alphatWallFunction;
        Prt             0.85;
        value           nonuniform List<scalar> 6(0.000128921 0.000134374 0.000152116 0.000186399 0.000190047 0.000158936);
    }
    sideWalls
    {
        type            empty;
    }
    glass1
    {
        type            compressible::alphatWallFunction;
        Prt             0.85;
        value           nonuniform List<scalar> 9(0.000172802 0.000232943 0.000281704 0.000327659 0.000373829 0.000422125 0.000465548 0.00047377 0.000461856);
    }
    glass2
    {
        type            compressible::alphatWallFunction;
        Prt             0.85;
        value           nonuniform List<scalar> 2(0.000233331 0.000220585);
    }
    sun
    {
        type            compressible::alphatWallFunction;
        Prt             0.85;
        value           nonuniform List<scalar> 
14
(
0.000177085
0.00019303
0.000196507
0.000205561
0.000213893
0.00022165
0.000229211
0.000236637
0.000241914
0.000244228
0.000242808
0.000237153
0.000227202
0.000213765
)
;
    }
    heatsource1
    {
        type            compressible::alphatWallFunction;
        Prt             0.85;
        value           nonuniform List<scalar> 3(9.43881e-05 0.000115092 0.00012922);
    }
    heatsource2
    {
        type            compressible::alphatWallFunction;
        Prt             0.85;
        value           nonuniform List<scalar> 4(0.000202682 0.000121705 0.000121703 0.000200767);
    }
    Table_master
    {
        type            compressible::alphatWallFunction;
        Prt             0.85;
        value           nonuniform List<scalar> 9(0.000132319 0.000116816 0.000104185 9.38586e-05 8.53431e-05 7.82537e-05 7.23111e-05 6.73395e-05 6.32731e-05);
    }
    Table_slave
    {
        type            compressible::alphatWallFunction;
        Prt             0.85;
        value           nonuniform List<scalar> 9(0.000148992 0.000135743 0.000126114 0.000118688 0.000112337 0.000106528 0.000100926 9.50323e-05 8.81719e-05);
    }
    inlet
    {
        type            fixedValue;
        value           uniform 1.94e-05;
    }
    outlet
    {
        type            zeroGradient;
    }
}


// ************************************************************************* //
