/*--------------------------------*- C++ -*----------------------------------*\
  =========                 |
  \\      /  F ield         | OpenFOAM: The Open Source CFD Toolbox
   \\    /   O peration     | Website:  https://openfoam.org
    \\  /    A nd           | Version:  6
     \\/     M anipulation  |
\*---------------------------------------------------------------------------*/
FoamFile
{
    version     2.0;
    format      ascii;
    class       surfaceScalarField;
    location    "1000";
    object      phi;
}
// * * * * * * * * * * * * * * * * * * * * * * * * * * * * * * * * * * * * * //

dimensions      [1 0 -1 0 0 0 0];

internalField   nonuniform List<scalar> 
852
(
-0.00293389
0.00298997
-0.00397246
0.00103856
-0.00476248
0.00079002
-0.00538166
0.000619177
-0.00580142
0.000419749
-0.00599964
0.000198215
-0.00595473
-4.4909e-05
-0.00564861
-0.000306128
-0.00509171
-0.000556902
-0.00433365
-0.000758073
-0.00345328
-0.000880372
-0.0025385
-0.000914787
-0.00166344
-0.000875061
-0.000848934
-0.000814514
-0.000847533
-0.00066701
0.00066963
-0.000329365
-0.000337649
0.000281573
-0.000610941
0.000754711
-0.00047314
0.00106725
-0.000312539
0.00126046
-0.000193216
0.00136527
-0.000104809
0.00141771
-5.24504e-05
0.00144755
-2.98418e-05
0.00146589
-1.83437e-05
0.00147619
-1.03025e-05
0.00147949
-3.30293e-06
0.00147372
5.76593e-06
0.0014503
2.34244e-05
0.00138642
6.38691e-05
0.00124377
0.000142655
0.00100659
0.000237173
0.00070726
0.000299328
0.000710786
-0.00209202
0.00523301
-0.00309537
0.00204191
-0.00390074
0.00159538
-0.00450558
0.001224
-0.00491458
0.000828749
-0.00511475
0.000398374
-0.00508107
-7.85891e-05
-0.00479814
-0.000589063
-0.00428717
-0.00106788
-0.00360748
-0.00143777
-0.00284015
-0.00164772
-0.00206568
-0.00168925
-0.00135683
-0.00158392
-0.000803851
-0.0013675
-0.000600989
-0.0010504
-8.89157e-05
-0.000512129
-8.89714e-05
0.000386055
0.000291027
0.000816513
-0.000768111
0.00106719
-0.000861622
0.00127653
-0.000682485
0.00143077
-0.000466778
0.00151973
-0.00028218
0.00153322
-0.000118304
0.00153704
-5.62677e-05
0.00154155
-3.43613e-05
0.00154531
-2.2108e-05
0.00154784
-1.28299e-05
0.00154908
-4.55127e-06
0.00154815
6.70137e-06
0.00154138
3.01914e-05
0.00149977
0.000105477
0.00132357
0.000318842
0.00101832
0.000542422
0.000631267
0.000686382
0.00135116
-0.00146347
0.00692745
-0.002324
0.00290244
-0.00303081
0.00230219
-0.00354151
0.0017347
-0.00389255
0.00117979
-0.00406683
0.000572646
-0.00402026
-0.000125164
-0.00372884
-0.000880484
-0.00323467
-0.00156206
-0.0026119
-0.00206054
-0.00194192
-0.0023177
-0.00128971
-0.00234147
-0.000706931
-0.0021667
-0.000247228
-0.00182721
5.90104e-05
-0.00135664
0.000264996
-0.000718118
0.00017602
0.00149037
-0.00119154
0.00170486
-0.000982602
0.00168738
-0.000844148
0.00168996
-0.000685063
0.00171171
-0.000488529
0.00171951
-0.000289987
0.00160136
0.00154524
0.00151103
0.00148907
0.00147639
0.00147199
0.00147884
0.00150919
0.00161481
0.00133511
0.000598541
0.000993409
0.000884122
0.000555265
0.00112452
0.00192034
-0.00102183
0.00824834
-0.00170096
0.00358156
-0.00215972
0.00276094
-0.00248526
0.00206024
-0.00270884
0.00140336
-0.00280004
0.000663843
-0.00268506
-0.000240152
-0.0023474
-0.00121815
-0.00186747
-0.002042
-0.0013282
-0.00259982
-0.000797371
-0.00284853
-0.000311889
-0.00282696
0.000109754
-0.00258835
0.00046168
-0.00217914
0.000770314
-0.00166528
0.00114259
-0.0010904
0.00190156
-0.000582961
0.00245364
-0.000544974
0.00204928
-0.000787183
0.00192313
-0.000856457
0.00181451
-0.000735524
0.00172281
-0.000593367
0.00167431
-0.000440033
0.00165833
-0.000274011
0.00177002
-0.000111844
0.00184054
-7.06722e-05
0.001897
-5.66118e-05
0.00193971
-4.28689e-05
0.00195507
-1.55141e-05
0.00192267
3.22494e-05
0.00181845
0.000104061
0.00161061
0.000207685
0.00124532
0.000365138
0.00111847
0.000725389
0.000835854
0.00116674
0.000402519
0.00155786
0.00234113
-0.000716607
0.0093218
-0.00123081
0.00409576
-0.00131514
0.00284527
-0.00136476
0.00210985
-0.00138486
0.00142346
-0.0012998
0.000578778
-0.0010272
-0.000512752
-0.000623105
-0.00162225
-0.000192284
-0.00247283
0.000197646
-0.00298976
0.000518498
-0.00316939
0.000766798
-0.00307527
0.000954575
-0.00277613
0.0011102
-0.00233476
0.00126428
-0.00181937
0.00146942
-0.00129554
0.00175504
-0.000868584
0.00189747
-0.000687411
0.0017997
-0.000689417
0.00162558
-0.000682335
0.00147995
-0.0005899
0.00136198
-0.000475397
0.00128237
-0.000360423
0.00125382
-0.000245466
0.0012957
-0.000153722
0.00134268
-0.000117654
0.00139393
-0.00010787
0.00144606
-9.49961e-05
0.00148862
-5.80757e-05
0.00150265
1.82163e-05
0.00146847
0.00013824
0.00137448
0.000301681
0.00122098
0.000518636
0.00108879
0.000857576
0.000947963
0.00130757
0.000635963
0.00186986
0.000571023
0.00240607
-0.000965798
0.00153662
-0.00142996
0.000463962
-0.00138327
-0.000625829
0.0103532
-0.000978116
0.00444804
-0.000550153
0.0024173
-0.000183415
0.00174311
9.86156e-05
0.00114142
0.000482129
0.000195261
0.000975663
-0.00100629
0.00139755
-0.00204414
0.00168734
-0.00276263
0.00183869
-0.00314112
0.0018799
-0.00321061
0.00183933
-0.00303471
0.00174676
-0.00268357
0.00163831
-0.00222631
0.00154724
-0.0017283
0.00149998
-0.00124828
0.00149081
-0.000859422
0.00143639
-0.00063299
0.00129186
-0.000544893
0.00110142
-0.000491895
0.000934664
-0.000423148
0.00080855
-0.000349285
0.000728818
-0.000280693
0.000702472
-0.000219121
0.000725673
-0.000176924
0.000773954
-0.000165936
0.000836688
-0.000170604
0.000909361
-0.00016767
0.000986541
-0.000135255
0.00105597
-5.12088e-05
0.00110064
9.35637e-05
0.00111763
0.000284695
0.00111453
0.00052174
0.00113885
0.000833246
0.00123819
0.00120823
0.00142543
0.00168261
0.00186729
0.00196422
0.00212543
0.00127847
0.00173425
0.000855143
0.000407256
-0.000680923
0.0114838
-0.0005603
0.00432741
0.000574142
0.00128285
0.00136725
0.000949997
0.00204456
0.000464112
0.00274093
-0.000501113
0.00329083
-0.00155619
0.00358576
-0.00233907
0.00362834
-0.00280521
0.00346298
-0.00297578
0.00315097
-0.00289861
0.0027533
-0.00263704
0.0023233
-0.00225357
0.00190777
-0.00181079
0.00154248
-0.00136301
0.00124445
-0.000950259
0.00101234
-0.000627312
0.000811443
-0.000432097
0.000609453
-0.000342904
0.000418007
-0.000300451
0.000262492
-0.000267634
0.000152575
-0.000239369
8.89429e-05
-0.000217061
7.13293e-05
-0.000201508
9.25172e-05
-0.000198112
0.000137373
-0.000210791
0.000196606
-0.000229837
0.000269273
-0.000240337
0.000359506
-0.000225487
0.000472103
-0.000163805
0.000593821
-2.81543e-05
0.000715217
0.000163299
0.000848566
0.000388391
0.00103151
0.000650306
0.00131232
0.000927412
0.00175146
0.00124347
0.00241629
0.00129938
0.00295466
0.000740098
0.00297904
0.000830761
0.00344743
0.00258968
0.0093973
0.00329265
0.00362444
0.00369409
0.000881411
0.00437668
0.000267405
0.00518488
-0.000344093
0.00581985
-0.00113609
0.00605136
-0.00178772
0.00590464
-0.00219236
0.00545443
-0.00235502
0.00479168
-0.00231303
0.00401106
-0.002118
0.00319675
-0.00182274
0.00241085
-0.00146768
0.0017025
-0.00110244
0.00110473
-0.000765241
0.000625196
-0.000470727
0.000268951
-0.000271067
8.8758e-06
-0.000172023
-0.000190873
-0.000143156
-0.000346708
-0.000144616
-0.000463429
-0.000150914
-0.000543858
-0.00015894
-0.000592021
-0.000168898
-0.000611867
-0.000181662
-0.000610349
-0.00019963
-0.000597573
-0.000223568
-0.000579264
-0.000248146
-0.000554458
-0.000265142
-0.000514798
-0.000265146
-0.000441552
-0.00023705
-0.00030646
-0.000163246
-0.000128012
-1.51484e-05
8.0881e-05
0.000179499
0.000347065
0.000384122
0.000683031
0.000591446
0.0011308
0.000795702
0.00163079
0.000799397
0.00185026
0.00052062
0.00110756
0.00157346
0.00480265
0.00994892
0.0135651
0.0124412
0.00200531
0.0117368
0.000971763
0.011087
0.000305715
0.0102178
-0.000266897
0.00908365
-0.000653565
0.00778764
-0.000896366
0.00642328
-0.000990671
0.00506372
-0.000953484
0.00377566
-0.000829942
0.0026122
-0.000659281
0.00159513
-0.000450618
0.000748864
-0.00025617
8.14128e-05
-9.77901e-05
-0.000392688
3.37518e-06
-0.00068901
2.52543e-05
-0.000873522
1.24882e-05
-0.00100371
-1.29641e-05
-0.0011073
-4.10259e-05
-0.00119108
-6.71419e-05
-0.00125816
-9.18525e-05
-0.00131238
-0.000114684
-0.00135807
-0.000135971
-0.00140188
-0.000155821
-0.00145216
-0.000173281
-0.00151646
-0.000183845
-0.00160196
-0.000179644
-0.00171732
-0.000149792
-0.00187263
-8.17402e-05
-0.002073
3.71316e-05
-0.00230481
0.000216662
-0.00259633
0.00047102
-0.00302933
0.000817123
-0.0036928
0.00125491
-0.0046548
0.00175771
-0.00603308
0.00217767
-0.00771413
0.00220167
-0.00726087
0.0011202
-0.00218436
0.00467605
0.0035063
0.00380052
0.00184725
0.00419379
-8.75908e-05
0.00420667
-0.000279802
0.00380809
-0.000254997
0.0031819
-0.000270174
0.00243388
-0.000242643
0.00163195
-0.00015156
0.000819267
-1.72512e-05
4.54159e-05
0.000114574
-0.000601973
0.000196775
-0.00106543
0.000207288
-0.0013633
0.000200086
-0.00153522
0.00017529
-0.00164179
0.000131826
-0.00171769
8.839e-05
-0.00178076
5.01066e-05
-0.00184067
1.88832e-05
-0.00190174
-6.06951e-06
-0.00196535
-2.82441e-05
-0.0020322
-4.7829e-05
-0.0021041
-6.40733e-05
-0.00218423
-7.56894e-05
-0.00227522
-8.22862e-05
-0.00237811
-8.09569e-05
-0.00249196
-6.58005e-05
-0.00261307
-2.86793e-05
-0.00273357
3.87632e-05
-0.00284158
0.000145137
-0.00293423
0.000309312
-0.00301903
0.000555823
-0.00310116
0.000899258
-0.00317617
0.00132991
-0.00320016
0.0017817
-0.00312405
0.00210156
-0.00277325
0.00185088
-0.00151046
-0.000142596
-0.0036233
-0.000526133
0.00409731
0.000312923
0.00100818
-6.05822e-05
0.000285901
-0.000427712
8.73248e-05
-0.000751398
6.86922e-05
-0.00110814
8.65737e-05
-0.00147479
0.000124012
-0.0017988
0.000172456
-0.00203326
0.000217216
-0.0021685
0.000249809
-0.00223193
0.000260211
-0.00226149
0.000236852
-0.00226382
0.000202416
-0.00225487
0.000166333
-0.00225399
0.00013095
-0.00226623
0.000100636
-0.00229168
7.55547e-05
-0.00232794
5.51435e-05
-0.00237287
3.88574e-05
-0.00242724
2.61328e-05
-0.00248971
1.46403e-05
-0.00255781
4.02614e-06
-0.00262848
-5.02207e-06
-0.00269907
-1.16894e-05
-0.00276556
-1.44678e-05
-0.00282096
-1.03969e-05
-0.00285455
4.90711e-06
-0.0028572
4.14158e-05
-0.0028189
0.00010684
-0.00271837
0.000208777
-0.00252485
0.000362304
-0.00221151
0.000585916
-0.00175811
0.000876518
-0.0011357
0.00115929
-0.000174758
0.00114061
0.00113365
0.000542472
0.0015908
-0.000599739
-0.0019542
-0.00719568
-0.0100924
-0.0059523
-0.00492433
-0.00462743
-0.00453339
-0.00446065
-0.00437203
-0.00424761
-0.00407615
-0.0038612
-0.00361484
-0.00335924
-0.00312808
-0.00293229
-0.00277333
-0.00265033
-0.00255809
-0.00249127
-0.00244513
-0.00241549
-0.00239872
-0.00239355
-0.00239906
-0.0024136
-0.00243476
-0.00245859
-0.0024782
-0.00248229
-0.00244963
-0.00235126
-0.00215066
-0.00179623
-0.00121789
-0.000348672
0.000803556
0.00193709
0.00247224
0.00186477
)
;

boundaryField
{
    floor
    {
        type            calculated;
        value           nonuniform List<scalar> 
29
(
0
0
0
0
0
0
0
0
0
0
0
0
0
0
0
0
0
0
0
0
-3.52827e-06
-9.1098e-06
-1.39164e-05
-1.82756e-05
-1.40498e-06
-2.62321e-06
-7.45535e-06
-7.81087e-06
-7.10668e-06
)
;
    }
    ceiling
    {
        type            calculated;
        value           nonuniform List<scalar> 
43
(
-4.53613e-05
-4.40477e-05
-4.27398e-05
-1.97896e-05
-1.09955e-05
-6.70437e-06
-4.0516e-06
-2.04079e-06
-4.00885e-07
1.00092e-06
2.2617e-06
3.45082e-06
4.61195e-06
5.69656e-06
6.62704e-06
7.37239e-06
7.95022e-06
8.39553e-06
8.74032e-06
9.00771e-06
9.21349e-06
9.36754e-06
9.47405e-06
9.52906e-06
9.52653e-06
9.47027e-06
9.36378e-06
9.20774e-06
9.00281e-06
8.75186e-06
8.47337e-06
8.17817e-06
7.87497e-06
7.57508e-06
7.29893e-06
7.05953e-06
7.07728e-06
7.32156e-06
7.73713e-06
8.99605e-06
1.13234e-05
8.2453e-06
-6.48991e-05
)
;
    }
    sWall
    {
        type            calculated;
        value           uniform -0.00027529;
    }
    nWall
    {
        type            calculated;
        value           nonuniform List<scalar> 6(-4.69043e-05 -5.62721e-05 -6.11339e-05 -7.15187e-05 -7.83074e-05 -9.84279e-05);
    }
    sideWalls
    {
        type            empty;
        value           nonuniform 0();
    }
    glass1
    {
        type            calculated;
        value           nonuniform List<scalar> 9(-5.60832e-05 -0.000151026 -0.000230985 -0.000299063 -0.000356858 -0.000405594 -0.000449704 -0.000503152 -0.000562945);
    }
    glass2
    {
        type            calculated;
        value           nonuniform List<scalar> 2(-0.000247659 -0.000273856);
    }
    sun
    {
        type            calculated;
        value           uniform 0;
    }
    heatsource1
    {
        type            calculated;
        value           nonuniform List<scalar> 3(2.03901e-07 2.03865e-07 2.03882e-07);
    }
    heatsource2
    {
        type            calculated;
        value           nonuniform List<scalar> 4(5.10822e-08 5.12047e-08 0 0);
    }
    Table_master
    {
        type            calculated;
        value           nonuniform List<scalar> 9(-1.52928e-07 -1.53009e-07 -1.53037e-07 -1.53056e-07 -1.5307e-07 -1.53079e-07 -1.53082e-07 -1.53075e-07 -1.53042e-07);
    }
    Table_slave
    {
        type            calculated;
        value           nonuniform List<scalar> 9(1.52807e-07 1.52833e-07 1.52817e-07 1.52804e-07 1.52801e-07 1.52805e-07 1.52821e-07 1.52864e-07 1.52943e-07);
    }
    inlet
    {
        type            calculated;
        value           uniform -0.00617705;
    }
    outlet
    {
        type            calculated;
        value           nonuniform List<scalar> 2(0.00751633 0.00294073);
    }
}


// ************************************************************************* //
