/*--------------------------------*- C++ -*----------------------------------*\
  =========                 |
  \\      /  F ield         | OpenFOAM: The Open Source CFD Toolbox
   \\    /   O peration     | Website:  https://openfoam.org
    \\  /    A nd           | Version:  6
     \\/     M anipulation  |
\*---------------------------------------------------------------------------*/
FoamFile
{
    version     2.0;
    format      ascii;
    class       volScalarField;
    location    "800";
    object      nut;
}
// * * * * * * * * * * * * * * * * * * * * * * * * * * * * * * * * * * * * * //

dimensions      [0 2 -1 0 0 0 0];

internalField   nonuniform List<scalar> 
459
(
0.00066326
0.000685477
0.00062893
0.000649179
0.0006722
0.000694383
0.000715818
0.000737114
0.000759238
0.00078074
0.000799374
0.00081436
0.000825115
0.000830996
0.000828245
0.000253483
0.000244531
0.00022722
0.000213147
0.000206145
0.000203645
0.000206762
0.000219815
0.000234111
0.000246819
0.000255708
0.000257666
0.000254622
0.000256889
0.000266188
0.000283075
0.000286292
0.000284734
0.00023239
0.0011217
0.00210596
0.00163962
0.00222024
0.0024534
0.00265523
0.0028471
0.00301506
0.00313857
0.00322026
0.00324816
0.00319068
0.00299347
0.00256244
0.00179304
0.000900296
0.000553155
0.000338725
0.000999186
0.000936867
0.000798104
0.000656275
0.00057146
0.000550627
0.000635354
0.000731803
0.000812144
0.000868815
0.000897016
0.000913153
0.000950497
0.00105194
0.00128194
0.0012234
0.00117099
0.000384375
0.00154528
0.00359575
0.00179025
0.00306526
0.00371353
0.00399822
0.00421254
0.00438295
0.00450519
0.0045846
0.00461671
0.00456849
0.00437738
0.00393857
0.00313088
0.00199985
0.0009403
0.000547646
0.0014526
0.00120858
0.000883993
0.0006408
0.000455994
0.000296735
0.000315545
0.000337973
0.000361817
0.00038856
0.000420615
0.000461282
0.000516539
0.000597192
0.00177364
0.00187475
0.00195911
0.000553761
0.00195999
0.00556516
0.00233255
0.00303347
0.00420409
0.00461521
0.00484616
0.00501953
0.00515334
0.00526183
0.00537435
0.00547009
0.00549349
0.00533739
0.00482822
0.00376558
0.00216174
0.000881777
0.00204706
0.00242642
0.00199349
0.00154413
0.00117184
0.000846985
0.00058947
0.000583748
0.0005813
0.000581687
0.000585959
0.000595594
0.000612973
0.00064259
0.000694011
0.00204559
0.00207059
0.00192333
0.00070934
0.00235511
0.00777803
0.00381711
0.00302878
0.00401998
0.0046014
0.00492058
0.00513102
0.00527244
0.00540356
0.00560086
0.00586531
0.00617257
0.00646207
0.00663509
0.00658381
0.00625112
0.00567561
0.0052759
0.00477498
0.00437435
0.00409363
0.00386803
0.00365591
0.0034654
0.00334204
0.00322808
0.00311551
0.00300162
0.00288633
0.00277373
0.00267297
0.00259284
0.00253936
0.00230076
0.00203938
0.00176432
0.000824915
0.000752991
0.000639535
0.0027295
0.00984178
0.006472
0.00433135
0.00396667
0.0042231
0.00460855
0.00492146
0.00507611
0.0052076
0.00541456
0.00572708
0.00616007
0.006681
0.00718914
0.00753277
0.00759537
0.00733464
0.00687969
0.00639056
0.00598491
0.00566748
0.00541524
0.00520558
0.00501931
0.00484829
0.00468738
0.00453151
0.00437175
0.00419479
0.0039847
0.00372921
0.00342583
0.00307896
0.00270348
0.00235218
0.00204588
0.0017167
0.00136264
0.000653128
0.00304409
0.0111301
0.00939613
0.00699579
0.00552974
0.00482419
0.0047418
0.00491885
0.00502509
0.00509643
0.00520591
0.0054073
0.00575544
0.00627832
0.00692761
0.00748611
0.00779702
0.00779842
0.00755494
0.00720223
0.00684814
0.0065321
0.006261
0.00602788
0.00582047
0.00563207
0.00546262
0.0053118
0.00517542
0.00504248
0.00489082
0.00468566
0.00438666
0.0039693
0.00345206
0.00290556
0.00242164
0.00204562
0.00169578
0.0010641
0.00306923
0.00993571
0.00903162
0.00866262
0.00752392
0.0064918
0.00588197
0.00557092
0.0053838
0.00525279
0.00519226
0.00523241
0.00541056
0.00575877
0.00626699
0.0068276
0.0072803
0.00750774
0.00750149
0.00733759
0.00710183
0.00684968
0.00660972
0.00639108
0.00619271
0.00601356
0.00585531
0.00572088
0.00561261
0.00553077
0.00547069
0.00541795
0.0053375
0.00516182
0.00480518
0.00422512
0.00351941
0.00296572
0.0026354
0.00137677
0.00294259
0.00338989
0.00727565
0.00799857
0.00760073
0.00695242
0.00635215
0.00588213
0.0055359
0.00529202
0.00516232
0.00515427
0.00526712
0.00549016
0.0058042
0.00617276
0.00652995
0.00679721
0.00692933
0.00693428
0.00684856
0.00671407
0.00656301
0.00641266
0.00627043
0.00614057
0.00602583
0.0059277
0.00584689
0.00578516
0.00574313
0.00572164
0.00571882
0.00572339
0.00571082
0.00564837
0.00548101
0.00508043
0.00462945
0.00148806
0.0161232
0.0151826
0.00970168
0.00787491
0.00689887
0.00627413
0.00586384
0.00561492
0.00550107
0.0055025
0.00558444
0.00570645
0.00584783
0.00600416
0.00617018
0.00632843
0.00645477
0.00653303
0.00655925
0.00654828
0.00651614
0.0064722
0.00642333
0.00637553
0.00633189
0.00629324
0.00625788
0.00622267
0.00618648
0.00614985
0.00611269
0.00607136
0.00601575
0.00592591
0.00575898
0.00542084
0.00460111
0.00159124
0.00563852
0.0110882
0.00873615
0.00736176
0.00656937
0.00610394
0.005864
0.0057984
0.00586382
0.00600962
0.00618386
0.00635094
0.00648962
0.00659353
0.00666574
0.0067129
0.00674224
0.00676025
0.00677174
0.00678048
0.0067886
0.00679697
0.00680583
0.00681507
0.00682428
0.00683243
0.00683468
0.00681561
0.00677646
0.0067186
0.00664053
0.00653641
0.00639488
0.00619649
0.00590826
0.00546637
0.00484159
0.00180662
0.00166912
0.00229841
0.00396306
0.00327703
0.00260373
0.00240044
0.00216936
0.00197315
0.00182275
0.00171393
0.00164038
0.00159625
0.00157525
0.00156961
0.00157258
0.001579
0.00158549
0.00159027
0.0015926
0.00159257
0.0015908
0.00158792
0.0015846
0.00158138
0.0015785
0.00157596
0.00157365
0.00157135
0.00156886
0.00156668
0.00156323
0.00155773
0.00154973
0.00153868
0.00152366
0.00150284
0.00147264
0.00142686
0.00138703
0.00131013
)
;

boundaryField
{
    floor
    {
        type            nutkWallFunction;
        Cmu             0.09;
        kappa           0.41;
        E               9.8;
        value           nonuniform List<scalar> 
29
(
0.000100306
2.69236e-05
2.56722e-05
2.32325e-05
2.12299e-05
2.02266e-05
1.9867e-05
2.03141e-05
2.21789e-05
2.42042e-05
2.59905e-05
2.72326e-05
2.75053e-05
2.7081e-05
2.73971e-05
2.86897e-05
3.10217e-05
3.14628e-05
3.12454e-05
2.39575e-05
2.39574e-05
4.46553e-05
6.65117e-05
8.58653e-05
0.000100306
2.69235e-05
3.85841e-05
6.57446e-05
0.000106726
)
;
    }
    ceiling
    {
        type            nutkWallFunction;
        Cmu             0.09;
        kappa           0.41;
        E               9.8;
        value           nonuniform List<scalar> 
43
(
0.000197213
0.000265975
0.000439447
0.000369072
0.000298523
0.000276869
0.00025201
0.00023068
0.000214175
0.000202142
0.000193963
0.000189036
0.000186686
0.000186054
0.000186387
0.000187105
0.000187832
0.000188365
0.000188626
0.000188622
0.000188424
0.000188102
0.000187729
0.000187368
0.000187046
0.000186761
0.000186502
0.000186243
0.000185963
0.000185718
0.000185331
0.000184714
0.000183817
0.000182576
0.000180888
0.000178547
0.000175144
0.000169971
0.000165455
0.000156698
0.000334323
0.000380845
0.000606623
)
;
    }
    sWall
    {
        type            nutkWallFunction;
        Cmu             0.09;
        kappa           0.41;
        E               9.8;
        value           uniform 0.000197256;
    }
    nWall
    {
        type            nutkWallFunction;
        Cmu             0.09;
        kappa           0.41;
        E               9.8;
        value           nonuniform List<scalar> 6(7.72499e-05 7.89337e-05 0.00012827 0.000188475 0.000212388 0.000156708);
    }
    sideWalls
    {
        type            empty;
    }
    glass1
    {
        type            nutkWallFunction;
        Cmu             0.09;
        kappa           0.41;
        E               9.8;
        value           nonuniform List<scalar> 9(8.01448e-05 0.000135083 0.000183501 0.000229478 0.000272306 0.000312185 0.000345252 0.000347888 0.000334644);
    }
    glass2
    {
        type            nutkWallFunction;
        Cmu             0.09;
        kappa           0.41;
        E               9.8;
        value           nonuniform List<scalar> 2(0.000164318 0.00017691);
    }
    sun
    {
        type            nutkWallFunction;
        Cmu             0.09;
        kappa           0.41;
        E               9.8;
        value           nonuniform List<scalar> 
14
(
8.01882e-05
8.293e-05
7.59327e-05
7.84469e-05
8.12937e-05
8.40259e-05
8.66562e-05
8.92601e-05
9.19557e-05
9.45669e-05
9.68228e-05
9.86325e-05
9.99288e-05
0.000100637
)
;
    }
    heatsource1
    {
        type            nutkWallFunction;
        Cmu             0.09;
        kappa           0.41;
        E               9.8;
        value           nonuniform List<scalar> 3(9.99082e-05 9.11971e-05 7.72515e-05);
    }
    heatsource2
    {
        type            nutkWallFunction;
        Cmu             0.09;
        kappa           0.41;
        E               9.8;
        value           nonuniform List<scalar> 4(0.000108938 6.64352e-05 6.64352e-05 0.000113695);
    }
    Table_master
    {
        type            nutkWallFunction;
        Cmu             0.09;
        kappa           0.41;
        E               9.8;
        value           nonuniform List<scalar> 9(3.28853e-05 3.54458e-05 3.84732e-05 4.16633e-05 4.52097e-05 4.94199e-05 5.47041e-05 6.17927e-05 7.19757e-05);
    }
    Table_slave
    {
        type            nutkWallFunction;
        Cmu             0.09;
        kappa           0.41;
        E               9.8;
        value           nonuniform List<scalar> 9(7.10046e-05 7.02869e-05 6.99797e-05 7.00286e-05 7.05651e-05 7.17733e-05 7.39462e-05 7.7632e-05 8.39832e-05);
    }
    inlet
    {
        type            calculated;
        value           uniform 3.3541e-05;
    }
    outlet
    {
        type            calculated;
        value           nonuniform List<scalar> 2(0.00166912 0.00229841);
    }
}


// ************************************************************************* //
