// -*- C++ -*-
// File generated by PyFoam - sorry for the ugliness

FoamFile
{
 version 2.0;
 format ascii;
 class volScalarField;
 location "500";
 object T;
}

dimensions [ 0 0 0 1 0 0 0 ];

internalField nonuniform List<scalar> 459
(
  306.399
  306.18
  306.177
  306.182
  306.186
  306.19
  306.192
  306.194
  306.195
  306.194
  306.191
  306.184
  306.175
  306.162
  306.145
  305.177
  305.131
  305.092
  305.066
  305.07
  305.084
  305.101
  305.113
  305.121
  305.128
  305.134
  305.135
  305.136
  305.145
  305.17
  305.219
  305.264
  305.327
  305.4
  306.577
  306.258
  306.242
  306.253
  306.264
  306.273
  306.28
  306.284
  306.286
  306.284
  306.277
  306.262
  306.239
  306.206
  306.163
  306.12
  306.005
  305.299
  305.309
  305.303
  305.312
  305.321
  305.327
  305.327
  305.33
  305.336
  305.349
  305.37
  305.404
  305.44
  305.483
  305.538
  305.599
  305.593
  305.586
  305.675
  306.74
  306.332
  306.297
  306.311
  306.33
  306.346
  306.361
  306.371
  306.378
  306.379
  306.372
  306.353
  306.321
  306.273
  306.208
  306.132
  306.066
  305.597
  305.594
  305.62
  305.643
  305.65
  305.626
  305.547
  305.578
  305.614
  305.652
  305.692
  305.735
  305.786
  305.848
  305.925
  306
  305.994
  305.979
  305.96
  306.888
  306.414
  306.353
  306.364
  306.389
  306.415
  306.438
  306.459
  306.474
  306.482
  306.479
  306.462
  306.428
  306.374
  306.297
  306.196
  306.073
  305.957
  305.882
  305.955
  306.02
  306.073
  306.108
  306.13
  306.149
  306.151
  306.154
  306.157
  306.161
  306.166
  306.171
  306.175
  306.178
  306.173
  306.181
  306.187
  306.192
  307.023
  306.509
  306.425
  306.421
  306.446
  306.477
  306.509
  306.54
  306.566
  306.583
  306.588
  306.578
  306.551
  306.506
  306.444
  306.371
  306.294
  306.227
  306.181
  306.174
  306.185
  306.197
  306.204
  306.205
  306.205
  306.203
  306.203
  306.204
  306.207
  306.211
  306.218
  306.226
  306.235
  306.245
  306.257
  306.27
  306.281
  306.293
  306.284
  306.272
  307.143
  306.622
  306.54
  306.514
  306.52
  306.545
  306.578
  306.613
  306.647
  306.671
  306.684
  306.682
  306.664
  306.629
  306.577
  306.514
  306.449
  306.389
  306.344
  306.316
  306.3
  306.289
  306.281
  306.272
  306.264
  306.258
  306.252
  306.249
  306.247
  306.248
  306.251
  306.257
  306.265
  306.276
  306.288
  306.299
  306.308
  306.313
  306.306
  306.27
  307.253
  306.779
  306.729
  306.696
  306.668
  306.662
  306.675
  306.698
  306.726
  306.749
  306.763
  306.766
  306.757
  306.733
  306.692
  306.64
  306.584
  306.528
  306.479
  306.441
  306.411
  306.388
  306.369
  306.353
  306.338
  306.326
  306.315
  306.306
  306.298
  306.292
  306.289
  306.288
  306.29
  306.296
  306.304
  306.314
  306.325
  306.334
  306.341
  306.342
  307.415
  307.071
  307.044
  306.986
  306.914
  306.866
  306.842
  306.834
  306.831
  306.834
  306.836
  306.833
  306.824
  306.807
  306.78
  306.743
  306.698
  306.65
  306.603
  306.561
  306.525
  306.495
  306.469
  306.446
  306.426
  306.408
  306.392
  306.377
  306.363
  306.351
  306.34
  306.331
  306.324
  306.321
  306.321
  306.325
  306.333
  306.344
  306.356
  306.374
  307.637
  307.49
  307.302
  307.208
  307.119
  307.052
  307.004
  306.97
  306.945
  306.924
  306.906
  306.89
  306.874
  306.856
  306.835
  306.809
  306.778
  306.741
  306.703
  306.666
  306.631
  306.599
  306.57
  306.543
  306.52
  306.498
  306.477
  306.458
  306.44
  306.422
  306.406
  306.39
  306.376
  306.365
  306.356
  306.349
  306.346
  306.344
  306.347
  306.363
  306.121
  306.869
  306.969
  306.977
  306.968
  306.955
  306.941
  306.927
  306.914
  306.9
  306.886
  306.872
  306.856
  306.838
  306.817
  306.793
  306.766
  306.738
  306.709
  306.681
  306.653
  306.627
  306.602
  306.579
  306.556
  306.534
  306.513
  306.492
  306.471
  306.452
  306.433
  306.416
  306.401
  306.387
  306.375
  306.365
  306.355
  306.351
  306.257
  306.66
  306.783
  306.85
  306.881
  306.891
  306.892
  306.889
  306.883
  306.876
  306.868
  306.859
  306.849
  306.837
  306.824
  306.808
  306.79
  306.77
  306.749
  306.726
  306.703
  306.68
  306.657
  306.634
  306.611
  306.588
  306.566
  306.543
  306.521
  306.499
  306.478
  306.457
  306.438
  306.419
  306.4
  306.381
  306.361
  306.351
  308.21
  307.725
  306.415
  306.51
  306.644
  306.758
  306.802
  306.82
  306.828
  306.83
  306.83
  306.828
  306.824
  306.819
  306.814
  306.807
  306.799
  306.789
  306.778
  306.765
  306.751
  306.736
  306.719
  306.7
  306.681
  306.661
  306.641
  306.62
  306.598
  306.576
  306.553
  306.53
  306.506
  306.482
  306.458
  306.433
  306.407
  306.377
  306.336
  306.269
)
;

boundaryField
{
  floor
  {
    type wallHeatTransfer;
    Tinf uniform 305.2;
    alphaWall uniform 0.24;
    value nonuniform List<scalar> 29
(
  306.022
  305.184
  305.151
  305.124
  305.107
  305.11
  305.12
  305.131
  305.139
  305.143
  305.148
  305.152
  305.153
  305.154
  305.16
  305.178
  305.214
  305.248
  305.295
  305.344
  305.344
  305.576
  305.832
  306.047
  306.022
  305.184
  305.275
  305.528
  305.863
)
;
  }
  ceiling
  {
    type wallHeatTransfer;
    Tinf uniform 303.2;
    alphaWall uniform 0.24;
    value nonuniform List<scalar> 43
(
  307.827
  307.457
  306.296
  306.366
  306.46
  306.555
  306.579
  306.579
  306.571
  306.561
  306.551
  306.544
  306.538
  306.533
  306.528
  306.522
  306.515
  306.507
  306.497
  306.486
  306.472
  306.458
  306.442
  306.425
  306.407
  306.388
  306.369
  306.349
  306.329
  306.308
  306.286
  306.264
  306.242
  306.218
  306.194
  306.168
  306.14
  306.107
  306.063
  305.988
  307.424
  307.306
  306.173
)
;
  }
  sWall
  {
    type wallHeatTransfer;
    Tinf uniform 315.2;
    alphaWall uniform 0.36;
    value uniform 308.985;
  }
  nWall
  {
    type wallHeatTransfer;
    Tinf uniform 307.2;
    alphaWall uniform 0.36;
    value nonuniform List<scalar> 6
(
  306.475
  306.469
  306.47
  306.448
  306.438
  306.391
)
;
  }
  sideWalls
  {
    type empty;
  }
  glass1
  {
    type wallHeatTransfer;
    Tinf uniform 315.2;
    alphaWall uniform 4.3;
    value nonuniform List<scalar> 9
(
  313.139
  312.417
  311.939
  311.583
  311.319
  311.117
  310.985
  311.059
  311.249
)
;
  }
  glass2
  {
    type wallHeatTransfer;
    Tinf uniform 307.2;
    alphaWall uniform 4.3;
    value nonuniform List<scalar> 2
(
  306.9
  306.883
)
;
  }
  sun
  {
    type wallHeatTransfer;
    Tinf uniform 305.2;
    alphaWall uniform 0.24;
    value nonuniform List<scalar> 14
(
  306.217
  306.034
  306.022
  306.03
  306.038
  306.044
  306.049
  306.053
  306.057
  306.059
  306.058
  306.055
  306.048
  306.037
)
;
  }
  heatsource1
  {
    type fixedGradient;
    gradient uniform 0;
  }
  heatsource2
  {
    type fixedGradient;
    gradient uniform 0;
  }
  Table_master
  {
    type zeroGradient;
  }
  Table_slave
  {
    type zeroGradient;
  }
  inlet
  {
    type fixedValue;
    value uniform 299.15;
  }
  outlet
  {
    type zeroGradient;
  }
} 	// ************************************************************************* //

