/*--------------------------------*- C++ -*----------------------------------*\
  =========                 |
  \\      /  F ield         | OpenFOAM: The Open Source CFD Toolbox
   \\    /   O peration     | Website:  https://openfoam.org
    \\  /    A nd           | Version:  6
     \\/     M anipulation  |
\*---------------------------------------------------------------------------*/
FoamFile
{
    version     2.0;
    format      ascii;
    class       volScalarField;
    location    "600";
    object      epsilon;
}
// * * * * * * * * * * * * * * * * * * * * * * * * * * * * * * * * * * * * * //

dimensions      [0 2 -3 0 0 0 0];

internalField   nonuniform List<scalar> 
459
(
0.000114623
0.000127319
0.000102053
0.000113597
0.000127112
0.000140972
0.000155141
0.000169929
0.000185959
0.000203242
0.000219033
0.000232173
0.000241709
0.000246862
0.000244283
7.43458e-06
1.10013e-05
8.60343e-06
5.01859e-06
3.54771e-06
2.97446e-06
2.98613e-06
3.77803e-06
4.83724e-06
5.99617e-06
6.95611e-06
7.21361e-06
6.75484e-06
6.56671e-06
6.75406e-06
7.47896e-06
6.97246e-06
5.73647e-06
4.50386e-06
0.000532126
0.00115262
0.000127856
8.54254e-05
8.79731e-05
9.36268e-05
0.000100191
0.000108148
0.000118358
0.000131404
0.000146241
0.000162631
0.000180234
0.000198726
0.000224017
0.000310295
7.65545e-05
2.49861e-05
3.60928e-05
1.92951e-05
1.05165e-05
7.86897e-06
6.84422e-06
6.26708e-06
8.26912e-06
1.11396e-05
1.40164e-05
1.62164e-05
1.7654e-05
1.88306e-05
1.99247e-05
2.13491e-05
2.04699e-05
1.7771e-05
1.64679e-05
1.53902e-05
0.00135257
0.00390904
0.000316596
9.83527e-05
8.90598e-05
9.49281e-05
0.000103553
0.000114203
0.000127114
0.000142524
0.000159019
0.000175588
0.000191788
0.000207723
0.000225729
0.00025943
0.000357464
8.68482e-05
5.64021e-05
3.34584e-05
2.6759e-05
2.33998e-05
1.99466e-05
8.95072e-06
1.08475e-05
1.36234e-05
1.69401e-05
2.11143e-05
2.68869e-05
3.57245e-05
5.132e-05
8.40426e-05
6.09278e-05
5.93928e-05
5.53322e-05
4.87883e-05
0.00270475
0.00876828
0.000810464
0.000138994
9.88525e-05
0.000104173
0.00011617
0.000131252
0.000149082
0.000169419
0.000189574
0.000207377
0.000222887
0.000236753
0.000248457
0.000257765
0.000272331
0.000320679
8.93034e-05
5.7938e-05
4.76929e-05
4.79208e-05
5.38003e-05
6.55854e-05
8.91409e-05
8.73852e-05
8.74522e-05
8.91756e-05
9.31862e-05
0.000100536
0.000113093
0.00013483
0.000176956
0.000101069
0.000113346
0.000131713
0.000148369
0.00462868
0.015188
0.00190863
0.000252548
0.000124665
0.000121992
0.000137059
0.000158833
0.000186008
0.000217651
0.000244825
0.000264927
0.000280858
0.000295622
0.000307067
0.000306413
0.000281977
0.000221367
0.000139353
9.52369e-05
7.59518e-05
6.86107e-05
6.61619e-05
6.57623e-05
6.56474e-05
6.4672e-05
6.4925e-05
6.68587e-05
7.10291e-05
7.82607e-05
8.96659e-05
0.000106456
0.000128855
0.000151792
0.000186178
0.000231307
0.00029861
0.000404537
0.000253783
0.000161663
0.00716108
0.0209984
0.00413237
0.000698304
0.000249503
0.000189689
0.000196184
0.000222144
0.000262234
0.000311411
0.000340507
0.000352862
0.000359106
0.000368248
0.000380757
0.000384945
0.000362097
0.000303068
0.000230065
0.000173048
0.000137241
0.0001168
0.000105559
9.91721e-05
9.4838e-05
9.16938e-05
9.01973e-05
9.07329e-05
9.39867e-05
0.000101182
0.000114181
0.000135357
0.000166848
0.000209202
0.000262266
0.000323683
0.000382853
0.000401915
0.000258241
0.000185127
0.010076
0.0236118
0.00847143
0.00275152
0.00107575
0.000599676
0.000478803
0.00045424
0.000490134
0.000524966
0.000521361
0.000496269
0.000468044
0.000450443
0.000448668
0.000451349
0.00043664
0.000391022
0.000326375
0.000264901
0.000218118
0.000186439
0.000166379
0.000153864
0.000145602
0.000139949
0.000136515
0.000135398
0.000137308
0.000143904
0.000158114
0.000183955
0.000224915
0.000281563
0.000351079
0.000427587
0.000496834
0.00053049
0.000492318
0.000204864
0.0105865
0.0274083
0.015087
0.0101103
0.00557588
0.00307479
0.00194676
0.00141893
0.00116079
0.000993093
0.000851209
0.000729728
0.000633011
0.000564811
0.000525333
0.000507154
0.000492674
0.000462804
0.000414713
0.000360846
0.000313139
0.000276451
0.00025081
0.000233831
0.000222864
0.000215691
0.000211174
0.000208904
0.000209306
0.000214202
0.000227788
0.000257433
0.000311095
0.000393094
0.000500171
0.000621687
0.00075564
0.000916057
0.00112291
0.00100493
0.00947398
0.0151353
0.0238898
0.0186744
0.0122767
0.00781995
0.00507927
0.00343796
0.00241895
0.00175776
0.00132532
0.00103666
0.000843997
0.000718754
0.000641961
0.000598275
0.000571938
0.000546804
0.000514345
0.000476322
0.000438876
0.000407005
0.000382979
0.000366593
0.000356276
0.000350103
0.00034644
0.000344137
0.000342762
0.000343153
0.000348728
0.000366612
0.000400592
0.000459635
0.000553933
0.000693001
0.000851438
0.00098022
0.00177833
0.00133401
0.0555716
0.0698658
0.0254132
0.0128004
0.00738672
0.00464422
0.00311807
0.0022028
0.00163218
0.00127837
0.00106425
0.000941136
0.000875592
0.000843285
0.000826345
0.000809192
0.000786063
0.000758548
0.00073122
0.000708216
0.000691872
0.000682238
0.000678302
0.000678026
0.000679241
0.000680037
0.000679065
0.000676043
0.000673839
0.000672835
0.000677724
0.000693337
0.000722186
0.00076598
0.000803263
0.000819837
0.000968617
0.00141492
0.0406319
0.0377778
0.0173955
0.00979536
0.00614706
0.0041697
0.00304206
0.00239429
0.00203445
0.00185004
0.00178137
0.00178583
0.00182729
0.00187489
0.00190563
0.00189714
0.00185484
0.00179607
0.00173778
0.00169065
0.00165868
0.00164144
0.00163536
0.0016358
0.00163788
0.00163685
0.0016284
0.00160915
0.00157542
0.00152829
0.00147711
0.00143363
0.00139886
0.00136953
0.00133246
0.001249
0.00146105
0.00166868
0.00183367
0.0045334
0.0164842
0.0102227
0.00766728
0.00599126
0.00430464
0.00312486
0.00233366
0.00180086
0.00145191
0.00123964
0.00111585
0.00105402
0.00103582
0.00104575
0.00106993
0.00110342
0.00113046
0.00114508
0.001148
0.00114291
0.0011338
0.00112361
0.00111413
0.00110597
0.00109902
0.00109268
0.0010861
0.00107831
0.0010685
0.0010547
0.00103386
0.00100611
0.000976346
0.000936239
0.000873953
0.000773495
0.000703161
0.000736646
)
;

boundaryField
{
    floor
    {
        Cmu             0.09;
        kappa           0.41;
        E               9.8;
        type            epsilonWallFunction;
        value           nonuniform List<scalar> 
29
(
0.000244283
7.43458e-06
1.10013e-05
8.60343e-06
5.01859e-06
3.54771e-06
2.97446e-06
2.98613e-06
3.77803e-06
4.83724e-06
5.99617e-06
6.95611e-06
7.21361e-06
6.75484e-06
6.56671e-06
6.75406e-06
7.47896e-06
6.97246e-06
5.73647e-06
4.50386e-06
4.50386e-06
1.53902e-05
4.87883e-05
0.000148369
0.000244283
7.43458e-06
2.49861e-05
8.68482e-05
0.000320679
)
;
    }
    ceiling
    {
        Cmu             0.09;
        kappa           0.41;
        E               9.8;
        type            epsilonWallFunction;
        value           nonuniform List<scalar> 
43
(
0.00183367
0.0045334
0.0164842
0.0102227
0.00766728
0.00599126
0.00430464
0.00312486
0.00233366
0.00180086
0.00145191
0.00123964
0.00111585
0.00105402
0.00103582
0.00104575
0.00106993
0.00110342
0.00113046
0.00114508
0.001148
0.00114291
0.0011338
0.00112361
0.00111413
0.00110597
0.00109902
0.00109268
0.0010861
0.00107831
0.0010685
0.0010547
0.00103386
0.00100611
0.000976346
0.000936239
0.000873953
0.000773495
0.000703161
0.000736646
0.00947398
0.0151353
0.0406319
)
;
    }
    sWall
    {
        Cmu             0.09;
        kappa           0.41;
        E               9.8;
        type            epsilonWallFunction;
        value           uniform 0.00183367;
    }
    nWall
    {
        Cmu             0.09;
        kappa           0.41;
        E               9.8;
        type            epsilonWallFunction;
        value           nonuniform List<scalar> 6(0.000161663 0.000185127 0.000204864 0.00141492 0.00166868 0.000736646);
    }
    sideWalls
    {
        type            empty;
    }
    glass1
    {
        Cmu             0.09;
        kappa           0.41;
        E               9.8;
        type            epsilonWallFunction;
        value           nonuniform List<scalar> 9(0.000114623 0.000532126 0.00135257 0.00270475 0.00462868 0.00716108 0.010076 0.0105865 0.00947398);
    }
    glass2
    {
        Cmu             0.09;
        kappa           0.41;
        E               9.8;
        type            epsilonWallFunction;
        value           nonuniform List<scalar> 2(0.00100493 0.00133401);
    }
    sun
    {
        Cmu             0.09;
        kappa           0.41;
        E               9.8;
        type            epsilonWallFunction;
        value           nonuniform List<scalar> 
14
(
0.000114623
0.000127319
0.000102053
0.000113597
0.000127112
0.000140972
0.000155141
0.000169929
0.000185959
0.000203242
0.000219033
0.000232173
0.000241709
0.000246862
)
;
    }
    heatsource1
    {
        Cmu             0.09;
        kappa           0.41;
        E               9.8;
        type            epsilonWallFunction;
        value           nonuniform List<scalar> 3(0.000404537 0.000253783 0.000161663);
    }
    heatsource2
    {
        Cmu             0.09;
        kappa           0.41;
        E               9.8;
        type            epsilonWallFunction;
        value           nonuniform List<scalar> 4(0.000310295 7.65545e-05 7.65545e-05 0.000357464);
    }
    Table_master
    {
        Cmu             0.09;
        kappa           0.41;
        E               9.8;
        type            epsilonWallFunction;
        value           nonuniform List<scalar> 9(8.95072e-06 1.08475e-05 1.36234e-05 1.69401e-05 2.11143e-05 2.68869e-05 3.57245e-05 5.132e-05 8.40426e-05);
    }
    Table_slave
    {
        Cmu             0.09;
        kappa           0.41;
        E               9.8;
        type            epsilonWallFunction;
        value           nonuniform List<scalar> 9(8.91409e-05 8.73852e-05 8.74522e-05 8.91756e-05 9.31862e-05 0.000100536 0.000113093 0.00013483 0.000176956);
    }
    inlet
    {
        type            turbulentMixingLengthDissipationRateInlet;
        mixingLength    0.01;
        phi             phi;
        k               k;
        value           uniform 3.77337e-06;
    }
    outlet
    {
        type            zeroGradient;
    }
}


// ************************************************************************* //
