/*--------------------------------*- C++ -*----------------------------------*\
  =========                 |
  \\      /  F ield         | OpenFOAM: The Open Source CFD Toolbox
   \\    /   O peration     | Website:  https://openfoam.org
    \\  /    A nd           | Version:  6
     \\/     M anipulation  |
\*---------------------------------------------------------------------------*/
FoamFile
{
    version     2.0;
    format      ascii;
    class       surfaceScalarField;
    location    "600";
    object      phi;
}
// * * * * * * * * * * * * * * * * * * * * * * * * * * * * * * * * * * * * * //

dimensions      [1 0 -1 0 0 0 0];

internalField   nonuniform List<scalar> 
852
(
-0.00222527
0.00227625
-0.00244128
0.000216094
-0.00267085
0.000229652
-0.00292757
0.000256797
-0.00316347
0.000235986
-0.00335638
0.00019299
-0.00349113
0.000134825
-0.00355317
6.21273e-05
-0.00352704
-2.60483e-05
-0.0033944
-0.000132565
-0.00313686
-0.000257457
-0.0027374
-0.000399381
-0.0021614
-0.000575918
-0.00130407
-0.000857246
-0.00130416
-0.000211498
0.00021378
-0.000172399
-3.90088e-05
-0.000115743
-5.65668e-05
-7.06758e-05
-4.49777e-05
-1.30155e-05
-5.75685e-05
6.2898e-05
-7.58201e-05
0.000154276
-9.12846e-05
0.000242684
-8.83133e-05
0.000317518
-7.47383e-05
0.000382448
-6.48342e-05
0.000437152
-5.46086e-05
0.000468244
-3.09975e-05
0.000465368
2.97113e-06
0.000426967
3.84947e-05
0.000369508
5.75534e-05
0.00031549
5.41118e-05
0.00030935
6.22901e-06
0.000281418
2.80195e-05
0.000283694
-0.00159899
0.00400794
-0.00208741
0.000704599
-0.00243138
0.000573706
-0.00271083
0.000536322
-0.00295182
0.000477058
-0.00314927
0.000390519
-0.00329355
0.000279192
-0.00337319
0.000141846
-0.00337595
-2.3208e-05
-0.0032918
-0.000216644
-0.00311091
-0.000438262
-0.00282283
-0.000687386
-0.0024222
-0.000976469
-0.00195975
-0.00131961
-0.00161485
-0.00164897
5.85487e-05
-0.00167337
5.85816e-05
0.000357298
-0.000139204
0.000121014
0.000197375
-0.00012978
0.000194324
-0.000248374
7.37122e-05
-0.000291299
-1.45453e-05
-0.000326317
-4.07042e-05
-0.000263509
-0.000153995
-0.00024095
-0.000110775
-0.000241831
-7.37589e-05
-0.00026144
-4.5127e-05
-0.000301107
-1.48445e-05
-0.000353481
2.14721e-05
-0.000409317
5.89012e-05
-0.000461207
9.04775e-05
-0.000496389
9.28268e-05
-0.000467039
2.48528e-05
-0.000505772
4.50579e-05
-0.000499137
2.14878e-05
-0.000212044
-0.0011766
0.00538177
-0.00176298
0.00129105
-0.00212338
0.000934196
-0.00239307
0.000806086
-0.00262059
0.000704659
-0.00280944
0.000579445
-0.00295441
0.000424242
-0.00304696
0.000234478
-0.00307745
7.36089e-06
-0.00303972
-0.000254294
-0.00293606
-0.000541844
-0.0027749
-0.000848468
-0.00257778
-0.00117351
-0.00239274
-0.00150458
-0.00226308
-0.00177855
-0.0020286
-0.00190777
-0.00196993
-0.000878236
0.000742202
-0.000959014
0.000278246
-0.000921621
0.000157025
-0.000894255
4.64385e-05
-0.00084995
-5.87604e-05
-0.000695049
-0.000195514
-0.000848791
-0.000959312
-0.00103282
-0.00107769
-0.00109229
-0.00107056
-0.00101141
-0.000920684
-0.000827611
-0.000428843
-0.000373823
-0.000127302
-0.000256391
7.86579e-05
-0.000184381
-0.000132723
-0.000878387
0.00650985
-0.00148341
0.00189616
-0.00178152
0.00123238
-0.00201788
0.00104252
-0.00221287
0.000899731
-0.00237199
0.00073865
-0.00249592
0.000548241
-0.00258019
0.000318835
-0.00261796
4.52016e-05
-0.00260554
-0.000266638
-0.00255736
-0.00058995
-0.00250178
-0.000903967
-0.00247684
-0.00119837
-0.00252653
-0.00145481
-0.00267245
-0.00163255
-0.00291138
-0.00166876
-0.00352078
-0.00136045
-0.0029248
-0.000595808
-0.00214026
-4.2254e-05
-0.00193995
7.80259e-05
-0.00184857
6.5724e-05
-0.00181087
8.82524e-06
-0.00179896
-7.05853e-05
-0.0018656
-0.000128791
-0.00175998
-0.000105688
-0.00165522
-0.000104825
-0.00154365
-0.000111642
-0.00142568
-0.000118038
-0.00129999
-0.000125759
-0.00116284
-0.000137223
-0.00100619
-0.000156716
-0.000812007
-0.000194251
-0.000536555
-0.000275521
-0.000475633
-0.000434661
-0.000239775
-0.000492165
5.55338e-05
-0.000479605
-7.83548e-05
-0.000659571
0.00746334
-0.00125449
0.00249117
-0.00142327
0.00140124
-0.00159558
0.00121491
-0.0017436
0.00104783
-0.00185153
0.000846664
-0.00192518
0.000621969
-0.00196709
0.000360824
-0.00197168
4.98673e-05
-0.0019384
-0.000299847
-0.00189363
-0.00063464
-0.00187257
-0.000924955
-0.0019061
-0.00116476
-0.00201226
-0.00134858
-0.00219076
-0.00145397
-0.00243489
-0.00142455
-0.00263853
-0.00115674
-0.002524
-0.000710251
-0.0022299
-0.000336275
-0.00199472
-0.000157078
-0.00183228
-9.66288e-05
-0.00172584
-9.75351e-05
-0.00166684
-0.000129497
-0.00163865
-0.000156901
-0.0015813
-0.000162959
-0.00151704
-0.000169004
-0.0014515
-0.000177099
-0.00138371
-0.00018575
-0.00131318
-0.000196207
-0.00123816
-0.000212161
-0.00115364
-0.000241157
-0.00105032
-0.000297486
-0.000926132
-0.000399632
-0.000817964
-0.000542749
-0.000620636
-0.000689413
-0.00026047
-0.000839691
0.000564414
-0.000903159
0.00136433
-0.000800042
0.00136019
4.02019e-06
0.00138134
-0.000619255
0.00841489
-0.0011556
0.0030276
-0.00102675
0.00127248
-0.00104881
0.00123705
-0.00116571
0.0011648
-0.00122236
0.000903393
-0.00122358
0.000623273
-0.00119341
0.000330727
-0.00113011
-1.3357e-05
-0.00104637
-0.00038351
-0.000984731
-0.000696207
-0.00097406
-0.000935552
-0.00103315
-0.0011056
-0.00116613
-0.00121553
-0.00136209
-0.00125793
-0.00158602
-0.00120054
-0.00173793
-0.00100475
-0.00173529
-0.000712811
-0.00162057
-0.000450922
-0.00149214
-0.000285427
-0.00138851
-0.000200176
-0.0013168
-0.000169164
-0.00127627
-0.000169945
-0.0012538
-0.000179288
-0.00123144
-0.000185237
-0.00120901
-0.000191354
-0.00118876
-0.000197265
-0.0011725
-0.000201932
-0.00116282
-0.000205805
-0.00116261
-0.000212294
-0.00117366
-0.000230022
-0.0011963
-0.000274768
-0.00123049
-0.000365364
-0.00126321
-0.000509951
-0.00124413
-0.00070842
-0.0011106
-0.000973142
-0.000713582
-0.0013001
3.51629e-05
-0.00154871
0.000600638
-0.000561377
0.00200715
-0.000805895
0.0095883
-0.000855822
0.00307761
-0.000209492
0.000626233
-4.81276e-05
0.00107577
-0.000224223
0.00134098
-0.000285127
0.000964379
-0.000223833
0.000562059
-0.000110204
0.000217177
1.50307e-05
-0.000138513
0.000112611
-0.000481014
0.000158448
-0.00074197
0.000138949
-0.000915979
4.81985e-05
-0.00101477
-0.000111352
-0.00105591
-0.000322253
-0.00104695
-0.000544038
-0.000978683
-0.0007122
-0.000836509
-0.000784874
-0.000640059
-0.000783201
-0.000452517
-0.00075345
-0.000315099
-0.000723408
-0.000230138
-0.000705295
-0.000187197
-0.000702492
-0.000172668
-0.000710006
-0.000171693
-0.000720957
-0.000174205
-0.000734344
-0.000177887
-0.000751542
-0.000179986
-0.000775757
-0.000177635
-0.000812878
-0.000168604
-0.000872277
-0.000152814
-0.000966885
-0.000135333
-0.00111188
-0.000129695
-0.00131808
-0.000159083
-0.00157799
-0.000249969
-0.00186035
-0.000425975
-0.0021259
-0.000707518
-0.00232295
-0.00110297
-0.00234718
-0.0015244
-0.00145704
-0.00145145
0.00057905
0.00166871
0.00833149
0.00227579
0.0024706
0.0024924
0.000409714
0.00208281
0.00148545
0.00172002
0.00170386
0.00157655
0.00110794
0.00153689
0.000601801
0.00155305
0.000201093
0.00158801
-0.000173394
0.00158399
-0.000476907
0.00152341
-0.000681314
0.00140895
-0.000801444
0.00124903
-0.000854783
0.00104992
-0.000856718
0.000821325
-0.000818284
0.000586811
-0.000744095
0.000385054
-0.000634677
0.000245134
-0.000500064
0.00016171
-0.000369016
0.000111787
-0.000265099
7.63668e-05
-0.000194639
4.36603e-05
-0.000154412
7.99562e-06
-0.000136924
-3.06932e-05
-0.000132924
-7.02139e-05
-0.000134604
-0.000110425
-0.000137594
-0.000152173
-0.000138157
-0.000197244
-0.000132483
-0.00024924
-0.000116526
-0.000315247
-8.67256e-05
-0.000408311
-4.21882e-05
-0.000553286
1.536e-05
-0.000791621
7.93321e-05
-0.00116846
0.000126948
-0.00170287
0.000108516
-0.00239091
-1.94025e-05
-0.00327582
-0.000217986
-0.00434027
-0.000459871
-0.00438206
-0.00140957
-0.00369731
0.00877183
0.0112238
0.00981436
0.00181922
0.00702613
0.00427375
0.00583545
0.00289462
0.00507607
0.0018674
0.00451033
0.00116762
0.00408541
0.000626092
0.00371291
0.000199188
0.00335841
-0.000122326
0.00302966
-0.000352491
0.00272507
-0.000496783
0.00243922
-0.00056886
0.00216665
-0.000584066
0.00190421
-0.000555773
0.00165604
-0.000495848
0.00143603
-0.000414595
0.00125643
-0.000320393
0.00111792
-0.000230431
0.00101146
-0.000158563
0.000926539
-0.000109639
0.000854437
-8.2233e-05
0.000789241
-7.16502e-05
0.000727902
-7.15061e-05
0.000669513
-7.61355e-05
0.00061324
-8.1242e-05
0.000558574
-8.34096e-05
0.000505676
-7.95043e-05
0.000455597
-6.63655e-05
0.00041022
-4.12673e-05
0.000373181
-5.06652e-06
0.000345903
4.27192e-05
0.000330552
9.47642e-05
0.000331199
0.000126382
0.000340644
9.9151e-05
0.000340125
-1.88033e-05
0.000321582
-0.000199364
0.000301826
-0.000440035
0.000122388
-0.00123006
-0.00345785
-0.000116364
0.00269275
0.00280487
0.00135259
0.0040462
0.00165335
0.00431695
0.00159672
0.0043325
0.00115215
0.00427562
0.000683042
0.00415569
0.000319195
0.00397406
5.93804e-05
0.00374859
-0.000126953
0.00349329
-0.000241401
0.00322376
-0.000299256
0.0029528
-0.000313032
0.00269095
-0.000293851
0.00244785
-0.00025267
0.00223355
-0.000200228
0.00205152
-0.000138287
0.00190255
-8.13835e-05
0.0017824
-3.834e-05
0.0016846
-1.17664e-05
0.00160249
-4.06157e-08
0.00153032
5.88234e-07
0.00146413
-5.2386e-06
0.00140168
-1.36008e-05
0.00134184
-2.13258e-05
0.00128465
-2.61407e-05
0.00123149
-2.62646e-05
0.00118545
-2.02441e-05
0.00115126
-6.99746e-06
0.00113336
1.29165e-05
0.00114116
3.49928e-05
0.00118622
4.97923e-05
0.00127486
3.78224e-05
0.00139575
-2.16577e-05
0.00152924
-0.000152218
0.00166761
-0.000337652
0.00175603
-0.000528371
0.00142009
-0.000894044
-0.00201259
-0.000101811
0.00278331
0.00176279
-0.000511954
0.00273771
0.000678502
0.00328329
0.00105121
0.0036814
0.000754112
0.00393039
0.000434127
0.00403874
0.000210914
0.00403302
6.51702e-05
0.00391893
-1.27936e-05
0.00372517
-4.75637e-05
0.00348381
-5.78226e-05
0.0032225
-5.16455e-05
0.00296557
-3.68483e-05
0.00273173
-1.87598e-05
0.0025313
2.70252e-07
0.00237508
1.80067e-05
0.00226238
3.13952e-05
0.002184
4.01184e-05
0.00212817
4.41332e-05
0.00208415
4.40578e-05
0.00204382
4.09925e-05
0.00200268
3.59807e-05
0.00195876
3.03931e-05
0.00191239
2.51209e-05
0.00186543
2.08941e-05
0.00182104
1.82037e-05
0.00178359
1.72891e-05
0.00175866
1.80091e-05
0.00175088
2.07756e-05
0.00176403
2.19242e-05
0.00179992
1.3982e-05
0.00185168
-1.38566e-05
0.0019053
-7.51956e-05
0.001932
-0.000178843
0.00193748
-0.00034305
0.00200379
-0.000594605
0.00206872
-0.000958892
8.28623e-05
0.0043235
-0.00220696
0.000559449
2.64665e-05
0.000680235
0.00170445
0.00242883
0.00283047
0.00300623
0.00303374
0.00298112
0.00289209
0.00279172
0.00269698
0.00261695
0.00255524
0.00251297
0.00248893
0.00247873
0.00247758
0.0024807
0.00248393
0.00248428
0.0024798
0.00246994
0.00245506
0.00243621
0.00241496
0.0023931
0.00237225
0.00235446
0.00233808
0.00231394
0.00226207
0.00214892
0.00193206
0.00155065
0.000916815
-8.1706e-05
)
;

boundaryField
{
    floor
    {
        type            calculated;
        value           nonuniform List<scalar> 
29
(
0
0
0
0
0
0
0
0
0
0
0
0
0
0
0
0
0
0
0
0
-2.19038e-06
-3.28865e-06
-5.74791e-07
1.25144e-06
1.66293e-07
-2.19504e-06
-4.21121e-06
-3.07735e-06
-8.72041e-08
)
;
    }
    ceiling
    {
        type            calculated;
        value           nonuniform List<scalar> 
43
(
5.22519e-05
3.45255e-05
1.69744e-05
2.10935e-05
2.47947e-05
2.70678e-05
2.97949e-05
3.25575e-05
3.52273e-05
3.77294e-05
3.99017e-05
4.1536e-05
4.26205e-05
4.31666e-05
4.32526e-05
4.3018e-05
4.26192e-05
4.21176e-05
4.16748e-05
4.13383e-05
4.10924e-05
4.08994e-05
4.07223e-05
4.05353e-05
4.03236e-05
4.00828e-05
3.98155e-05
3.95285e-05
3.92309e-05
3.89332e-05
3.8644e-05
3.83863e-05
3.81989e-05
3.80928e-05
3.80262e-05
3.80943e-05
3.8442e-05
3.93088e-05
3.9707e-05
3.85139e-05
2.26744e-05
1.87077e-05
1.13254e-05
)
;
    }
    sWall
    {
        type            calculated;
        value           uniform -0.000141982;
    }
    nWall
    {
        type            calculated;
        value           nonuniform List<scalar> 6(-2.12743e-05 -2.50915e-05 -2.88627e-05 -2.50876e-05 -2.66569e-05 -3.72825e-05);
    }
    sideWalls
    {
        type            empty;
        value           nonuniform 0();
    }
    glass1
    {
        type            calculated;
        value           nonuniform List<scalar> 9(-5.09056e-05 -0.000132623 -0.000197157 -0.000249617 -0.000293848 -0.000332218 -0.000367444 -0.000411834 -0.000462944);
    }
    glass2
    {
        type            calculated;
        value           nonuniform List<scalar> 2(-0.000105629 -0.000116989);
    }
    sun
    {
        type            calculated;
        value           uniform 0;
    }
    heatsource1
    {
        type            calculated;
        value           nonuniform List<scalar> 3(2.01038e-07 2.01128e-07 2.01194e-07);
    }
    heatsource2
    {
        type            calculated;
        value           nonuniform List<scalar> 4(5.03073e-08 5.05525e-08 0 0);
    }
    Table_master
    {
        type            calculated;
        value           nonuniform List<scalar> 9(-1.52096e-07 -1.52026e-07 -1.51953e-07 -1.51888e-07 -1.5183e-07 -1.51774e-07 -1.51715e-07 -1.51647e-07 -1.51535e-07);
    }
    Table_slave
    {
        type            calculated;
        value           nonuniform List<scalar> 9(1.50827e-07 1.50866e-07 1.509e-07 1.50934e-07 1.50968e-07 1.51004e-07 1.51043e-07 1.51086e-07 1.51113e-07);
    }
    inlet
    {
        type            calculated;
        value           uniform -0.000757096;
    }
    outlet
    {
        type            calculated;
        value           nonuniform List<scalar> 2(-0.00423369 0.00649603);
    }
}


// ************************************************************************* //
