/*--------------------------------*- C++ -*----------------------------------*\
  =========                 |
  \\      /  F ield         | OpenFOAM: The Open Source CFD Toolbox
   \\    /   O peration     | Website:  https://openfoam.org
    \\  /    A nd           | Version:  6
     \\/     M anipulation  |
\*---------------------------------------------------------------------------*/
FoamFile
{
    version     2.0;
    format      ascii;
    class       surfaceScalarField;
    location    "1800";
    object      phi;
}
// * * * * * * * * * * * * * * * * * * * * * * * * * * * * * * * * * * * * * //

dimensions      [1 0 -1 0 0 0 0];

internalField   nonuniform List<scalar> 
852
(
-0.00288893
0.00294642
-0.00383445
0.000945528
-0.00459114
0.000756704
-0.00521406
0.000622943
-0.00567449
0.000460442
-0.00595307
0.000278596
-0.00602739
7.43346e-05
-0.00587206
-0.000155325
-0.00547112
-0.00040092
-0.00484083
-0.000630278
-0.00403314
-0.000807679
-0.00312176
-0.000911359
-0.00217287
-0.00094888
-0.00118299
-0.000989867
-0.00118147
-0.00057081
0.000573813
-0.000144671
-0.000426122
0.000461224
-0.000605879
0.000874881
-0.000413641
0.00112559
-0.00025069
0.00126831
-0.000142704
0.00133894
-7.06138e-05
0.00137192
-3.29631e-05
0.00138825
-1.63124e-05
0.0013956
-7.33929e-06
0.00139673
-1.113e-06
0.00139237
4.37522e-06
0.00138025
1.21409e-05
0.00135205
2.82117e-05
0.00128624
6.58358e-05
0.00114746
0.000138798
0.000926669
0.000220804
0.000679893
0.000246795
0.00068397
-0.00206095
0.0051618
-0.00301246
0.00189705
-0.00380188
0.00154614
-0.00441517
0.00123624
-0.00486455
0.000909834
-0.00514361
0.000557671
-0.00522997
0.000160706
-0.00509576
-0.000289519
-0.00473023
-0.000766432
-0.00416093
-0.00119956
-0.00345026
-0.00151833
-0.00267555
-0.00168606
-0.0019172
-0.00170722
-0.00129167
-0.00161538
-0.00110844
-0.00136469
-0.000326486
-0.000781988
-0.000326522
0.000615946
-3.40137e-05
0.000968493
-0.000778654
0.00114487
-0.000782241
0.0013125
-0.000581257
0.00143223
-0.0003704
0.00149231
-0.000202771
0.00149619
-7.44804e-05
0.00149698
-3.37307e-05
0.00149861
-1.79302e-05
0.00150006
-8.77632e-06
0.00150088
-1.907e-06
0.00150077
4.49747e-06
0.00149882
1.41053e-05
0.00149149
3.55653e-05
0.00145037
0.000106966
0.00127775
0.000311439
0.000980823
0.00051775
0.000613888
0.000613748
0.00130807
-0.00145046
0.00684777
-0.00229025
0.00273686
-0.00299337
0.00224928
-0.00351616
0.00175905
-0.00390721
0.00130089
-0.0041617
0.000812178
-0.00424709
0.000246114
-0.00411679
-0.000419809
-0.00375949
-0.00112372
-0.0032213
-0.00173774
-0.00257667
-0.00216295
-0.00190134
-0.00236138
-0.00126774
-0.00234081
-0.000748606
-0.00213449
-0.000383963
-0.00172931
-1.99117e-05
-0.00114603
-0.000346419
0.00133869
-0.00136412
0.00155844
-0.000998387
0.00155447
-0.000778263
0.00156844
-0.000595208
0.0015961
-0.000398044
0.0015881
-0.000194758
0.00151379
0.00148023
0.00146247
0.00145386
0.00145212
0.00145679
0.00147107
0.0015068
0.00161394
0.00133381
0.000591585
0.000989994
0.000861583
0.000550386
0.00105337
0.00187386
-0.00102489
0.00817664
-0.0017132
0.00342518
-0.00217992
0.00271601
-0.00252723
0.00210638
-0.00279747
0.00157115
-0.00298125
0.000995972
-0.00303332
0.000298196
-0.00287412
-0.000578987
-0.00250616
-0.00149167
-0.00200719
-0.0022367
-0.0014587
-0.00271142
-0.000922438
-0.00289763
-0.000443433
-0.0028198
-3.98226e-05
-0.00253809
0.000312873
-0.002082
0.000694299
-0.00152744
0.00133235
-0.000984459
0.00208383
-0.000743282
0.00164006
-0.000920324
0.00156169
-0.00092001
0.00151796
-0.000734513
0.00148521
-0.000562446
0.00149079
-0.000403609
0.00154373
-0.00024768
0.00166713
-0.000123533
0.00176887
-0.00010188
0.00186178
-9.305e-05
0.00194044
-7.8796e-05
0.00198784
-4.75411e-05
0.00197901
8.69922e-06
0.00188727
9.16056e-05
0.00168106
0.000206064
0.00130783
0.000373101
0.00116301
0.000736422
0.000853125
0.00117148
0.000370483
0.00153603
0.00226444
-0.000727192
0.00926559
-0.00127283
0.00397083
-0.00138028
0.00282348
-0.00147612
0.00220224
-0.00156452
0.00165956
-0.00161849
0.00104996
-0.00157228
0.000252005
-0.00132667
-0.00082459
-0.00094715
-0.00187118
-0.00052959
-0.00265425
-0.000136611
-0.00310438
0.000197248
-0.00323148
0.000460379
-0.00308292
0.000660771
-0.00273847
0.00084054
-0.00226175
0.00104395
-0.00173083
0.00130549
-0.00124598
0.00150319
-0.000940977
0.00143381
-0.000850923
0.00129486
-0.000781047
0.00120079
-0.000640423
0.00113988
-0.000501528
0.00111948
-0.000383195
0.0011511
-0.000279282
0.00123849
-0.000210907
0.00132746
-0.000190834
0.00141908
-0.000184652
0.00150695
-0.000166654
0.00157784
-0.000118418
0.00161043
-2.38746e-05
0.00158269
0.000119361
0.00148363
0.000305137
0.00131666
0.000540094
0.0011639
0.000889193
0.000993572
0.00134183
0.000622926
0.0019067
0.00047193
0.00241546
-0.00103356
0.00150531
-0.00148899
0.000455236
-0.00144026
-0.000641001
0.0103169
-0.00103902
0.00436887
-0.000651291
0.00243576
-0.000384794
0.00193576
-0.000235053
0.00150983
-0.000105193
0.00092011
0.000152639
-5.81275e-06
0.000532039
-0.00120398
0.000878665
-0.00221779
0.00113897
-0.00291454
0.00129717
-0.00326257
0.00136075
-0.00329504
0.00135505
-0.00307722
0.0013043
-0.00268771
0.00124262
-0.00220006
0.00120031
-0.0016885
0.00118274
-0.00122841
0.00114171
-0.000899925
0.00101678
-0.000725984
0.000852123
-0.000616372
0.000724371
-0.000512657
0.000646655
-0.000423797
0.000619557
-0.000356082
0.000645223
-0.000304932
0.000712049
-0.000277718
0.000796295
-0.000275064
0.000889854
-0.000278196
0.000988722
-0.000265506
0.00108674
-0.000216416
0.00117168
-0.000108807
0.00122249
6.85743e-05
0.00123393
0.000293708
0.00121858
0.000555455
0.00122709
0.000880699
0.00130816
0.00126078
0.00147381
0.00174106
0.00190052
0.00198877
0.00214845
0.00125739
0.00175945
0.000844251
0.000377837
-0.000745138
0.0115157
-0.000672246
0.00429599
0.00037757
0.00138596
0.000979784
0.00133356
0.00136056
0.00112907
0.00179539
0.000485294
0.00228207
-0.000492471
0.00265472
-0.00157661
0.00285398
-0.00241704
0.00286832
-0.00292888
0.00272349
-0.00311772
0.00246221
-0.00303375
0.00213348
-0.00274847
0.00178047
-0.00233468
0.0014403
-0.00185989
0.00114021
-0.0013884
0.000886378
-0.000974563
0.000668313
-0.000681845
0.000459616
-0.000517273
0.000276421
-0.000433161
0.000144277
-0.000380497
6.73571e-05
-0.000346862
3.92874e-05
-0.000327996
5.42179e-05
-0.000319847
0.000100199
-0.000323684
0.000162963
-0.000337812
0.000236114
-0.000351332
0.000320809
-0.000350187
0.000422219
-0.000317811
0.000545335
-0.000231908
0.000677488
-6.35626e-05
0.000804626
0.000166584
0.000935827
0.00042427
0.0011155
0.000701042
0.00139377
0.000982527
0.00183566
0.00129918
0.00250068
0.00132377
0.00303723
0.000720857
0.00307189
0.000809615
0.00351376
0.00250037
0.00952221
0.00313509
0.00366128
0.00336158
0.00115949
0.0036592
0.00103595
0.00398166
0.000806619
0.0044606
6.37664e-06
0.0049205
-0.000952359
0.00507547
-0.00173157
0.00491433
-0.0022559
0.00450251
-0.00251705
0.00392027
-0.00253547
0.00324675
-0.00236022
0.0025515
-0.0020532
0.0018842
-0.00166738
0.00127892
-0.00125459
0.000762779
-0.000872239
0.000340952
-0.000552721
2.26292e-05
-0.000363508
-0.000210312
-0.000284316
-0.0003747
-0.000268758
-0.000485685
-0.000269497
-0.000555465
-0.000277066
-0.000594021
-0.000289425
-0.000608383
-0.00030547
-0.000606598
-0.000325453
-0.000596794
-0.000347601
-0.000582247
-0.000365863
-0.000560382
-0.000372036
-0.000521792
-0.000356386
-0.00044612
-0.000307565
-0.00029891
-0.000210757
-0.000100068
-3.22431e-05
0.000126607
0.000197611
0.000404759
0.000422905
0.00074947
0.000637831
0.00120465
0.000844016
0.00169639
0.000832042
0.00189276
0.000524501
0.00111405
0.00158835
0.00488737
0.0100778
0.0137312
0.0123067
0.00258393
0.0111973
0.00214539
0.0104178
0.00158617
0.00973196
0.000692206
0.00885952
-7.99112e-05
0.00780083
-0.000672866
0.00664511
-0.00110017
0.00545963
-0.00133155
0.00429307
-0.0013689
0.00319044
-0.00125757
0.00219095
-0.00105371
0.0013117
-0.000788109
0.000556727
-0.000499608
-4.74049e-05
-0.000268093
-0.000471523
-0.000128588
-0.000734373
-0.000100643
-0.000904622
-0.000114051
-0.00103057
-0.00014279
-0.00112916
-0.000170894
-0.00120935
-0.000196858
-0.00127777
-0.00022099
-0.00133989
-0.000243331
-0.00140185
-0.000263478
-0.00147039
-0.000279053
-0.0015516
-0.000284633
-0.00165174
-0.000271887
-0.00177872
-0.000229387
-0.0019434
-0.000142872
-0.00215507
9.3171e-07
-0.00239641
0.000209114
-0.00269213
0.000493343
-0.00313834
0.000869129
-0.00383325
0.00133276
-0.00484094
0.00185172
-0.00627462
0.00226573
-0.00800276
0.00225266
-0.00749645
0.00108206
-0.00232123
0.00479484
0.00387913
0.00431412
0.00262609
0.00507593
0.000824348
0.00524364
0.000524492
0.00495218
0.000211539
0.00443573
-0.000156414
0.00375361
-0.000418047
0.00296021
-0.000538151
0.00210792
-0.0005166
0.00125829
-0.000407933
0.000457157
-0.000252568
-0.000252127
-7.8811e-05
-0.000798842
4.71213e-05
-0.00114719
8.02687e-05
-0.00134211
6.63526e-05
-0.00146776
2.50246e-05
-0.00156559
-1.62131e-05
-0.00165621
-5.21513e-05
-0.00174637
-8.07186e-05
-0.00183834
-0.000104868
-0.00193411
-0.000125205
-0.00203585
-0.000141581
-0.00214594
-0.000153368
-0.00226639
-0.00015859
-0.0023977
-0.000153307
-0.00253803
-0.000131545
-0.00268194
-8.54593e-05
-0.0028196
-5.19021e-06
-0.00293763
0.000118973
-0.00303222
0.000303722
-0.0031151
0.000576232
-0.00319559
0.000949643
-0.00327359
0.00141077
-0.0033034
0.00188155
-0.00322713
0.00218947
-0.00286865
0.0018942
-0.00159494
-0.000191633
-0.00384046
-0.000567137
0.00450303
0.000638064
0.00142088
0.000809073
0.000653334
0.00092391
0.000409653
0.000922835
0.000212618
0.000727736
3.86919e-05
0.000363083
-5.33851e-05
-0.000128658
-4.63982e-05
-0.000665417
2.01701e-05
-0.00115481
8.14751e-05
-0.00153521
0.00012784
-0.00176993
0.000155925
-0.00188004
0.000157247
-0.00193308
0.000133319
-0.00196539
9.86832e-05
-0.00200128
6.09276e-05
-0.00204617
2.86936e-05
-0.00210202
3.71898e-06
-0.00216757
-1.51594e-05
-0.00224223
-3.01909e-05
-0.0023251
-4.23137e-05
-0.00241487
-5.1801e-05
-0.00250975
-5.84743e-05
-0.00260691
-6.14113e-05
-0.00270154
-5.86553e-05
-0.00278601
-4.70635e-05
-0.00284906
-2.23915e-05
-0.00287595
2.17109e-05
-0.00285443
9.74731e-05
-0.00276257
0.000211878
-0.00256691
0.000380586
-0.0022409
0.000623649
-0.00177108
0.000940967
-0.00113602
0.00124651
-0.000156317
0.00120978
0.00116322
0.000574669
0.00158125
-0.000609647
-0.00217609
0.000875464
-0.010263
-0.00571752
-0.00427395
-0.00360521
-0.00318419
-0.00296328
-0.00291881
-0.00296834
-0.00301241
-0.00299116
-0.0029096
-0.00278255
-0.00262824
-0.00247333
-0.00234291
-0.00224754
-0.00219018
-0.00216521
-0.0021653
-0.00218432
-0.00221839
-0.00226459
-0.00232026
-0.00238259
-0.00244781
-0.00251022
-0.00256098
-0.00258699
-0.0025688
-0.00247476
-0.0022662
-0.00188885
-0.00126834
-0.00033046
0.000912975
0.00211959
0.00269093
0.00207774
)
;

boundaryField
{
    floor
    {
        type            calculated;
        value           nonuniform List<scalar> 
29
(
0
0
0
0
0
0
0
0
0
0
0
0
0
0
0
0
0
0
0
0
-4.05971e-06
-1.01903e-05
-1.53852e-05
-2.00852e-05
-1.50676e-06
-2.98695e-06
-8.10329e-06
-8.5739e-06
-8.18389e-06
)
;
    }
    ceiling
    {
        type            calculated;
        value           nonuniform List<scalar> 
43
(
-2.10304e-05
-4.09329e-05
-4.2474e-05
-2.26702e-05
-1.53998e-05
-1.13586e-05
-8.27412e-06
-5.76436e-06
-3.84722e-06
-2.3118e-06
-1.06823e-06
-7.61979e-08
8.11116e-07
1.6264e-06
2.34715e-06
2.92012e-06
3.32371e-06
3.58147e-06
3.73631e-06
3.82626e-06
3.87362e-06
3.89682e-06
3.9017e-06
3.8905e-06
3.86466e-06
3.82524e-06
3.77309e-06
3.70874e-06
3.63215e-06
3.54204e-06
3.44135e-06
3.34077e-06
3.24517e-06
3.16119e-06
3.10107e-06
3.09505e-06
3.1886e-06
3.34426e-06
3.55341e-06
4.54481e-06
1.10384e-05
7.91319e-06
-5.67767e-05
)
;
    }
    sWall
    {
        type            calculated;
        value           uniform -0.000227559;
    }
    nWall
    {
        type            calculated;
        value           nonuniform List<scalar> 6(-4.8913e-05 -5.86279e-05 -6.40147e-05 -7.56936e-05 -8.31042e-05 -0.000102879);
    }
    sideWalls
    {
        type            empty;
        value           nonuniform 0();
    }
    glass1
    {
        type            calculated;
        value           nonuniform List<scalar> 9(-5.74775e-05 -0.000154406 -0.0002355 -0.000303974 -0.000361736 -0.00041029 -0.00045368 -0.000506853 -0.0005666);
    }
    glass2
    {
        type            calculated;
        value           nonuniform List<scalar> 2(-0.000259552 -0.000287837);
    }
    sun
    {
        type            calculated;
        value           uniform 0;
    }
    heatsource1
    {
        type            calculated;
        value           nonuniform List<scalar> 3(2.04191e-07 2.04126e-07 2.0414e-07);
    }
    heatsource2
    {
        type            calculated;
        value           nonuniform List<scalar> 4(5.10665e-08 5.12116e-08 0 0);
    }
    Table_master
    {
        type            calculated;
        value           nonuniform List<scalar> 9(-1.53139e-07 -1.53198e-07 -1.5322e-07 -1.53236e-07 -1.53248e-07 -1.53255e-07 -1.53257e-07 -1.53252e-07 -1.53222e-07);
    }
    Table_slave
    {
        type            calculated;
        value           nonuniform List<scalar> 9(1.53033e-07 1.53039e-07 1.53012e-07 1.52989e-07 1.52977e-07 1.52983e-07 1.52993e-07 1.53034e-07 1.53115e-07);
    }
    inlet
    {
        type            calculated;
        value           uniform -0.00609006;
    }
    outlet
    {
        type            calculated;
        value           nonuniform List<scalar> 2(-0.000626865 0.0111794);
    }
}


// ************************************************************************* //
