// -*- C++ -*-
// File generated by PyFoam - sorry for the ugliness

FoamFile
{
 version 2.0;
 format ascii;
 class volVectorField;
 location "1400";
 object U;
}

dimensions [ 0 1 -1 0 0 0 0 ];

internalField nonuniform List<vector> 459
(
  (0.346442 -0.156211 0)
  (0.268308 -0.148961 0)
  (0.400398 -0.0995073 0)
  (0.502379 -0.0654796 0)
  (0.549384 -0.045793 0)
  (0.566958 -0.0327143 0)
  (0.572554 -0.0225627 0)
  (0.5687 -0.0137429 0)
  (0.554899 -0.00548209 0)
  (0.530543 0.00288728 0)
  (0.494757 0.0121234 0)
  (0.44574 0.0233917 0)
  (0.379696 0.0394176 0)
  (0.284577 0.0697525 0)
  (0.210283 0.150309 0)
  (0.0190032 0.0111157 0)
  (-0.0253416 -0.00338744 0)
  (-0.0182269 -0.00462523 0)
  (-0.0170547 -0.00334024 0)
  (-0.0150858 -0.00326468 0)
  (-0.0116267 -0.00507637 0)
  (-0.00500836 -0.00891072 0)
  (0.0033077 -0.00957436 0)
  (0.0096543 -0.00607103 0)
  (0.0136774 -0.0043533 0)
  (0.0162034 -0.00333485 0)
  (0.0182734 -0.00263807 0)
  (0.0202518 -0.00221885 0)
  (0.0219738 -0.00191353 0)
  (0.0235259 -0.0010387 0)
  (0.0226893 0.000246618 0)
  (0.0214865 -0.000446343 0)
  (0.0253448 2.36561e-06 0)
  (-0.0151826 0.00974307 0)
  (0.451517 -0.328355 0)
  (0.211734 -0.249581 0)
  (0.327586 -0.136929 0)
  (0.409004 -0.0699334 0)
  (0.440081 -0.0356379 0)
  (0.451825 -0.0135383 0)
  (0.457723 0.00480251 0)
  (0.456934 0.0207879 0)
  (0.447337 0.0353676 0)
  (0.428359 0.049925 0)
  (0.399541 0.0657855 0)
  (0.360616 0.0844396 0)
  (0.312868 0.108278 0)
  (0.259601 0.142143 0)
  (0.229942 0.201527 0)
  (0.20116 0.174486 0)
  (0.0949208 0.119374 0)
  (0.0722625 0.00866248 0)
  (0.0333746 0.0062256 0)
  (0.0192225 0.00395982 0)
  (0.011835 0.00298063 0)
  (0.00549045 0.00208143 0)
  (-0.00293879 -0.00148756 0)
  (-0.00279525 -0.0101928 0)
  (-0.00568596 -0.0118437 0)
  (-0.00212706 -0.0054262 0)
  (0.000816325 -0.00303594 0)
  (0.00126561 -0.00240563 0)
  (0.000918559 -0.00223095 0)
  (4.77619e-05 -0.00208752 0)
  (-0.0015829 -0.00114088 0)
  (-0.00434298 0.00100491 0)
  (-0.00482803 0.00204085 0)
  (-0.00160467 -0.000570919 0)
  (0.00802563 0.00398421 0)
  (-0.0796698 0.0206244 0)
  (0.492142 -0.501651 0)
  (0.0808515 -0.338918 0)
  (0.220207 -0.182842 0)
  (0.281829 -0.103275 0)
  (0.295874 -0.0642931 0)
  (0.303412 -0.0373293 0)
  (0.310508 -0.0137092 0)
  (0.315081 0.00949795 0)
  (0.312855 0.0334335 0)
  (0.303265 0.0588633 0)
  (0.285908 0.0863565 0)
  (0.260831 0.116346 0)
  (0.229506 0.149244 0)
  (0.19291 0.184953 0)
  (0.164343 0.222595 0)
  (0.126031 0.185075 0)
  (0.0658314 0.140906 0)
  (0.0460609 -0.0129851 0)
  (-0.0107773 -0.000311251 0)
  (-0.0057134 0.0049013 0)
  (-0.00326176 0.00522838 0)
  (-0.00137838 0.00485607 0)
  (-0.00108348 0.00417061 0)
  (0.00404626 -0.00690149 0)
  (-0.0152531 -0.0128459 0)
  (-0.0227144 -0.00908315 0)
  (-0.0266171 -0.00721199 0)
  (-0.0294216 -0.00578682 0)
  (-0.0316401 -0.00442691 0)
  (-0.0333553 -0.00308617 0)
  (-0.0338769 -0.00179265 0)
  (-0.0317055 -0.00062585 0)
  (-0.0268082 0.00163173 0)
  (-0.0230382 0.0039787 0)
  (-0.0300019 0.00556201 0)
  (-0.0777956 0.00585171 0)
  (0.508429 -0.612518 0)
  (-0.0462223 -0.385309 0)
  (0.139846 -0.204045 0)
  (0.171294 -0.117144 0)
  (0.164456 -0.0746079 0)
  (0.169239 -0.0429661 0)
  (0.176813 -0.0150636 0)
  (0.184421 0.012282 0)
  (0.18697 0.040793 0)
  (0.183968 0.0716726 0)
  (0.174852 0.105182 0)
  (0.159298 0.14099 0)
  (0.137773 0.178194 0)
  (0.109106 0.214972 0)
  (0.0833674 0.248659 0)
  (0.0509176 0.229972 0)
  (0.0183968 0.190537 0)
  (-0.0576401 0.0320273 0)
  (-0.037671 0.0015758 0)
  (-0.0428226 0.00341199 0)
  (-0.0429742 0.00514751 0)
  (-0.0450252 0.00605182 0)
  (-0.0487624 0.00522553 0)
  (-0.0537835 0.00262251 0)
  (-0.0583411 -0.000306606 0)
  (-0.0591938 -0.00210498 0)
  (-0.0585076 -0.00334786 0)
  (-0.056336 -0.00421276 0)
  (-0.0531348 -0.00484953 0)
  (-0.0491773 -0.00534625 0)
  (-0.0445277 -0.00576073 0)
  (-0.0389296 -0.00606967 0)
  (-0.03172 -0.0059688 0)
  (-0.0242677 -0.00527416 0)
  (-0.0138995 -0.00486107 0)
  (-0.0014204 -0.0054325 0)
  (-0.00618588 -0.00409011 0)
  (0.496596 -0.673079 0)
  (-0.135371 -0.414134 0)
  (0.087274 -0.216005 0)
  (0.0778023 -0.114999 0)
  (0.0491748 -0.0782671 0)
  (0.0585364 -0.0493747 0)
  (0.0671886 -0.022348 0)
  (0.0757556 0.00685741 0)
  (0.0793116 0.0395271 0)
  (0.0787763 0.075774 0)
  (0.0736779 0.115038 0)
  (0.0634686 0.156399 0)
  (0.0482188 0.198609 0)
  (0.0261969 0.239807 0)
  (0.00803935 0.276918 0)
  (-0.0152846 0.265441 0)
  (-0.0258002 0.212793 0)
  (-0.0590848 0.0429955 0)
  (-0.0526039 0.00781349 0)
  (-0.0606346 0.00582941 0)
  (-0.0637182 0.00735378 0)
  (-0.0649709 0.00846615 0)
  (-0.0653154 0.00816812 0)
  (-0.0651968 0.00632323 0)
  (-0.0646564 0.00344256 0)
  (-0.0636614 0.000385893 0)
  (-0.0622917 -0.00194747 0)
  (-0.0604651 -0.00365093 0)
  (-0.0582334 -0.00494052 0)
  (-0.0556761 -0.00606195 0)
  (-0.0527814 -0.00730499 0)
  (-0.0493283 -0.0090126 0)
  (-0.044805 -0.0114976 0)
  (-0.0384065 -0.0148255 0)
  (-0.0289908 -0.0188467 0)
  (-0.0147495 -0.0239367 0)
  (0.00863832 -0.0274999 0)
  (0.0384485 -0.0367913 0)
  (0.0797882 -0.0191661 0)
  (-0.0498076 0.0253994 0)
  (0.445862 -0.686214 0)
  (-0.176161 -0.425223 0)
  (0.0326826 -0.205518 0)
  (-0.0066037 -0.0860092 0)
  (-0.045387 -0.0783201 0)
  (-0.032025 -0.0567418 0)
  (-0.0261609 -0.0311141 0)
  (-0.0194734 0.000349202 0)
  (-0.0178246 0.037506 0)
  (-0.0177396 0.0780087 0)
  (-0.0201777 0.121791 0)
  (-0.0258497 0.167836 0)
  (-0.0348222 0.214674 0)
  (-0.047615 0.259125 0)
  (-0.0548593 0.292501 0)
  (-0.0631018 0.278871 0)
  (-0.057187 0.210474 0)
  (-0.0640509 0.0535268 0)
  (-0.061654 0.016661 0)
  (-0.067255 0.00985572 0)
  (-0.0689674 0.0085582 0)
  (-0.0683911 0.00788603 0)
  (-0.0665595 0.00652275 0)
  (-0.0643024 0.00420603 0)
  (-0.0621784 0.00129253 0)
  (-0.0603733 -0.00158772 0)
  (-0.059016 -0.00388032 0)
  (-0.057973 -0.00556908 0)
  (-0.0572463 -0.00680162 0)
  (-0.0569253 -0.00782167 0)
  (-0.057102 -0.00901632 0)
  (-0.0577335 -0.0109595 0)
  (-0.0584874 -0.014345 0)
  (-0.0585654 -0.0197959 0)
  (-0.0566718 -0.0277115 0)
  (-0.0511055 -0.0387424 0)
  (-0.0406023 -0.0517032 0)
  (-0.0283591 -0.0607945 0)
  (0.0412526 -0.0181804 0)
  (-0.101012 0.0710493 0)
  (0.339676 -0.631036 0)
  (-0.184421 -0.39193 0)
  (-0.0716898 -0.177246 0)
  (-0.0839567 -0.0554029 0)
  (-0.137483 -0.0750192 0)
  (-0.125361 -0.060503 0)
  (-0.12062 -0.0346346 0)
  (-0.115819 -0.00103865 0)
  (-0.11111 0.0372676 0)
  (-0.108573 0.0791782 0)
  (-0.106556 0.124576 0)
  (-0.105406 0.172494 0)
  (-0.105005 0.220934 0)
  (-0.104861 0.264972 0)
  (-0.099109 0.292394 0)
  (-0.0913105 0.272861 0)
  (-0.073076 0.193266 0)
  (-0.0649861 0.05697 0)
  (-0.0632906 0.0210184 0)
  (-0.0647766 0.0113012 0)
  (-0.0635374 0.00764493 0)
  (-0.06059 0.00540886 0)
  (-0.056874 0.00335279 0)
  (-0.0531685 0.0011204 0)
  (-0.0500422 -0.00120162 0)
  (-0.0479852 -0.00328344 0)
  (-0.0468271 -0.00489294 0)
  (-0.046455 -0.00593541 0)
  (-0.0468998 -0.00641945 0)
  (-0.0483879 -0.00649235 0)
  (-0.0513371 -0.0065547 0)
  (-0.0562043 -0.0073658 0)
  (-0.0632586 -0.00990257 0)
  (-0.0722757 -0.015007 0)
  (-0.0826912 -0.0233562 0)
  (-0.0934022 -0.0353315 0)
  (-0.100951 -0.0487204 0)
  (-0.101035 -0.0520537 0)
  (-0.100263 -0.0139854 0)
  (-0.161043 0.119609 0)
  (0.178413 -0.49337 0)
  (-0.294761 -0.309017 0)
  (-0.281066 -0.162277 0)
  (-0.18339 -0.0305262 0)
  (-0.249649 -0.0854518 0)
  (-0.221224 -0.0719821 0)
  (-0.210514 -0.0428227 0)
  (-0.202709 -0.00651462 0)
  (-0.194581 0.0334599 0)
  (-0.187887 0.0757834 0)
  (-0.179653 0.12077 0)
  (-0.169448 0.167841 0)
  (-0.156903 0.214733 0)
  (-0.141635 0.255581 0)
  (-0.121405 0.277012 0)
  (-0.0990675 0.252542 0)
  (-0.071975 0.169065 0)
  (-0.0554566 0.0542498 0)
  (-0.0530636 0.0204546 0)
  (-0.050809 0.00917714 0)
  (-0.0461293 0.00396388 0)
  (-0.0402623 0.000895495 0)
  (-0.0346723 -0.000977745 0)
  (-0.0301865 -0.0023083 0)
  (-0.0271125 -0.00342819 0)
  (-0.0252455 -0.00439427 0)
  (-0.024359 -0.00507191 0)
  (-0.0242414 -0.00526197 0)
  (-0.0247921 -0.00477695 0)
  (-0.0261001 -0.00351416 0)
  (-0.028519 -0.00156466 0)
  (-0.0325217 0.000663132 0)
  (-0.0396174 0.00207117 0)
  (-0.0519351 0.000580658 0)
  (-0.0716475 -0.006659 0)
  (-0.0988816 -0.0214726 0)
  (-0.128035 -0.0425565 0)
  (-0.157999 -0.0685951 0)
  (-0.20488 -0.0956989 0)
  (-0.392135 -0.122354 0)
  (-0.0634449 -0.348101 0)
  (-0.618566 -0.29964 0)
  (-0.822629 -0.282375 0)
  (-0.229739 -0.149572 0)
  (-0.342014 -0.126444 0)
  (-0.289705 -0.0911009 0)
  (-0.275363 -0.0537992 0)
  (-0.26784 -0.0164469 0)
  (-0.259677 0.0231878 0)
  (-0.249155 0.0648342 0)
  (-0.234097 0.107534 0)
  (-0.213678 0.151174 0)
  (-0.187601 0.193855 0)
  (-0.15635 0.229996 0)
  (-0.120975 0.247002 0)
  (-0.0856033 0.221744 0)
  (-0.0505077 0.142797 0)
  (-0.0266244 0.0479668 0)
  (-0.024027 0.0177316 0)
  (-0.0197482 0.00633303 0)
  (-0.0115507 0.000805329 0)
  (-0.00506118 -0.00152658 0)
  (-0.000116315 -0.00215304 0)
  (0.00329351 -0.00220038 0)
  (0.00537757 -0.00223631 0)
  (0.00646953 -0.00235629 0)
  (0.0068194 -0.00242174 0)
  (0.00666648 -0.00220595 0)
  (0.0062334 -0.00145865 0)
  (0.005723 3.63182e-05 0)
  (0.00533024 0.00237924 0)
  (0.00530578 0.00555588 0)
  (0.0057089 0.0092576 0)
  (0.00646512 0.0124283 0)
  (0.00738776 0.0133226 0)
  (0.00973209 0.0108388 0)
  (0.0110271 0.00520053 0)
  (0.0161094 -0.00390605 0)
  (0.0432641 -0.0534154 0)
  (-0.261523 -0.166651 0)
  (-1.83015 -0.299878 0)
  (-0.101436 -0.268327 0)
  (-0.325678 -0.16399 0)
  (-0.308315 -0.098281 0)
  (-0.30854 -0.0445494 0)
  (-0.306967 1.98066e-05 0)
  (-0.300181 0.0350816 0)
  (-0.28746 0.0644816 0)
  (-0.266908 0.0954364 0)
  (-0.237098 0.1281 0)
  (-0.197969 0.160967 0)
  (-0.151087 0.189474 0)
  (-0.10021 0.203174 0)
  (-0.0508895 0.182111 0)
  (-0.00183819 0.111002 0)
  (0.0296744 0.0414345 0)
  (0.0336205 0.0169326 0)
  (0.0376964 0.00443191 0)
  (0.040743 -0.00237711 0)
  (0.0423619 -0.00423272 0)
  (0.0431508 -0.00386962 0)
  (0.0434958 -0.00293573 0)
  (0.0435674 -0.00211205 0)
  (0.0434038 -0.00150368 0)
  (0.0430073 -0.000951243 0)
  (0.04243 -0.000224375 0)
  (0.0418104 0.000901421 0)
  (0.0413899 0.00260339 0)
  (0.0415291 0.00491791 0)
  (0.0425115 0.00739306 0)
  (0.0450254 0.00932404 0)
  (0.0492309 0.00957952 0)
  (0.055098 0.00577349 0)
  (0.0623326 -0.00345078 0)
  (0.068847 -0.0159709 0)
  (0.073978 -0.0302717 0)
  (0.0870764 -0.0594888 0)
  (-0.02685 -0.123255 0)
  (-0.294548 0.0288982 0)
  (-0.0163921 -0.240641 0)
  (-0.232106 -0.176399 0)
  (-0.282572 -0.150945 0)
  (-0.316902 -0.130858 0)
  (-0.33264 -0.106946 0)
  (-0.332158 -0.0738952 0)
  (-0.31757 -0.0326299 0)
  (-0.290855 0.00393067 0)
  (-0.25108 0.0384032 0)
  (-0.198522 0.071694 0)
  (-0.135568 0.101225 0)
  (-0.0675412 0.11751 0)
  (0.00905027 0.0946604 0)
  (0.0714304 0.0251154 0)
  (0.104822 -0.0342491 0)
  (0.112554 -0.0705317 0)
  (0.109471 -0.0891196 0)
  (0.102699 -0.0927394 0)
  (0.0958971 -0.0899912 0)
  (0.0905917 -0.0855349 0)
  (0.0869194 -0.0814542 0)
  (0.0844249 -0.0783982 0)
  (0.0825754 -0.0763456 0)
  (0.0809835 -0.0750255 0)
  (0.0794735 -0.0741203 0)
  (0.078076 -0.0733474 0)
  (0.0770024 -0.0724898 0)
  (0.0766223 -0.0714004 0)
  (0.077166 -0.06998 0)
  (0.0787141 -0.068447 0)
  (0.081352 -0.067634 0)
  (0.0844829 -0.0681437 0)
  (0.0867786 -0.0697274 0)
  (0.087491 -0.0719676 0)
  (0.0849306 -0.073179 0)
  (0.106399 -0.0802133 0)
  (-0.00511497 -0.127544 0)
  (0.565084 0.214153 0)
  (0.22675 -0.211964 0)
  (-0.185404 0.291085 0)
  (-0.0217785 0.134832 0)
  (-0.185772 0.18827 0)
  (-0.247051 0.218089 0)
  (-0.289785 0.230948 0)
  (-0.314526 0.233305 0)
  (-0.322224 0.226601 0)
  (-0.311955 0.214515 0)
  (-0.283158 0.210406 0)
  (-0.236409 0.212199 0)
  (-0.173439 0.219054 0)
  (-0.0992121 0.229923 0)
  (-0.0110461 0.240374 0)
  (0.0807791 0.233487 0)
  (0.139113 0.229871 0)
  (0.171012 0.238249 0)
  (0.180642 0.250279 0)
  (0.178628 0.257167 0)
  (0.172576 0.253573 0)
  (0.166315 0.24545 0)
  (0.160254 0.237105 0)
  (0.154231 0.230584 0)
  (0.148272 0.226419 0)
  (0.142514 0.224363 0)
  (0.137097 0.223847 0)
  (0.13214 0.224221 0)
  (0.127741 0.224897 0)
  (0.123972 0.225408 0)
  (0.120857 0.225404 0)
  (0.118321 0.224556 0)
  (0.116095 0.222629 0)
  (0.11348 0.219554 0)
  (0.109114 0.215156 0)
  (0.101039 0.209209 0)
  (0.0865959 0.2016 0)
  (0.060641 0.191025 0)
  (0.117717 0.181464 0)
  (-0.353512 0.33069 0)
)
;

boundaryField
{
  floor
  {
    type noSlip;
  }
  ceiling
  {
    type noSlip;
  }
  sWall
  {
    type noSlip;
  }
  nWall
  {
    type noSlip;
  }
  sideWalls
  {
    type empty;
  }
  glass1
  {
    type noSlip;
  }
  glass2
  {
    type noSlip;
  }
  sun
  {
    type noSlip;
  }
  heatsource1
  {
    type noSlip;
  }
  heatsource2
  {
    type noSlip;
  }
  Table_master
  {
    type noSlip;
  }
  Table_slave
  {
    type noSlip;
  }
  inlet
  {
    type fixedValue;
    value uniform (0.1 0 0);
  }
  outlet
  {
    type zeroGradient;
  }
} 	// ************************************************************************* //

