/*--------------------------------*- C++ -*----------------------------------*\
  =========                 |
  \\      /  F ield         | OpenFOAM: The Open Source CFD Toolbox
   \\    /   O peration     | Website:  https://openfoam.org
    \\  /    A nd           | Version:  6
     \\/     M anipulation  |
\*---------------------------------------------------------------------------*/
FoamFile
{
    version     2.0;
    format      ascii;
    class       volScalarField;
    location    "600";
    object      alphat;
}
// * * * * * * * * * * * * * * * * * * * * * * * * * * * * * * * * * * * * * //

dimensions      [1 -1 -1 0 0 0 0];

internalField   nonuniform List<scalar> 
459
(
0.000855034
0.000896856
0.000890276
0.000917941
0.000940732
0.000959382
0.000974906
0.000988264
0.0010004
0.00101194
0.00101921
0.001021
0.00101729
0.00101047
0.00100215
0.000701351
0.000651594
0.000615741
0.000590259
0.000570238
0.000552321
0.000534551
0.000517913
0.000502257
0.000487376
0.000473166
0.000459534
0.00044636
0.000433432
0.000420368
0.000406568
0.000390856
0.000377497
0.0003474
0.00126958
0.00204498
0.00176124
0.00201935
0.00216211
0.00231306
0.00246214
0.00259627
0.00269661
0.00274669
0.00275579
0.00269377
0.00251856
0.00217451
0.00160936
0.00101556
0.000939208
0.000804356
0.00107748
0.00125858
0.00140643
0.00150365
0.00152284
0.00137772
0.00127755
0.0011918
0.0011159
0.00104661
0.000981709
0.000918223
0.000851441
0.000777327
0.000709927
0.000654451
0.000766028
0.000430668
0.00164847
0.0029764
0.00193976
0.0027755
0.00297829
0.00312393
0.00323313
0.00331465
0.00337525
0.00341104
0.0034295
0.00340303
0.00329766
0.00307704
0.00269433
0.00207301
0.00108228
0.000887578
0.00163835
0.00197772
0.00217212
0.00225178
0.00205509
0.000616768
0.000561127
0.000517686
0.000483417
0.00045594
0.000433555
0.000415225
0.000400632
0.00039058
0.000447054
0.000533193
0.000871959
0.0004952
0.00204492
0.00443439
0.00184748
0.00307828
0.00337356
0.00347352
0.00351318
0.00352652
0.00353821
0.00355629
0.00358182
0.00359054
0.00355245
0.00344155
0.00322923
0.00285453
0.00214616
0.00103985
0.0020757
0.00240307
0.00249075
0.0025481
0.00256433
0.00229464
0.00065253
0.000630558
0.000622873
0.000618646
0.000611083
0.000596008
0.000578364
0.000557856
0.000530933
0.000509667
0.000535549
0.00100881
0.000549113
0.00245895
0.0064576
0.00217368
0.00292875
0.00351592
0.00360803
0.00359994
0.00356096
0.00353655
0.00355143
0.00359744
0.00364817
0.00365978
0.00359654
0.00343036
0.00317645
0.00295404
0.00286466
0.00271874
0.00265428
0.00256749
0.00254844
0.00257952
0.00259438
0.00243054
0.00243897
0.00247233
0.00248541
0.00245724
0.00237394
0.00217169
0.00188156
0.00153666
0.00116523
0.000878017
0.000973983
0.000681587
0.000721728
0.000862758
0.000956948
0.00289115
0.00870021
0.00370576
0.00252093
0.00330643
0.00357354
0.00362087
0.00357816
0.00350977
0.00348852
0.00356943
0.00366657
0.0037215
0.00369167
0.00352348
0.00319328
0.00281855
0.00272023
0.00276175
0.00265851
0.00250574
0.00244871
0.00249855
0.00260301
0.00271351
0.00282855
0.00291833
0.00296908
0.00297454
0.00293248
0.00280555
0.00256245
0.00220477
0.00175477
0.00133622
0.00104045
0.000852358
0.000794565
0.00120466
0.000993561
0.00333822
0.0105732
0.00693971
0.00348096
0.00266484
0.00279797
0.00314586
0.00341499
0.00353442
0.00346468
0.00357963
0.00369009
0.00375737
0.00374432
0.00358282
0.00320625
0.00270471
0.0025788
0.00275554
0.00263906
0.00245212
0.00238943
0.00244866
0.00256735
0.00270394
0.00283459
0.002939
0.00300823
0.0030454
0.00305675
0.00304298
0.00287932
0.00255486
0.00212436
0.00172202
0.00136124
0.00113729
0.00109662
0.00118547
0.0010694
0.00346068
0.0106818
0.00867084
0.00670299
0.00490017
0.00376785
0.00334648
0.00338149
0.00356206
0.00362683
0.00368529
0.00374669
0.00378612
0.00375693
0.00357823
0.00315848
0.00257333
0.00244728
0.00275079
0.00262434
0.0024173
0.00235365
0.00240148
0.00249442
0.00259732
0.00269315
0.00277397
0.00284015
0.0029015
0.00297296
0.00306973
0.00314793
0.00287996
0.00251055
0.00221256
0.00210322
0.00226081
0.00289052
0.00397844
0.00175073
0.00340464
0.00416577
0.00468736
0.00486438
0.00472164
0.00436297
0.00402583
0.0038276
0.00373675
0.00371353
0.00374007
0.00377986
0.00379051
0.00372091
0.00348855
0.00298994
0.00231706
0.00226123
0.0027566
0.00259785
0.0023617
0.00227917
0.00229342
0.00234105
0.00239275
0.002435
0.00246102
0.00246819
0.0024562
0.00242513
0.00237532
0.00230871
0.0022423
0.00220891
0.00224226
0.0023312
0.00239774
0.00236106
0.00222694
0.00162926
0.00250864
0.00420686
0.0045655
0.00453181
0.00439347
0.00426279
0.00416911
0.00408628
0.00400479
0.00390545
0.00376437
0.00355012
0.00319372
0.00259195
0.00186956
0.00198976
0.0027615
0.00252414
0.0022483
0.00213813
0.00211642
0.00212591
0.00214431
0.00216154
0.00217246
0.00217564
0.00217322
0.00217087
0.00217737
0.00220258
0.00223945
0.00229129
0.00235494
0.00240078
0.0023765
0.00225511
0.00204255
0.00133433
0.00266292
0.00482958
0.00507573
0.00492711
0.00474829
0.00455601
0.00435564
0.00414825
0.00386034
0.00352704
0.00317102
0.00279722
0.00237782
0.00184337
0.00125589
0.00154041
0.00206199
0.00189856
0.00170417
0.00162336
0.00160686
0.00162438
0.00166568
0.00172613
0.00180227
0.00189037
0.00198545
0.00208027
0.00216486
0.00225993
0.00236469
0.00247654
0.00258447
0.00267334
0.0026954
0.0027726
0.00260711
0.00134995
0.00231333
0.00244057
0.00254704
0.00270255
0.00255601
0.00236128
0.00218654
0.00202603
0.00187055
0.00171963
0.00159161
0.00147503
0.00136204
0.00124779
0.0011279
0.000991274
0.000671315
0.000621837
0.00063301
0.00063747
0.000647746
0.000665659
0.000688573
0.000715102
0.000744629
0.000776848
0.000811686
0.000849337
0.000890394
0.0009361
0.000988712
0.00104654
0.00111036
0.00118112
0.00125979
0.00136132
0.0013985
0.00137147
0.00128452
0.00119117
)
;

boundaryField
{
    floor
    {
        type            compressible::alphatWallFunction;
        Prt             0.85;
        value           nonuniform List<scalar> 
29
(
0.000142584
9.93914e-05
9.205e-05
8.6718e-05
8.29053e-05
7.98955e-05
7.71909e-05
7.44977e-05
7.19658e-05
6.9574e-05
6.72921e-05
6.51046e-05
6.29985e-05
6.09555e-05
5.89434e-05
5.69023e-05
5.47372e-05
5.22608e-05
5.01452e-05
4.53432e-05
4.53426e-05
5.85104e-05
6.84895e-05
7.6701e-05
0.000142583
9.93903e-05
0.000114392
0.000126345
0.00014788
)
;
    }
    ceiling
    {
        type            compressible::alphatWallFunction;
        Prt             0.85;
        value           nonuniform List<scalar> 
43
(
0.000317534
0.000333801
0.000347347
0.000367123
0.000348617
0.000323826
0.000301383
0.000280592
0.00026028
0.000240384
0.000223357
0.00020772
0.00019243
0.000176826
0.000160273
0.000141163
9.51064e-05
8.7738e-05
8.94024e-05
9.00659e-05
9.15909e-05
9.4243e-05
9.76234e-05
0.00010152
0.000105837
0.000110524
0.000115566
0.000120986
0.000126864
0.000133371
0.000140814
0.000148942
0.000157854
0.000167664
0.000178494
0.000192358
0.000197405
0.000193737
0.000181883
0.000169057
0.000454836
0.000547576
0.000361937
)
;
    }
    sWall
    {
        type            compressible::alphatWallFunction;
        Prt             0.85;
        value           uniform 0.000316317;
    }
    nWall
    {
        type            compressible::alphatWallFunction;
        Prt             0.85;
        value           nonuniform List<scalar> 6(0.000135989 0.000141156 0.000151793 0.000188341 0.000190467 0.000168717);
    }
    sideWalls
    {
        type            empty;
    }
    glass1
    {
        type            compressible::alphatWallFunction;
        Prt             0.85;
        value           nonuniform List<scalar> 9(0.000118281 0.000175361 0.000225831 0.000277397 0.0003302 0.000384391 0.000439606 0.000454729 0.000448083);
    }
    glass2
    {
        type            compressible::alphatWallFunction;
        Prt             0.85;
        value           nonuniform List<scalar> 2(0.00024258 0.000226604);
    }
    sun
    {
        type            compressible::alphatWallFunction;
        Prt             0.85;
        value           nonuniform List<scalar> 
14
(
0.000121704
0.000127668
0.000126729
0.000130671
0.000133908
0.00013655
0.000138745
0.00014063
0.00014234
0.000143964
0.000144985
0.000145236
0.000144714
0.000143755
)
;
    }
    heatsource1
    {
        type            compressible::alphatWallFunction;
        Prt             0.85;
        value           nonuniform List<scalar> 3(0.000102505 0.000122927 0.000136342);
    }
    heatsource2
    {
        type            compressible::alphatWallFunction;
        Prt             0.85;
        value           nonuniform List<scalar> 4(0.000144607 0.000133825 0.000133824 0.00015395);
    }
    Table_master
    {
        type            compressible::alphatWallFunction;
        Prt             0.85;
        value           nonuniform List<scalar> 9(8.6996e-05 7.86436e-05 7.20513e-05 6.6802e-05 6.25592e-05 5.90785e-05 5.62113e-05 5.39171e-05 5.23305e-05);
    }
    Table_slave
    {
        type            compressible::alphatWallFunction;
        Prt             0.85;
        value           nonuniform List<scalar> 9(9.23145e-05 8.90508e-05 8.79059e-05 8.72754e-05 8.61463e-05 8.38904e-05 8.12411e-05 7.81493e-05 7.40687e-05);
    }
    inlet
    {
        type            fixedValue;
        value           uniform 1.94e-05;
    }
    outlet
    {
        type            zeroGradient;
    }
}


// ************************************************************************* //
