/*--------------------------------*- C++ -*----------------------------------*\
  =========                 |
  \\      /  F ield         | OpenFOAM: The Open Source CFD Toolbox
   \\    /   O peration     | Website:  https://openfoam.org
    \\  /    A nd           | Version:  6
     \\/     M anipulation  |
\*---------------------------------------------------------------------------*/
FoamFile
{
    version     2.0;
    format      ascii;
    class       volScalarField;
    location    "500";
    object      alphat;
}
// * * * * * * * * * * * * * * * * * * * * * * * * * * * * * * * * * * * * * //

dimensions      [1 -1 -1 0 0 0 0];

internalField   nonuniform List<scalar> 
459
(
0.000855337
0.000902494
0.000861463
0.000860073
0.000861034
0.00086178
0.000853495
0.000843933
0.00083781
0.000836527
0.000839873
0.000846718
0.000855405
0.000863458
0.000864647
0.000328048
0.000294034
0.000257754
0.00021969
0.000195897
0.000197877
0.000208049
0.000221263
0.000239192
0.000258683
0.000278898
0.000302077
0.000319943
0.000312391
0.000305944
0.000308135
0.000301848
0.000312571
0.00028181
0.00134458
0.0032761
0.00317877
0.00344824
0.00363758
0.0037852
0.0040087
0.00403864
0.00391727
0.00374084
0.00354903
0.00333268
0.00304296
0.00258538
0.00184708
0.000962721
0.00059737
0.000451819
0.0011536
0.00103342
0.000815735
0.000563258
0.00039248
0.000327618
0.000380616
0.000512451
0.000687359
0.000863026
0.00100422
0.00106059
0.0010162
0.000985285
0.00123128
0.00114335
0.0011666
0.00045213
0.00169802
0.00541123
0.00529264
0.00544258
0.00498127
0.00457288
0.00501747
0.00549782
0.00560635
0.0054583
0.0052105
0.00491022
0.00452366
0.00395471
0.0030986
0.00201998
0.00102814
0.00070737
0.00200509
0.00179314
0.00140937
0.00103531
0.000696174
0.000330124
0.000362404
0.000402456
0.000442404
0.00048484
0.000532497
0.000589283
0.000662913
0.000771976
0.00206375
0.00215027
0.00238522
0.000762457
0.00181217
0.00330188
0.00382005
0.00459685
0.00538425
0.00544714
0.00523297
0.00579175
0.00634892
0.00648859
0.00642202
0.00627514
0.00604448
0.0056359
0.00489363
0.00367958
0.00212475
0.00102658
0.00253091
0.00275131
0.00222973
0.00172308
0.00131603
0.00100059
0.000772392
0.000779824
0.000788785
0.000800358
0.000816697
0.000840023
0.000873264
0.000921397
0.000994388
0.00260534
0.00257844
0.00239076
0.000967951
0.00322069
0.00300944
0.00307647
0.00357623
0.0045204
0.0052567
0.00519472
0.00552185
0.00636541
0.00687555
0.00710611
0.00726104
0.00738686
0.00745647
0.00740414
0.00715541
0.00668375
0.00609507
0.005812
0.00540309
0.00505153
0.00481175
0.00465664
0.00453166
0.00439937
0.00430236
0.00420083
0.00409229
0.00397954
0.00386605
0.00375443
0.00364476
0.00352927
0.00338383
0.00298006
0.00247512
0.00193817
0.00129664
0.00132798
0.00122833
0.00385862
0.00365942
0.00321906
0.00327304
0.00402422
0.00489948
0.00512794
0.00513272
0.00589761
0.00660427
0.00705569
0.00747009
0.00787983
0.00825717
0.00855223
0.00869387
0.00861602
0.00831746
0.00793144
0.00757166
0.00728608
0.00706506
0.00688874
0.00673442
0.00658509
0.00643331
0.00627518
0.00610907
0.0059354
0.00575551
0.00557083
0.00538288
0.00519265
0.0049974
0.00479134
0.00459975
0.00446137
0.00441528
0.00442818
0.00154714
0.00447982
0.0045994
0.00370354
0.00322556
0.00381044
0.00476166
0.00509985
0.00500789
0.00530169
0.00590636
0.00635809
0.00690853
0.00754112
0.00818185
0.00876577
0.00921505
0.00944745
0.00943896
0.0092676
0.00903763
0.00880802
0.00859511
0.00840029
0.0082185
0.00804122
0.0078608
0.00767281
0.00747458
0.00726569
0.00704757
0.00682328
0.00659817
0.00638036
0.00617825
0.00599566
0.00583469
0.00571515
0.00577173
0.00633816
0.00180054
0.00520168
0.00594473
0.00527025
0.0033681
0.00397196
0.00506085
0.00535409
0.00518664
0.00515019
0.00526099
0.00549751
0.00596918
0.00662967
0.00740452
0.00821349
0.00895104
0.00949335
0.0097821
0.00986737
0.00982542
0.0097154
0.00956983
0.00940853
0.00924105
0.00906905
0.00888914
0.00869703
0.00848939
0.00826467
0.00802299
0.007766
0.00749752
0.00722421
0.00695507
0.00670152
0.00648555
0.00635906
0.00642586
0.0071715
0.00202834
0.00623902
0.00796385
0.0131047
0.00438157
0.00398285
0.00547951
0.0057461
0.00539994
0.00519023
0.0051127
0.00529953
0.00569781
0.00623982
0.00689154
0.00762658
0.00837747
0.00903284
0.00951705
0.00982082
0.00997704
0.010027
0.0100003
0.00992471
0.00981845
0.00969139
0.00954572
0.00938035
0.00919381
0.00898508
0.00875363
0.00849946
0.00822353
0.00792814
0.0076168
0.00729492
0.00697685
0.0067101
0.00662446
0.00691228
0.00197588
0.02195
0.0121853
0.0040701
0.00547368
0.00583403
0.0057101
0.00565149
0.00576151
0.00609227
0.0065944
0.00718505
0.00778609
0.00834125
0.00883331
0.00924718
0.00959039
0.00986164
0.0100612
0.0101936
0.0102585
0.0102713
0.0102437
0.0101813
0.0100873
0.0099645
0.00981574
0.00964262
0.0094455
0.00922369
0.00897591
0.008701
0.00839856
0.00806905
0.0077128
0.00732733
0.00689133
0.00614049
0.0018009
0.00905477
0.0121195
0.00811813
0.00625647
0.00549731
0.00525798
0.00536973
0.00577094
0.00641287
0.00721328
0.00805352
0.00881012
0.00935951
0.0097196
0.00994697
0.0100966
0.0102021
0.0102806
0.0103407
0.0103854
0.0104155
0.0104289
0.0104117
0.0103607
0.010282
0.0101815
0.0100631
0.00992857
0.00977759
0.00960844
0.0094181
0.00920208
0.00895355
0.00866172
0.00830553
0.00781278
0.00663
0.00213345
0.00128635
0.0017409
0.00520835
0.00481505
0.0042908
0.00380114
0.00340324
0.00308428
0.00282879
0.00263029
0.00248707
0.00239824
0.00235859
0.00235581
0.00237872
0.00240594
0.00242663
0.00243721
0.00243879
0.00243376
0.00242439
0.0024126
0.00239934
0.00238514
0.0023713
0.00235756
0.00234307
0.0023275
0.00231084
0.00229316
0.00227453
0.00225492
0.00223423
0.00221219
0.00218819
0.00216111
0.0021289
0.0020853
0.00197287
0.0017091
)
;

boundaryField
{
    floor
    {
        type            compressible::alphatWallFunction;
        Prt             0.85;
        value           nonuniform List<scalar> 
29
(
0.000123295
4.22993e-05
3.67643e-05
3.07576e-05
2.43335e-05
2.02386e-05
2.05835e-05
2.23459e-05
2.4612e-05
2.76551e-05
3.09248e-05
3.42783e-05
3.80831e-05
4.09915e-05
3.97617e-05
3.87094e-05
3.9066e-05
3.80377e-05
3.97818e-05
3.4745e-05
3.47444e-05
6.19767e-05
0.000108504
0.000138001
0.000123293
4.22987e-05
6.19101e-05
0.000100411
0.000146247
)
;
    }
    ceiling
    {
        type            compressible::alphatWallFunction;
        Prt             0.85;
        value           nonuniform List<scalar> 
43
(
0.000182747
0.000243857
0.000672541
0.000625923
0.000563187
0.000503896
0.00045515
0.000415653
0.000383708
0.00035868
0.000340497
0.000329161
0.000324083
0.000323719
0.00032664
0.000330108
0.00033274
0.00033408
0.000334272
0.00033362
0.000332415
0.000330903
0.000329201
0.000327377
0.0003256
0.000323835
0.000321971
0.000319969
0.000317825
0.000315549
0.000313149
0.000310622
0.000307954
0.000305107
0.000302006
0.000298503
0.00029433
0.00028867
0.000274034
0.000239332
0.000792993
0.00099055
0.00111348
)
;
    }
    sWall
    {
        type            compressible::alphatWallFunction;
        Prt             0.85;
        value           uniform 0.000182006;
    }
    nWall
    {
        type            compressible::alphatWallFunction;
        Prt             0.85;
        value           nonuniform List<scalar> 6(0.000174191 0.000217448 0.000251111 0.000251259 0.000294688 0.000239125);
    }
    sideWalls
    {
        type            empty;
    }
    glass1
    {
        type            compressible::alphatWallFunction;
        Prt             0.85;
        value           nonuniform List<scalar> 9(0.000119451 0.000186934 0.000234035 0.000249135 0.000430185 0.000508555 0.000583428 0.000669134 0.000790325);
    }
    glass2
    {
        type            compressible::alphatWallFunction;
        Prt             0.85;
        value           nonuniform List<scalar> 2(0.00028139 0.000274597);
    }
    sun
    {
        type            compressible::alphatWallFunction;
        Prt             0.85;
        value           nonuniform List<scalar> 
14
(
0.000121961
0.000128696
0.00012283
0.000122632
0.00012277
0.000122878
0.000121692
0.00012032
0.000119441
0.000119257
0.000119739
0.000120723
0.00012197
0.000123125
)
;
    }
    heatsource1
    {
        type            compressible::alphatWallFunction;
        Prt             0.85;
        value           nonuniform List<scalar> 3(0.000183498 0.00018777 0.000174121);
    }
    heatsource2
    {
        type            compressible::alphatWallFunction;
        Prt             0.85;
        value           nonuniform List<scalar> 4(0.000137161 8.40892e-05 8.40882e-05 0.000146377);
    }
    Table_master
    {
        type            compressible::alphatWallFunction;
        Prt             0.85;
        value           nonuniform List<scalar> 9(4.26542e-05 4.78398e-05 5.41925e-05 6.04468e-05 6.70115e-05 7.42973e-05 8.28731e-05 9.38418e-05 0.000109821);
    }
    Table_slave
    {
        type            compressible::alphatWallFunction;
        Prt             0.85;
        value           nonuniform List<scalar> 9(0.000109876 0.000110954 0.000112252 0.000113926 0.000116285 0.000119643 0.00012441 0.000131276 0.000141607);
    }
    inlet
    {
        type            fixedValue;
        value           uniform 1.94e-05;
    }
    outlet
    {
        type            zeroGradient;
    }
}


// ************************************************************************* //
