/*--------------------------------*- C++ -*----------------------------------*\
  =========                 |
  \\      /  F ield         | OpenFOAM: The Open Source CFD Toolbox
   \\    /   O peration     | Website:  https://openfoam.org
    \\  /    A nd           | Version:  6
     \\/     M anipulation  |
\*---------------------------------------------------------------------------*/
FoamFile
{
    version     2.0;
    format      ascii;
    class       volScalarField;
    location    "160";
    object      alphat;
}
// * * * * * * * * * * * * * * * * * * * * * * * * * * * * * * * * * * * * * //

dimensions      [1 -1 -1 0 0 0 0];

internalField   nonuniform List<scalar> 
459
(
0.00167146
0.00205232
0.00205118
0.00195513
0.00185086
0.00175559
0.00167
0.00159377
0.00152357
0.00145687
0.0013913
0.00132422
0.00125189
0.00116723
0.0010692
0.000721272
0.000926076
0.000984235
0.000992663
0.000950633
0.000901975
0.000842916
0.000785809
0.000735015
0.00069047
0.000651267
0.000616454
0.000585366
0.000557159
0.000530496
0.00050378
0.000476301
0.000437776
0.00044582
0.00191873
0.00589859
0.00502311
0.00450306
0.0041707
0.00396648
0.00382829
0.00368054
0.00351472
0.0033194
0.00308002
0.00278171
0.00241463
0.0019754
0.0015068
0.00103945
0.000919815
0.00109928
0.00318229
0.00268722
0.00273897
0.0028775
0.00283599
0.00220108
0.00187168
0.00164713
0.00148251
0.00135745
0.00126026
0.00117539
0.00108544
0.00098682
0.000897558
0.000899816
0.000854666
0.000573424
0.00196485
0.00661034
0.00485707
0.004319
0.00411038
0.00413334
0.00425435
0.00434323
0.00434201
0.00422457
0.00398284
0.00362044
0.00315274
0.00260714
0.00203821
0.00150927
0.000932228
0.00115422
0.00326562
0.00275391
0.002969
0.00334167
0.00332985
0.00110959
0.000978003
0.000868242
0.000777979
0.000704018
0.000643452
0.000594407
0.00055621
0.000528927
0.000594167
0.000801378
0.00105278
0.000661947
0.00193516
0.00599912
0.00422275
0.00415669
0.00418722
0.00450737
0.00481933
0.0049601
0.00494605
0.00479021
0.00450532
0.00410739
0.0036174
0.00306466
0.00248389
0.00191814
0.00130472
0.000933728
0.00161082
0.00210572
0.0029229
0.00379628
0.00443426
0.00433938
0.00120866
0.00111287
0.00103612
0.000968982
0.0009052
0.000841081
0.000774104
0.000701866
0.000618132
0.000581114
0.000755991
0.00125877
0.000770678
0.00192604
0.00493169
0.00383259
0.00447739
0.00484242
0.00535917
0.00547596
0.00544716
0.0053383
0.00513791
0.00484487
0.00446702
0.00401561
0.00352456
0.00302013
0.00254749
0.00213695
0.0021409
0.00277855
0.00382194
0.00488359
0.00570474
0.00619027
0.0062644
0.00548892
0.00499291
0.00448037
0.0039434
0.00338955
0.00282736
0.00226336
0.00170648
0.00115361
0.000797954
0.000821928
0.0012612
0.00109772
0.000855334
0.000957811
0.001398
0.00190026
0.00408106
0.00352397
0.00455378
0.0051687
0.0058273
0.00596045
0.00588128
0.00574793
0.00556578
0.00532957
0.00503694
0.00467406
0.00431301
0.00398213
0.00377101
0.00377256
0.00441742
0.00546196
0.00643047
0.00715479
0.00757953
0.00772745
0.00763764
0.00728605
0.00675264
0.00606296
0.00528201
0.00445664
0.00362176
0.0028036
0.00203227
0.00140313
0.0011353
0.00118042
0.00135199
0.00131496
0.00139836
0.00208392
0.00187946
0.00186152
0.00343474
0.00320897
0.00481225
0.00542456
0.00599211
0.0062428
0.0062293
0.00616097
0.0060681
0.00595295
0.00581789
0.00566962
0.00553986
0.00549246
0.00564774
0.00611011
0.00700098
0.00783252
0.00838365
0.00865183
0.00866049
0.00846944
0.00813253
0.00764094
0.00700215
0.00625489
0.00543047
0.00457367
0.00373745
0.00298316
0.00238361
0.00202357
0.00195943
0.00203471
0.00201824
0.00167198
0.0020514
0.00385622
0.00255014
0.00179692
0.00275198
0.00271703
0.00517059
0.00604944
0.00624238
0.0063036
0.00627814
0.00627082
0.00627688
0.006299
0.00634169
0.0064148
0.00654639
0.00678551
0.00720328
0.00780673
0.00847939
0.00892286
0.00905952
0.00892731
0.00856529
0.00801965
0.00741534
0.00680851
0.00618847
0.0055431
0.00488105
0.0042422
0.0036861
0.00327857
0.00307482
0.00309258
0.00326393
0.0033858
0.00328826
0.00264346
0.00288899
0.00690994
0.00350908
0.00165502
0.00166267
0.00188719
0.00526239
0.00693294
0.00700901
0.00694303
0.00691942
0.00693772
0.00696678
0.00701684
0.00709622
0.0072125
0.00738392
0.00763545
0.00797701
0.00835838
0.00864805
0.00870086
0.00848098
0.00803075
0.00745033
0.0068532
0.00629832
0.00580991
0.00538319
0.00501057
0.00470067
0.00447975
0.00438021
0.00442771
0.00462727
0.004943
0.00527056
0.00544756
0.00534443
0.00469255
0.00462827
0.00915953
0.00393617
0.0012342
0.00476049
0.00777799
0.00826883
0.0084202
0.00850647
0.00856694
0.0085987
0.00862492
0.00865201
0.0086813
0.0087143
0.00875649
0.00880319
0.00882214
0.00876187
0.00858971
0.00832007
0.00799506
0.00765832
0.00734081
0.00705856
0.00681783
0.0066229
0.00648196
0.00640888
0.00642137
0.00653609
0.00676144
0.00708643
0.00746445
0.00779789
0.00793938
0.00776632
0.00726924
0.00709747
0.00956334
0.00332692
0.00285966
0.00820013
0.00934967
0.00971503
0.00985975
0.00996391
0.0100378
0.0100716
0.0100724
0.0100462
0.0099985
0.00993399
0.00985999
0.00978345
0.00970516
0.0096173
0.00950705
0.00936978
0.00921325
0.00905059
0.00889162
0.00874239
0.00860929
0.00850143
0.00843073
0.00841113
0.00845751
0.00858386
0.00879919
0.0090988
0.00944747
0.0097547
0.00985605
0.00959516
0.00900091
0.00831265
0.00742591
0.00277332
0.00144778
0.00150083
0.00200043
0.00225537
0.0023093
0.00232998
0.00234858
0.00235874
0.00236286
0.00236342
0.00236155
0.00235847
0.00235513
0.00235275
0.00235192
0.00235219
0.0023521
0.00234966
0.0023438
0.00233493
0.00232434
0.00231336
0.00230304
0.00229419
0.00228751
0.00228375
0.00228374
0.00228837
0.00229848
0.00231462
0.00233643
0.00236166
0.00238462
0.00239545
0.00238798
0.00237667
0.00239882
0.00248072
0.0025393
0.00229697
)
;

boundaryField
{
    floor
    {
        type            compressible::alphatWallFunction;
        Prt             0.85;
        value           nonuniform List<scalar> 
29
(
0.000152433
0.00010276
0.000132299
0.000140532
0.000141719
0.000135777
0.00012886
0.000120404
0.00011216
0.000104767
9.82321e-05
9.24385e-05
8.72576e-05
8.26008e-05
7.83486e-05
7.43047e-05
7.02269e-05
6.60044e-05
6.00318e-05
6.12919e-05
6.12911e-05
8.08248e-05
9.40484e-05
0.000109998
0.000152431
0.000102759
0.000156674
0.000164299
0.000133356
)
;
    }
    ceiling
    {
        type            compressible::alphatWallFunction;
        Prt             0.85;
        value           nonuniform List<scalar> 
43
(
0.000204508
0.000211649
0.00027774
0.000310744
0.000317677
0.000320331
0.000322714
0.000324015
0.000324542
0.000324614
0.000324375
0.00032398
0.000323553
0.000323248
0.000323142
0.000323178
0.000323167
0.000322855
0.000322105
0.000320968
0.000319612
0.000318204
0.000316879
0.000315743
0.000314885
0.000314402
0.0003144
0.000314993
0.000316291
0.00031836
0.000321156
0.000324387
0.000327322
0.000328706
0.00032775
0.000326304
0.000329133
0.000339577
0.000347025
0.000316086
0.000232114
0.000233123
0.00038744
)
;
    }
    sWall
    {
        type            compressible::alphatWallFunction;
        Prt             0.85;
        value           uniform 0.000204504;
    }
    nWall
    {
        type            compressible::alphatWallFunction;
        Prt             0.85;
        value           nonuniform List<scalar> 6(0.000197839 0.000262006 0.000348497 0.000445692 0.000376701 0.000316176);
    }
    sideWalls
    {
        type            empty;
    }
    glass1
    {
        type            compressible::alphatWallFunction;
        Prt             0.85;
        value           nonuniform List<scalar> 9(0.0002352 0.000267897 0.000273932 0.000270029 0.000268815 0.000265401 0.000260255 0.000251662 0.000232746);
    }
    glass2
    {
        type            compressible::alphatWallFunction;
        Prt             0.85;
        value           nonuniform List<scalar> 2(0.000471284 0.000523613);
    }
    sun
    {
        type            compressible::alphatWallFunction;
        Prt             0.85;
        value           nonuniform List<scalar> 
14
(
0.000234345
0.000284377
0.000284232
0.00027172
0.000258061
0.000245506
0.000234162
0.000224006
0.000214604
0.000205625
0.000196755
0.000187631
0.000177735
0.000166067
)
;
    }
    heatsource1
    {
        type            compressible::alphatWallFunction;
        Prt             0.85;
        value           nonuniform List<scalar> 3(0.000121874 0.000136475 0.00019736);
    }
    heatsource2
    {
        type            compressible::alphatWallFunction;
        Prt             0.85;
        value           nonuniform List<scalar> 4(0.00014797 0.000131077 0.000131075 0.000132839);
    }
    Table_master
    {
        type            compressible::alphatWallFunction;
        Prt             0.85;
        value           nonuniform List<scalar> 9(0.000157756 0.000139312 0.000123705 0.000110697 9.99028e-05 9.09618e-05 8.36462e-05 7.7897e-05 7.37605e-05);
    }
    Table_slave
    {
        type            compressible::alphatWallFunction;
        Prt             0.85;
        value           nonuniform List<scalar> 9(0.000171478 0.000158216 0.000147495 0.000138042 0.000128989 0.000119812 0.000110136 9.95867e-05 8.71912e-05);
    }
    inlet
    {
        type            fixedValue;
        value           uniform 1.94e-05;
    }
    outlet
    {
        type            zeroGradient;
    }
}


// ************************************************************************* //
