/*--------------------------------*- C++ -*----------------------------------*\
  =========                 |
  \\      /  F ield         | OpenFOAM: The Open Source CFD Toolbox
   \\    /   O peration     | Website:  https://openfoam.org
    \\  /    A nd           | Version:  6
     \\/     M anipulation  |
\*---------------------------------------------------------------------------*/
FoamFile
{
    version     2.0;
    format      ascii;
    class       volScalarField;
    location    "200";
    object      nut;
}
// * * * * * * * * * * * * * * * * * * * * * * * * * * * * * * * * * * * * * //

dimensions      [0 2 -1 0 0 0 0];

internalField   nonuniform List<scalar> 
459
(
0.000761356
0.000785431
0.000735596
0.000763725
0.000792457
0.000819148
0.000844064
0.000867944
0.00089184
0.00091525
0.000933516
0.000944684
0.00094703
0.000939719
0.000920073
0.000550641
0.000686683
0.000584452
0.000553858
0.000535818
0.000478657
0.000412518
0.00034143
0.000273906
0.000217709
0.000177708
0.000160716
0.000159971
0.000175245
0.000281916
0.000381725
0.000419666
0.000414441
0.000377075
0.0012707
0.00219004
0.0016903
0.00216161
0.00234776
0.00254171
0.00274142
0.00292953
0.0030805
0.00318107
0.00323183
0.00319666
0.00301672
0.00260178
0.00186344
0.000969389
0.000671136
0.000670627
0.00242314
0.00198734
0.00175948
0.00150411
0.00118896
0.000714605
0.000470583
0.000371748
0.000327658
0.000309019
0.000306847
0.00028211
0.000229025
0.000365577
0.000896504
0.00107561
0.00123665
0.000511172
0.00171467
0.00350199
0.00178333
0.00306287
0.00341137
0.00359568
0.00374917
0.00387597
0.00397263
0.00403841
0.00406665
0.00402142
0.00384368
0.00344965
0.00276863
0.00187162
0.00101908
0.000873467
0.00271886
0.00230982
0.00192348
0.00155854
0.00122516
0.000419812
0.000294405
0.000243969
0.000218899
0.000204261
0.000193929
0.000185696
0.000206247
0.00051752
0.00142271
0.0012826
0.0010052
0.000555534
0.00213873
0.00520653
0.00190348
0.00329297
0.00395749
0.00411665
0.00420686
0.00427658
0.00433686
0.00438813
0.00444252
0.004482
0.00445995
0.00428628
0.00382688
0.00297952
0.00189044
0.00111067
0.00212766
0.00265219
0.00251961
0.00214217
0.00173097
0.00125435
0.000835446
0.000850127
0.000876763
0.00090271
0.000909987
0.000923903
0.000935274
0.000932066
0.000903394
0.00110151
0.00138696
0.00174029
0.000942067
0.00253855
0.0071481
0.00245368
0.00303665
0.00412542
0.00432038
0.00436905
0.00439339
0.00442014
0.00446136
0.00454208
0.00468531
0.00487956
0.00508391
0.00522363
0.00520849
0.00498377
0.00454414
0.00401306
0.00378996
0.00353686
0.00329219
0.00315673
0.00308928
0.00306759
0.0031246
0.00322865
0.0034715
0.00366012
0.00378462
0.0038252
0.00377482
0.0036262
0.00321039
0.00275862
0.00241325
0.00189426
0.000978063
0.000871027
0.000989676
0.00292026
0.00898565
0.00381134
0.00271394
0.00381176
0.0042258
0.00434482
0.00437148
0.00435824
0.0043412
0.00438492
0.00453414
0.0047866
0.00512362
0.00548508
0.00576084
0.00582006
0.00558868
0.00512522
0.00459394
0.0041218
0.00380611
0.00362434
0.00351305
0.00343037
0.0033638
0.00335797
0.003719
0.00410137
0.00430042
0.00435548
0.00433178
0.00428058
0.00414435
0.0038023
0.00334337
0.00278559
0.00197289
0.00190666
0.0010593
0.00328141
0.0103871
0.00636833
0.00346244
0.00295236
0.00338956
0.00389684
0.00421463
0.00433101
0.00421542
0.00417825
0.0042512
0.0044301
0.00471815
0.0050866
0.0054439
0.00564727
0.00558198
0.00525533
0.00479721
0.00435979
0.0040331
0.00381272
0.00365328
0.00350255
0.00330566
0.0031373
0.00360522
0.00414533
0.00435477
0.00436779
0.00434482
0.004387
0.00450491
0.00447085
0.00414833
0.00367282
0.00310479
0.0026227
0.00128396
0.00336402
0.0104176
0.00816731
0.00624468
0.00458402
0.0036718
0.00358156
0.00390177
0.00423175
0.00412328
0.00401595
0.0039904
0.00405123
0.00419961
0.00443615
0.00473304
0.00499638
0.00508482
0.00495279
0.00468047
0.00437656
0.00411892
0.00392626
0.00379007
0.00366317
0.00335718
0.00294466
0.003579
0.00426833
0.00441994
0.00432731
0.00426573
0.00436429
0.00468131
0.00518361
0.00525787
0.00515161
0.00473126
0.00469635
0.00167011
0.00327358
0.00392463
0.00435065
0.00450386
0.00434919
0.00400245
0.00370288
0.00354607
0.00350003
0.00349704
0.00352659
0.00357864
0.00364842
0.00373775
0.00385632
0.00401337
0.00419218
0.00433414
0.0043842
0.00433861
0.00423782
0.00412301
0.00400611
0.00391939
0.00390661
0.00353463
0.0027296
0.00354887
0.0044927
0.00454606
0.00423786
0.00395698
0.00378265
0.00367033
0.00356159
0.00342961
0.00317001
0.00281978
0.00252577
0.00159003
0.00228456
0.00369875
0.00407848
0.00404743
0.00389841
0.00374958
0.00363465
0.00355061
0.00350009
0.00347269
0.00345777
0.00345241
0.00346446
0.00351055
0.00360493
0.00374111
0.00388732
0.00400882
0.004094
0.00413935
0.00410003
0.00400459
0.00412347
0.00384743
0.00241773
0.00334168
0.00475456
0.00487017
0.00444563
0.00404527
0.00376495
0.00358859
0.00342525
0.00318046
0.00282029
0.00237236
0.00193101
0.00131747
0.00240657
0.00419526
0.00446552
0.00432578
0.00415166
0.00396026
0.00377103
0.00359485
0.00342541
0.00323282
0.00304525
0.00288555
0.00277544
0.0027371
0.00279024
0.00293997
0.00316127
0.00340406
0.00362443
0.0037907
0.00382906
0.00372193
0.00383314
0.00378225
0.00200561
0.00285298
0.00436653
0.00454109
0.00425304
0.00399826
0.00379354
0.00372603
0.00370193
0.0036143
0.0034201
0.00313989
0.00251866
0.00134276
0.00211413
0.00221586
0.00230497
0.0024334
0.00230331
0.00209637
0.00194559
0.00181068
0.0016876
0.0015758
0.00147553
0.00139004
0.00131396
0.00124492
0.00118238
0.00112707
0.00108075
0.00104579
0.00102422
0.00101629
0.00101968
0.00102972
0.00103889
0.00104263
0.0010553
0.00108662
0.00101475
0.00106661
0.001125
0.00113613
0.00114346
0.0011733
0.00123321
0.0013113
0.00140763
0.0015156
0.0015555
0.00151897
0.00140055
0.00128887
)
;

boundaryField
{
    floor
    {
        type            nutkWallFunction;
        Cmu             0.09;
        kappa           0.41;
        E               9.8;
        value           nonuniform List<scalar> 
29
(
0.000111264
6.61575e-05
8.30911e-05
7.04118e-05
6.65678e-05
6.42884e-05
5.70003e-05
4.8428e-05
3.90174e-05
2.98409e-05
2.19732e-05
1.61972e-05
1.36863e-05
1.35709e-05
1.58254e-05
3.09363e-05
4.43803e-05
4.93643e-05
4.86805e-05
4.37638e-05
4.37637e-05
6.116e-05
6.67859e-05
0.000113874
0.000111264
6.61575e-05
8.11226e-05
0.000105714
0.000133642
)
;
    }
    ceiling
    {
        type            nutkWallFunction;
        Cmu             0.09;
        kappa           0.41;
        E               9.8;
        value           nonuniform List<scalar> 
43
(
0.000245644
0.00025662
0.000266193
0.000279999
0.000266114
0.000243822
0.000227423
0.000212632
0.000199033
0.000186586
0.00017534
0.000165686
0.000157038
0.000149143
0.000141948
0.00013555
0.000130164
0.000126082
0.000123556
0.000122625
0.000123024
0.000124202
0.000125275
0.000125713
0.000127202
0.000130861
0.000122449
0.000128512
0.000135309
0.000136601
0.000137451
0.000140901
0.000147799
0.000156736
0.000167679
0.000179846
0.000184317
0.000180225
0.000166878
0.000154177
0.000368464
0.000435201
0.000276988
)
;
    }
    sWall
    {
        type            nutkWallFunction;
        Cmu             0.09;
        kappa           0.41;
        E               9.8;
        value           uniform 0.000245711;
    }
    nWall
    {
        type            nutkWallFunction;
        Cmu             0.09;
        kappa           0.41;
        E               9.8;
        value           nonuniform List<scalar> 6(0.000119499 0.000127664 0.00015362 0.000157454 0.000160335 0.00015419);
    }
    sideWalls
    {
        type            empty;
    }
    glass1
    {
        type            nutkWallFunction;
        Cmu             0.09;
        kappa           0.41;
        E               9.8;
        value           nonuniform List<scalar> 9(9.22041e-05 0.000152286 0.00020236 0.000248852 0.000291781 0.000332101 0.000369747 0.000378308 0.000368966);
    }
    glass2
    {
        type            nutkWallFunction;
        Cmu             0.09;
        kappa           0.41;
        E               9.8;
        value           nonuniform List<scalar> 2(0.000197213 0.000188292);
    }
    sun
    {
        type            nutkWallFunction;
        Cmu             0.09;
        kappa           0.41;
        E               9.8;
        value           nonuniform List<scalar> 
14
(
9.22164e-05
9.51339e-05
8.90825e-05
9.25037e-05
9.59829e-05
9.92017e-05
0.000102195
0.000105055
0.000107907
0.000110693
0.00011286
0.000114183
0.000114461
0.000113595
)
;
    }
    heatsource1
    {
        type            nutkWallFunction;
        Cmu             0.09;
        kappa           0.41;
        E               9.8;
        value           nonuniform List<scalar> 3(0.000118122 0.000105421 0.00011949);
    }
    heatsource2
    {
        type            nutkWallFunction;
        Cmu             0.09;
        kappa           0.41;
        E               9.8;
        value           nonuniform List<scalar> 4(0.000117097 8.11864e-05 8.11864e-05 0.000122944);
    }
    Table_master
    {
        type            nutkWallFunction;
        Cmu             0.09;
        kappa           0.41;
        E               9.8;
        value           nonuniform List<scalar> 9(4.93925e-05 3.26668e-05 2.56986e-05 2.21666e-05 2.00789e-05 1.85928e-05 1.74007e-05 2.03657e-05 6.19772e-05);
    }
    Table_slave
    {
        type            nutkWallFunction;
        Cmu             0.09;
        kappa           0.41;
        E               9.8;
        value           nonuniform List<scalar> 9(0.000101164 0.000102926 0.000106112 0.000109204 0.000110069 0.000111722 0.00011307 0.000112689 0.000109285);
    }
    inlet
    {
        type            calculated;
        value           uniform 0.000100623;
    }
    outlet
    {
        type            calculated;
        value           nonuniform List<scalar> 2(0.00211413 0.00221586);
    }
}


// ************************************************************************* //
