/*--------------------------------*- C++ -*----------------------------------*\
  =========                 |
  \\      /  F ield         | OpenFOAM: The Open Source CFD Toolbox
   \\    /   O peration     | Website:  https://openfoam.org
    \\  /    A nd           | Version:  6
     \\/     M anipulation  |
\*---------------------------------------------------------------------------*/
FoamFile
{
    version     2.0;
    format      ascii;
    class       surfaceScalarField;
    location    "150";
    object      phi;
}
// * * * * * * * * * * * * * * * * * * * * * * * * * * * * * * * * * * * * * //

dimensions      [1 0 -1 0 0 0 0];

internalField   nonuniform List<scalar> 
852
(
-0.00105478
0.00106063
-0.00040257
-0.000652448
0.00146901
-0.00187185
0.00310405
-0.00163527
0.0041341
-0.00103025
0.00469537
-0.000561453
0.00494861
-0.000253414
0.00499741
-4.89609e-05
0.00489938
9.78624e-05
0.00468139
0.000217829
0.00434906
0.000332171
0.00388047
0.000468433
0.00320642
0.000673894
0.0021263
0.00107995
0.00212356
-0.000166056
0.000161743
-0.00023752
7.13386e-05
0.00020266
-0.000440311
0.000753324
-0.000550795
0.00118965
-0.000436452
0.0014816
-0.000292084
0.00164746
-0.00016598
0.00173509
-8.77623e-05
0.0017902
-5.52312e-05
0.0018293
-3.92221e-05
0.00185696
-2.77831e-05
0.00187361
-1.67716e-05
0.00187343
5.24124e-08
0.00183989
3.34251e-05
0.00173621
0.000103554
0.001499
0.000237073
0.00107376
0.000425119
0.000336547
0.000737073
0.000330481
-0.000594229
0.00167182
0.000144777
-0.00139173
0.00134635
-0.00307373
0.00257288
-0.00286203
0.00334824
-0.00180578
0.00374913
-0.000962479
0.00390602
-0.000410426
0.00390619
-4.92585e-05
0.00379561
0.000208312
0.00360654
0.000406754
0.00335603
0.000582541
0.00305063
0.000773687
0.00270511
0.00101926
0.00244019
0.00134471
0.00281107
0.00175252
0.00133584
0.00147501
0.00133564
-6.82388e-05
0.000220187
0.00047231
-0.000469348
0.000894541
-0.000862682
0.00123281
-0.000889206
0.00148923
-0.000693012
0.00164609
-0.000449075
0.00168147
-0.000201489
0.00169387
-0.000100298
0.00170495
-6.64356e-05
0.00171391
-4.83099e-05
0.00172065
-3.46424e-05
0.00172556
-2.18041e-05
0.00172642
-9.30339e-07
0.00171605
4.3673e-05
0.00165732
0.000162155
0.00141938
0.000474891
0.00105184
0.000792518
0.000609383
0.0011794
0.000923655
-0.000308264
0.00200736
0.000164851
-0.00186517
0.000977426
-0.00388663
0.00189072
-0.00377558
0.00237937
-0.00229455
0.00257783
-0.00116103
0.00261657
-0.000449254
0.002566
1.19899e-06
0.00247426
0.000299938
0.00236929
0.000511587
0.00225955
0.000692144
0.00215143
0.000881663
0.00206307
0.00110747
0.00202083
0.0013868
0.00199672
0.00177647
0.00145491
0.00201667
0.0027904
0.000456502
-0.000252032
0.00115123
-0.00116422
0.00153643
-0.00124803
0.00172046
-0.00107339
0.0018217
-0.000794396
0.00186506
-0.00049258
0.00166359
0.00156331
0.0014969
0.00144862
0.00141401
0.00139223
0.00139134
0.00143504
0.00159722
0.00126408
0.000807901
0.00100177
0.0010547
0.000726521
0.00145451
0.00162514
-0.000125742
0.00217042
-3.298e-05
-0.00195824
0.000435949
-0.00435586
0.00105986
-0.00439984
0.0012823
-0.00251714
0.00129076
-0.00116959
0.00122826
-0.000386849
0.00117729
5.20716e-05
0.00116878
0.000308322
0.00118968
0.000490553
0.00122854
0.000653154
0.00128536
0.000824691
0.0013691
0.00102359
0.00149232
0.00126342
0.00170185
0.00156679
0.00201472
0.00170365
0.00309968
0.00170529
0.00256149
0.00052051
0.00276756
-0.000458248
0.00247601
-0.000872826
0.00226064
-0.00103282
0.00211352
-0.000926428
0.00201547
-0.000696506
0.00193956
-0.000416816
0.00204957
-0.00011032
0.00202824
2.10269e-05
0.00193769
9.0236e-05
0.00180227
0.000135122
0.00163035
0.000171616
0.0014228
0.000207244
0.0011741
0.000248401
0.000869205
0.000304593
0.000462211
0.00040669
0.000637721
0.000632247
0.000729568
0.000962709
0.000845612
0.00133832
0.00243892
-9.99401e-05
0.00231919
-0.000420157
-0.00163816
-0.000215512
-0.00456075
0.000159087
-0.00477498
0.000240297
-0.00259863
0.000170034
-0.0010995
0.000110232
-0.000327174
0.000118272
4.39145e-05
0.00018303
0.00024344
0.000284375
0.000389075
0.000413356
0.000524033
0.000571714
0.000666189
0.000770853
0.000824301
0.00103854
0.000995582
0.00143501
0.00117016
0.00193239
0.00120611
0.00254942
0.0010881
0.00274481
0.000324965
0.00262366
-0.000337251
0.00240728
-0.000656612
0.00212848
-0.000754178
0.00187388
-0.000671992
0.00166394
-0.00048673
0.00150076
-0.000253801
0.00140453
-1.42568e-05
0.00127956
0.000145843
0.00113506
0.000234571
0.000978559
0.000291463
0.000810607
0.000339409
0.000627012
0.000390682
0.000424077
0.00045118
0.000216363
0.000512151
9.111e-05
0.000531789
0.000205443
0.00051776
0.000558754
0.00060925
0.00129534
0.000601591
0.00245085
0.00128326
0.00135283
0.00109767
0.000335218
0.00101725
0.000329097
-0.000480302
0.0028628
-0.000889558
-0.00122899
-0.000780772
-0.00466982
-0.000544216
-0.00501212
-0.00045365
-0.00268968
-0.000480696
-0.00107269
-0.00050914
-0.000298877
-0.000491013
2.56598e-05
-0.000424426
0.000176723
-0.000314123
0.000278636
-0.000162498
0.000372267
3.45255e-05
0.00046902
0.000283261
0.000575416
0.000595767
0.000682923
0.000995582
0.000770188
0.00144326
0.000758278
0.00192746
0.000603729
0.00209672
0.000155539
0.00198706
-0.000227756
0.0017654
-0.000435126
0.00148888
-0.000477821
0.00121455
-0.000397841
0.000971976
-0.000244322
0.000766732
-4.8725e-05
0.000609584
0.000142723
0.000480947
0.000274313
0.000356736
0.000358615
0.000226565
0.000421469
8.61671e-05
0.000479644
-6.17702e-05
0.000538458
-0.000197972
0.000587221
-0.000280924
0.000594943
-0.000264241
0.000514948
-0.000110597
0.000363958
0.000175434
0.000323064
0.000477241
0.000299631
0.000841539
0.00091881
0.000642852
0.0012962
0.000180257
0.00147969
0.000501308
-0.000693922
0.00363496
-0.00101839
-0.000904552
-0.000944005
-0.00474443
-0.000727027
-0.00522974
-0.000644478
-0.00277288
-0.000709381
-0.00100808
-0.000783213
-0.000225216
-0.000805415
4.77191e-05
-0.000769171
0.000140338
-0.000681596
0.000190917
-0.000547791
0.000238316
-0.000368685
0.000289764
-0.000138182
0.000344759
0.000146965
0.000397619
0.000481654
0.000435337
0.000825582
0.000414183
0.00112651
0.000302631
0.00120415
7.77228e-05
0.00109526
-0.000119044
0.000882877
-0.000222917
0.000626407
-0.000221527
0.000368336
-0.000139946
0.000133221
-9.38242e-06
-5.2592e-05
0.000136915
-0.000176381
0.000266338
-0.000267297
0.000365056
-0.000351353
0.0004425
-0.000438358
0.000508304
-0.000526104
0.000567222
-0.000601918
0.000614105
-0.000644977
0.000630116
-0.000635365
0.000585168
-0.000576408
0.000455828
-0.000498015
0.000285404
-0.000370666
0.000195552
-0.000264101
0.000192906
7.65527e-06
0.000646896
0.000111837
0.00119186
-0.000109561
0.00170092
0.000381619
0.000118395
0.00360753
-0.0002172
-0.000568793
-0.000156062
-0.00480561
-0.000174883
-0.00521149
-0.000398016
-0.00255056
-0.000731986
-0.00067446
-0.000941116
-1.62918e-05
-0.00102791
0.000134347
-0.00103165
0.000143925
-0.000977828
0.000136937
-0.000879701
0.000140031
-0.000744135
0.00015404
-0.000574478
0.00017494
-0.000374606
0.000197581
-0.000153149
0.00021371
5.57342e-05
0.000205124
0.000199588
0.000158598
0.000206722
7.04083e-05
9.35788e-05
-6.0828e-06
-9.65849e-05
-3.29352e-05
-0.000315293
-3.00082e-06
-0.000520958
6.55388e-05
-0.000681852
0.000151332
-0.000786597
0.00024148
-0.00085034
0.000329902
-0.000893478
0.000408017
-0.00092756
0.000476406
-0.000955169
0.000535738
-0.000970968
0.000582849
-0.00096486
0.000607828
-0.000928314
0.000593401
-0.000864124
0.000520808
-0.000795845
0.000387379
-0.000745386
0.000234773
-0.000683116
0.000133109
-0.000629379
0.000138997
-0.000408092
0.000425444
-0.000148268
0.000931872
0.000302018
0.00125046
0.000649753
0.00368858
0.00309738
0.00212244
-0.00383053
0.000881668
-0.0039711
-0.000214069
-0.00145582
-0.000912419
2.3491e-05
-0.00122707
0.000298124
-0.00134468
0.00025176
-0.00137115
0.000170217
-0.00134826
0.000113872
-0.00129362
8.5221e-05
-0.00121631
7.65518e-05
-0.00112264
8.10953e-05
-0.0010192
9.3962e-05
-0.00091587
0.000110204
-0.0008328
0.000121871
-0.000795581
0.000121194
-0.000829709
0.00010435
-0.000925473
8.94945e-05
-0.00105301
9.44107e-05
-0.00117831
0.000122119
-0.00127776
0.000164803
-0.00134359
0.000216974
-0.0013768
0.000274504
-0.00138186
0.000334773
-0.00136718
0.000393154
-0.00133751
0.000446558
-0.00129335
0.000491402
-0.00123265
0.000521973
-0.00115403
0.000529025
-0.00106119
0.000500393
-0.000966994
0.000426429
-0.00089136
0.000311565
-0.000842063
0.000185292
-0.000802792
9.36539e-05
-0.000759821
9.58441e-05
-0.000617041
0.000282487
-0.000307211
0.00062187
0.000310088
0.000632987
0.000922358
0.0037652
-0.00117626
0.000728664
-0.000934946
-0.000977844
0.000249784
-0.00159537
0.00064066
-0.00176446
0.000466976
-0.00180894
0.000296019
-0.00181527
0.000176345
-0.00180631
0.000104713
-0.00178848
6.72087e-05
-0.00176453
5.24073e-05
-0.0017368
5.31741e-05
-0.00170816
6.51298e-05
-0.0016826
8.44577e-05
-0.00166677
0.00010584
-0.00166848
0.000122714
-0.0016949
0.000130572
-0.00173987
0.000134267
-0.00178735
0.000141696
-0.0018219
0.000156471
-0.00183536
0.00017807
-0.0018246
0.00020602
-0.0017897
0.000239415
-0.00173177
0.000276656
-0.00165352
0.00031472
-0.00155745
0.000350294
-0.00144577
0.000379543
-0.00132149
0.000397508
-0.00119022
0.000397565
-0.00106223
0.000372222
-0.000952699
0.00031671
-0.000876571
0.000235248
-0.000837388
0.00014592
-0.000823484
7.95614e-05
-0.000810324
8.24975e-05
-0.000735624
0.000207605
-0.000512383
0.000398451
-0.000203336
0.000323762
0.000709342
-0.00162679
0.000415612
-0.00265048
8.84222e-05
-0.00269767
0.000296666
-0.00249584
0.000438542
-0.0023669
0.000337797
-0.00229388
0.000222777
-0.00226007
0.000142317
-0.00224935
9.37811e-05
-0.00224982
6.74711e-05
-0.00225374
5.6131e-05
-0.00225615
5.5373e-05
-0.0022538
6.25723e-05
-0.00224511
7.55708e-05
-0.00223094
9.14577e-05
-0.00221475
0.000106322
-0.00220121
0.000116829
-0.00219071
0.000123564
-0.00217866
0.00012944
-0.00215903
0.000136642
-0.00212722
0.000146057
-0.00207964
0.000158237
-0.00201354
0.000173122
-0.001927
0.000189923
-0.00181947
0.000206992
-0.00169171
0.000222343
-0.00154604
0.000233673
-0.00138691
0.000238191
-0.00122207
0.000232531
-0.00106344
0.000213397
-0.000926401
0.000179484
-0.000825588
0.000134242
-0.000767365
8.75047e-05
-0.000742266
5.42709e-05
-0.00071268
5.27229e-05
-0.000601532
9.62722e-05
-0.000370082
0.00016682
-0.000274625
0.000228126
0.000422674
-0.00462998
-0.00431962
-0.00395842
-0.00392323
-0.00368065
-0.00329731
-0.00301534
-0.00284869
-0.00276269
-0.00272537
-0.00271448
-0.00271502
-0.0027164
-0.00271064
-0.0026919
-0.00265733
-0.00260797
-0.00254825
-0.002482
-0.00241013
-0.00233132
-0.00224336
-0.00214346
-0.00202885
-0.00189758
-0.00174929
-0.0015856
-0.00141039
-0.00123033
-0.00105541
-0.000898962
-0.000775645
-0.000696784
-0.00066401
-0.000664082
-0.000665593
-0.000623614
-0.000511442
-0.000340241
)
;

boundaryField
{
    floor
    {
        type            calculated;
        value           nonuniform List<scalar> 
29
(
0
0
0
0
0
0
0
0
0
0
0
0
0
0
0
0
0
0
0
0
5.92383e-06
1.60663e-05
2.48954e-05
3.16838e-05
2.5823e-06
4.18914e-06
9.65952e-06
1.55807e-05
1.75205e-05
)
;
    }
    ceiling
    {
        type            calculated;
        value           nonuniform List<scalar> 
43
(
6.18872e-05
5.86514e-05
5.41414e-05
5.297e-05
5.38386e-05
5.4958e-05
5.55909e-05
5.58978e-05
5.60885e-05
5.62359e-05
5.6359e-05
5.64595e-05
5.65352e-05
5.65863e-05
5.66224e-05
5.66657e-05
5.67476e-05
5.68937e-05
5.71046e-05
5.73588e-05
5.76282e-05
5.78894e-05
5.81239e-05
5.83159e-05
5.84484e-05
5.85011e-05
5.84496e-05
5.82667e-05
5.79277e-05
5.74186e-05
5.67491e-05
5.59698e-05
5.51834e-05
5.45339e-05
5.41491e-05
5.40421e-05
5.4104e-05
5.44606e-05
5.67417e-05
6.7233e-05
2.24468e-05
2.24536e-05
3.46065e-05
)
;
    }
    sWall
    {
        type            calculated;
        value           uniform 1.47448e-05;
    }
    nWall
    {
        type            calculated;
        value           nonuniform List<scalar> 6(5.73098e-06 7.85454e-06 9.93288e-06 9.50727e-06 1.18709e-05 1.50198e-05);
    }
    sideWalls
    {
        type            empty;
        value           nonuniform 0();
    }
    glass1
    {
        type            calculated;
        value           nonuniform List<scalar> 9(-6.028e-06 -1.72028e-05 -2.76425e-05 -3.76822e-05 -4.88165e-05 -6.29125e-05 -7.78452e-05 -9.07183e-05 -0.000103374);
    }
    glass2
    {
        type            calculated;
        value           nonuniform List<scalar> 2(3.3713e-05 3.73112e-05);
    }
    sun
    {
        type            calculated;
        value           uniform 0;
    }
    heatsource1
    {
        type            calculated;
        value           nonuniform List<scalar> 3(2.03708e-07 2.04149e-07 2.04438e-07);
    }
    heatsource2
    {
        type            calculated;
        value           nonuniform List<scalar> 4(5.12072e-08 5.13714e-08 0 0);
    }
    Table_master
    {
        type            calculated;
        value           nonuniform List<scalar> 9(-1.53206e-07 -1.53315e-07 -1.53338e-07 -1.53347e-07 -1.53347e-07 -1.53341e-07 -1.53329e-07 -1.53296e-07 -1.53225e-07);
    }
    Table_slave
    {
        type            calculated;
        value           nonuniform List<scalar> 9(1.52942e-07 1.52976e-07 1.52957e-07 1.52961e-07 1.5298e-07 1.5301e-07 1.5305e-07 1.531e-07 1.53169e-07);
    }
    inlet
    {
        type            calculated;
        value           uniform -0.00641963;
    }
    outlet
    {
        type            calculated;
        value           nonuniform List<scalar> 2(0.00455307 -0.000369286);
    }
}


// ************************************************************************* //
