// -*- C++ -*-
// File generated by PyFoam - sorry for the ugliness

FoamFile
{
 version 2.0;
 format ascii;
 class volScalarField;
 location "400";
 object T;
}

dimensions [ 0 0 0 1 0 0 0 ];

internalField nonuniform List<scalar> 459
(
  303.451
  303.185
  303.173
  303.171
  303.168
  303.165
  303.162
  303.158
  303.152
  303.143
  303.131
  303.118
  303.106
  303.097
  303.093
  303.128
  303.112
  303.106
  303.106
  303.106
  303.106
  303.106
  303.106
  303.107
  303.107
  303.107
  303.107
  303.106
  303.106
  303.106
  303.105
  303.104
  303.103
  303.116
  303.635
  303.228
  303.206
  303.211
  303.216
  303.219
  303.22
  303.218
  303.209
  303.193
  303.169
  303.142
  303.117
  303.097
  303.082
  303.071
  303.059
  303.126
  303.106
  303.101
  303.099
  303.098
  303.097
  303.095
  303.092
  303.09
  303.087
  303.084
  303.081
  303.078
  303.076
  303.074
  303.073
  303.074
  303.075
  303.099
  303.825
  303.278
  303.24
  303.253
  303.269
  303.283
  303.292
  303.295
  303.286
  303.26
  303.22
  303.174
  303.134
  303.105
  303.086
  303.077
  303.071
  303.096
  303.096
  303.099
  303.102
  303.105
  303.105
  303.102
  303.098
  303.094
  303.09
  303.085
  303.081
  303.077
  303.074
  303.07
  303.068
  303.067
  303.067
  303.091
  304.014
  303.34
  303.274
  303.291
  303.319
  303.348
  303.372
  303.385
  303.375
  303.336
  303.274
  303.206
  303.148
  303.109
  303.087
  303.079
  303.078
  303.084
  303.089
  303.098
  303.107
  303.114
  303.12
  303.124
  303.127
  303.13
  303.133
  303.135
  303.136
  303.137
  303.137
  303.136
  303.133
  303.11
  303.088
  303.073
  303.09
  304.196
  303.418
  303.311
  303.321
  303.357
  303.399
  303.441
  303.47
  303.459
  303.402
  303.317
  303.225
  303.153
  303.106
  303.083
  303.077
  303.08
  303.089
  303.099
  303.112
  303.125
  303.135
  303.143
  303.149
  303.155
  303.159
  303.163
  303.166
  303.167
  303.166
  303.163
  303.158
  303.15
  303.133
  303.108
  303.084
  303.087
  303.148
  303.186
  303.195
  304.359
  303.519
  303.376
  303.359
  303.388
  303.433
  303.491
  303.537
  303.514
  303.436
  303.33
  303.226
  303.145
  303.095
  303.073
  303.073
  303.083
  303.099
  303.116
  303.133
  303.149
  303.161
  303.17
  303.177
  303.182
  303.187
  303.19
  303.192
  303.192
  303.189
  303.183
  303.175
  303.164
  303.148
  303.125
  303.099
  303.09
  303.113
  303.126
  303.159
  304.503
  303.681
  303.534
  303.486
  303.485
  303.514
  303.569
  303.587
  303.536
  303.429
  303.303
  303.189
  303.109
  303.066
  303.056
  303.068
  303.091
  303.117
  303.142
  303.162
  303.178
  303.19
  303.199
  303.205
  303.209
  303.213
  303.215
  303.215
  303.213
  303.209
  303.201
  303.19
  303.177
  303.161
  303.14
  303.117
  303.104
  303.108
  303.115
  303.142
  304.719
  304.103
  303.941
  303.826
  303.756
  303.729
  303.714
  303.64
  303.507
  303.348
  303.201
  303.094
  303.036
  303.022
  303.039
  303.073
  303.113
  303.148
  303.177
  303.196
  303.209
  303.218
  303.224
  303.229
  303.232
  303.234
  303.235
  303.234
  303.231
  303.226
  303.219
  303.208
  303.195
  303.181
  303.166
  303.15
  303.143
  303.155
  303.173
  303.302
  305.026
  304.741
  304.478
  304.247
  304.063
  303.917
  303.756
  303.518
  303.275
  303.084
  302.97
  302.928
  302.939
  302.984
  303.044
  303.103
  303.158
  303.191
  303.211
  303.225
  303.234
  303.241
  303.246
  303.249
  303.251
  303.252
  303.252
  303.251
  303.25
  303.248
  303.247
  303.248
  303.252
  303.26
  303.276
  303.3
  303.333
  303.366
  303.388
  303.442
  296.934
  299.476
  300.888
  301.435
  301.682
  301.922
  302.155
  302.379
  302.585
  302.759
  302.902
  303.025
  303.119
  303.174
  303.208
  303.228
  303.24
  303.249
  303.255
  303.26
  303.263
  303.266
  303.268
  303.27
  303.272
  303.274
  303.275
  303.278
  303.281
  303.284
  303.29
  303.299
  303.313
  303.333
  303.356
  303.378
  303.393
  303.41
  297.567
  299.624
  300.696
  301.322
  301.726
  302.045
  302.328
  302.591
  302.814
  302.97
  303.08
  303.154
  303.2
  303.227
  303.244
  303.254
  303.261
  303.266
  303.27
  303.274
  303.277
  303.279
  303.282
  303.285
  303.287
  303.29
  303.292
  303.295
  303.297
  303.301
  303.306
  303.313
  303.323
  303.337
  303.353
  303.369
  303.364
  303.392
  299.656
  299.582
  299.578
  301.193
  301.904
  302.295
  302.572
  302.78
  302.926
  303.035
  303.113
  303.168
  303.205
  303.23
  303.245
  303.255
  303.261
  303.266
  303.269
  303.272
  303.275
  303.278
  303.281
  303.284
  303.287
  303.289
  303.292
  303.295
  303.297
  303.3
  303.303
  303.306
  303.309
  303.314
  303.32
  303.331
  303.34
  303.345
  303.346
  303.382
)
;

boundaryField
{
  floor
  {
    type wallHeatTransfer;
    Tinf uniform 305.2;
    alphaWall uniform 0.24;
    value nonuniform List<scalar> 29
(
  303.302
  303.542
  303.477
  303.451
  303.457
  303.468
  303.481
  303.497
  303.513
  303.529
  303.544
  303.559
  303.574
  303.587
  303.601
  303.614
  303.627
  303.642
  303.649
  303.682
  303.682
  303.569
  303.515
  303.486
  303.302
  303.542
  303.502
  303.334
  303.277
)
;
  }
  ceiling
  {
    type wallHeatTransfer;
    Tinf uniform 303.2;
    alphaWall uniform 0.24;
    value nonuniform List<scalar> 43
(
  299.903
  299.823
  299.812
  301.317
  301.989
  302.357
  302.617
  302.812
  302.949
  303.049
  303.122
  303.171
  303.204
  303.226
  303.238
  303.245
  303.25
  303.253
  303.256
  303.259
  303.262
  303.265
  303.267
  303.27
  303.273
  303.275
  303.278
  303.281
  303.284
  303.287
  303.289
  303.293
  303.296
  303.301
  303.307
  303.318
  303.326
  303.33
  303.33
  303.362
  304.942
  304.68
  297.916
)
;
  }
  sWall
  {
    type wallHeatTransfer;
    Tinf uniform 315.2;
    alphaWall uniform 0.36;
    value uniform 301.232;
  }
  nWall
  {
    type wallHeatTransfer;
    Tinf uniform 307.2;
    alphaWall uniform 0.36;
    value nonuniform List<scalar> 6
(
  303.932
  303.881
  303.805
  303.954
  303.933
  303.989
)
;
  }
  sideWalls
  {
    type empty;
  }
  glass1
  {
    type wallHeatTransfer;
    Tinf uniform 315.2;
    alphaWall uniform 4.3;
    value nonuniform List<scalar> 9
(
  311.621
  310.955
  310.531
  310.204
  309.933
  309.69
  309.502
  309.568
  309.79
)
;
  }
  glass2
  {
    type wallHeatTransfer;
    Tinf uniform 307.2;
    alphaWall uniform 4.3;
    value nonuniform List<scalar> 2
(
  305.703
  305.809
)
;
  }
  sun
  {
    type wallHeatTransfer;
    Tinf uniform 305.2;
    alphaWall uniform 0.24;
    value nonuniform List<scalar> 14
(
  303.645
  303.395
  303.383
  303.374
  303.365
  303.358
  303.35
  303.342
  303.333
  303.323
  303.312
  303.303
  303.297
  303.297
)
;
  }
  heatsource1
  {
    type fixedGradient;
    gradient uniform 0;
  }
  heatsource2
  {
    type fixedGradient;
    gradient uniform 0;
  }
  Table_master
  {
    type zeroGradient;
  }
  Table_slave
  {
    type zeroGradient;
  }
  inlet
  {
    type fixedValue;
    value uniform 293.15;
  }
  outlet
  {
    type zeroGradient;
  }
} 	// ************************************************************************* //

