/*--------------------------------*- C++ -*----------------------------------*\
  =========                 |
  \\      /  F ield         | OpenFOAM: The Open Source CFD Toolbox
   \\    /   O peration     | Website:  https://openfoam.org
    \\  /    A nd           | Version:  6
     \\/     M anipulation  |
\*---------------------------------------------------------------------------*/
FoamFile
{
    version     2.0;
    format      ascii;
    class       volScalarField;
    location    "1400";
    object      alphat;
}
// * * * * * * * * * * * * * * * * * * * * * * * * * * * * * * * * * * * * * //

dimensions      [1 -1 -1 0 0 0 0];

internalField   nonuniform List<scalar> 
459
(
0.00201406
0.00231905
0.00266259
0.00259856
0.00247488
0.00234795
0.00222852
0.00211751
0.0020133
0.00191937
0.00183126
0.00174399
0.00165204
0.00154592
0.00141809
0.000755919
0.000876367
0.000992769
0.0011054
0.00119128
0.0012039
0.00114087
0.00106564
0.000997876
0.000939155
0.000888169
0.000843626
0.00080417
0.00076877
0.00073582
0.000703253
0.000668023
0.000622745
0.00056292
0.00214507
0.00398439
0.00512164
0.00534488
0.00529677
0.00511071
0.0048937
0.0046859
0.00449219
0.00425761
0.00397876
0.00365574
0.00327378
0.00279931
0.00217033
0.00144798
0.00129263
0.000751005
0.00162658
0.00251511
0.00335824
0.00409879
0.00429782
0.00294443
0.00244685
0.00213253
0.0019148
0.00175753
0.00164106
0.00155463
0.0014658
0.00134799
0.00122196
0.00110923
0.000937031
0.00058079
0.00209242
0.00425062
0.00499378
0.00525324
0.00523829
0.00513018
0.00502345
0.00493902
0.00487756
0.00481117
0.00469643
0.00448945
0.00415335
0.00366159
0.00300713
0.00227353
0.00134439
0.000742435
0.00177581
0.00235435
0.00345096
0.00461608
0.00491064
0.00145516
0.00127971
0.00112539
0.000995948
0.000889264
0.000802082
0.000731373
0.00067897
0.000648423
0.000773689
0.000929404
0.00093003
0.000582572
0.00224824
0.00486216
0.00535221
0.00531169
0.00520832
0.00515575
0.00518436
0.00526459
0.00537191
0.00541011
0.00533321
0.00512102
0.00476639
0.00426661
0.00362784
0.00288494
0.00190723
0.0013364
0.00121814
0.00152914
0.00255001
0.00413514
0.00568191
0.00611296
0.00168504
0.00156999
0.00147246
0.0013906
0.00131441
0.00123707
0.00115448
0.00106338
0.000957631
0.000826739
0.000842849
0.000914338
0.00059283
0.00342064
0.0065333
0.00605368
0.00545988
0.00539283
0.00561321
0.00600734
0.00645774
0.00661114
0.00648128
0.00619438
0.00581396
0.00535432
0.00481685
0.00421199
0.00355677
0.00282533
0.00247709
0.00249791
0.00322988
0.00475766
0.00657443
0.00809809
0.00888561
0.00817548
0.00755815
0.00708859
0.00646618
0.00570786
0.00487184
0.00399408
0.00309369
0.0021865
0.00139785
0.001019
0.00098194
0.000710398
0.00059284
0.000534952
0.000532642
0.00358948
0.00893224
0.00602327
0.0053271
0.00658264
0.00788033
0.00829451
0.00815046
0.00779949
0.00739156
0.0069564
0.00650375
0.0060204
0.00550793
0.00499861
0.00453873
0.00416753
0.00430099
0.00520166
0.00685096
0.00869356
0.0102071
0.0111384
0.0114283
0.0111245
0.0105802
0.00979372
0.00878385
0.00761511
0.00635852
0.00507151
0.00379999
0.00259878
0.00162919
0.00114263
0.00106181
0.000864282
0.000797824
0.000823717
0.000589169
0.00357113
0.00812749
0.00527041
0.00638481
0.00830513
0.00921887
0.00940178
0.00917894
0.00873435
0.00830323
0.00789503
0.0075004
0.00711243
0.00673334
0.00644495
0.00637273
0.00667822
0.00778374
0.00954745
0.0112845
0.0125451
0.0132321
0.0133498
0.0129989
0.0123385
0.0114685
0.0103738
0.00912201
0.0077603
0.00635109
0.004962
0.00366477
0.00254063
0.00170971
0.00126379
0.00114991
0.000975811
0.000933163
0.00111395
0.00068504
0.00336824
0.00599518
0.00446136
0.00663026
0.00850241
0.00956636
0.00987509
0.00988185
0.00971928
0.00946643
0.00921884
0.00900521
0.00884408
0.00877273
0.00887608
0.00930228
0.0102494
0.011698
0.0131912
0.0142421
0.0146386
0.014505
0.0139163
0.0130047
0.011926
0.0107867
0.00957515
0.00828925
0.00695956
0.00564141
0.00440212
0.00331046
0.00242792
0.00180588
0.00144944
0.00130101
0.00115574
0.00113885
0.00177516
0.0010071
0.00301431
0.00324579
0.00388868
0.00754411
0.00831227
0.00920534
0.00968201
0.00999658
0.0102049
0.0103107
0.0103575
0.0104312
0.0105741
0.010833
0.0112687
0.0119403
0.0128525
0.0138154
0.0145011
0.0146798
0.0143166
0.0135188
0.0124395
0.011236
0.0100307
0.00887359
0.00774922
0.00664521
0.00558121
0.00460043
0.00374924
0.00305944
0.00253834
0.00217007
0.00192014
0.00175632
0.00163947
0.00176273
0.00311384
0.00130509
0.00321805
0.00839965
0.00859432
0.00892653
0.00930857
0.00971206
0.0100971
0.0104351
0.0107047
0.0109808
0.0113044
0.0116917
0.0121431
0.0126263
0.0130526
0.0132606
0.0131126
0.0125741
0.0117297
0.0107268
0.00970378
0.00875233
0.00790921
0.00716717
0.0065064
0.00592167
0.00542292
0.00502176
0.00471881
0.00449737
0.00432317
0.00414999
0.00393423
0.00365994
0.00336819
0.00334367
0.00438704
0.00137782
0.0028841
0.00897421
0.00914216
0.00881411
0.00873038
0.00880084
0.00892836
0.00906564
0.00919323
0.00934903
0.00955452
0.00979747
0.0100512
0.0102701
0.0103884
0.0103359
0.0100824
0.0096603
0.00914577
0.00861798
0.00812943
0.00770159
0.00733617
0.00702837
0.00677563
0.0065796
0.00644295
0.00636469
0.00633582
0.00633568
0.00632865
0.00626384
0.00608508
0.00576227
0.00534769
0.00501457
0.00448093
0.00138833
0.00111585
0.00164063
0.00208909
0.00206472
0.00199046
0.0019573
0.00195378
0.00196347
0.00198038
0.0020035
0.00203384
0.00206576
0.00209581
0.00212224
0.00214258
0.00215361
0.00215211
0.00213623
0.00210751
0.00207065
0.00203167
0.0019956
0.00196513
0.00194098
0.00192276
0.0019098
0.00190151
0.00189745
0.00189708
0.00189942
0.00190274
0.00190444
0.00190111
0.00188953
0.00186916
0.00184592
0.00182939
0.00181396
0.00172995
0.00141135
)
;

boundaryField
{
    floor
    {
        type            compressible::alphatWallFunction;
        Prt             0.85;
        value           nonuniform List<scalar> 
29
(
0.000200071
0.000107557
0.000124929
0.00014145
0.000157224
0.000169128
0.000170871
0.000162157
0.000151683
0.000142175
0.000133875
0.00012662
0.000120241
0.000114558
0.00010943
0.000104632
9.9865e-05
9.46775e-05
8.79607e-05
7.89936e-05
7.89926e-05
8.16868e-05
8.19575e-05
8.35015e-05
0.000200068
0.000107555
0.000106846
0.000105599
0.000188979
)
;
    }
    ceiling
    {
        type            compressible::alphatWallFunction;
        Prt             0.85;
        value           nonuniform List<scalar> 
43
(
0.000159807
0.000230696
0.000289116
0.000285956
0.000276302
0.000271975
0.000271513
0.000272779
0.000274986
0.000278
0.00028195
0.000286101
0.000290002
0.000293431
0.000296067
0.000297499
0.00029731
0.000295262
0.000291547
0.000286769
0.000281706
0.00027701
0.000273036
0.00026988
0.000267497
0.0002658
0.000264713
0.00026418
0.00026413
0.000264436
0.00026487
0.000265092
0.000264656
0.000263137
0.000260466
0.000257413
0.00025524
0.000253213
0.000242124
0.000199487
0.00040636
0.000435066
0.000390308
)
;
    }
    sWall
    {
        type            compressible::alphatWallFunction;
        Prt             0.85;
        value           uniform 0.000159364;
    }
    nWall
    {
        type            compressible::alphatWallFunction;
        Prt             0.85;
        value           nonuniform List<scalar> 6(7.43857e-05 8.2932e-05 9.72155e-05 0.000194777 0.000196173 0.000199272);
    }
    sideWalls
    {
        type            empty;
    }
    glass1
    {
        type            compressible::alphatWallFunction;
        Prt             0.85;
        value           nonuniform List<scalar> 9(0.00027392 0.000290792 0.000284206 0.000304472 0.000449894 0.000469964 0.000467518 0.000442569 0.000398774);
    }
    glass2
    {
        type            compressible::alphatWallFunction;
        Prt             0.85;
        value           nonuniform List<scalar> 2(0.000143703 0.000185047);
    }
    sun
    {
        type            compressible::alphatWallFunction;
        Prt             0.85;
        value           nonuniform List<scalar> 
14
(
0.000279079
0.000318473
0.000362185
0.000354071
0.000338365
0.000322159
0.000306827
0.000292497
0.00027897
0.000266713
0.000255155
0.000243647
0.000231451
0.000217282
)
;
    }
    heatsource1
    {
        type            compressible::alphatWallFunction;
        Prt             0.85;
        value           nonuniform List<scalar> 3(8.34222e-05 7.46938e-05 7.43576e-05);
    }
    heatsource2
    {
        type            compressible::alphatWallFunction;
        Prt             0.85;
        value           nonuniform List<scalar> 4(0.000204131 0.000183022 0.00018302 0.000190082);
    }
    Table_master
    {
        type            compressible::alphatWallFunction;
        Prt             0.85;
        value           nonuniform List<scalar> 9(0.000205076 0.000181232 0.000159953 0.000141844 0.000126713 0.000114188 0.000103912 9.62184e-05 9.17007e-05);
    }
    Table_slave
    {
        type            compressible::alphatWallFunction;
        Prt             0.85;
        value           nonuniform List<scalar> 9(0.000235842 0.000220511 0.000207416 0.000196351 0.000185985 0.000175393 0.000163998 0.000151319 0.000136441);
    }
    inlet
    {
        type            fixedValue;
        value           uniform 1.94e-05;
    }
    outlet
    {
        type            zeroGradient;
    }
}


// ************************************************************************* //
