/*--------------------------------*- C++ -*----------------------------------*\
  =========                 |
  \\      /  F ield         | OpenFOAM: The Open Source CFD Toolbox
   \\    /   O peration     | Website:  https://openfoam.org
    \\  /    A nd           | Version:  6
     \\/     M anipulation  |
\*---------------------------------------------------------------------------*/
FoamFile
{
    version     2.0;
    format      ascii;
    class       volScalarField;
    location    "1700";
    object      nut;
}
// * * * * * * * * * * * * * * * * * * * * * * * * * * * * * * * * * * * * * //

dimensions      [0 2 -1 0 0 0 0];

internalField   nonuniform List<scalar> 
459
(
0.00223975
0.00208335
0.00194649
0.00183316
0.00173691
0.00165042
0.00156751
0.00148313
0.00139128
0.00128321
0.00108224
0.000859611
0.000793123
0.000813346
0.000809405
0.000181067
0.000197339
0.000180456
0.000170705
0.000165198
0.000157891
0.000150206
0.000154885
0.000168952
0.000186502
0.000204221
0.00021798
0.00021929
0.000217792
0.000231551
0.000249983
0.000247701
0.000262511
0.00025588
0.00264944
0.00276987
0.00269053
0.00257575
0.00248549
0.00238702
0.0022734
0.00215403
0.0020397
0.00193714
0.00165518
0.00140727
0.00159399
0.00186997
0.00149967
0.000803423
0.00062986
0.000318649
0.000826516
0.00068678
0.000526802
0.000388157
0.000323821
0.000341734
0.000416299
0.00051458
0.000614634
0.00069652
0.000750656
0.000791533
0.000879362
0.00105282
0.00129062
0.00123014
0.00124179
0.000427976
0.00298521
0.00314143
0.00288327
0.00264076
0.0025096
0.00242673
0.00236122
0.00230354
0.00225671
0.00220448
0.00197434
0.0019429
0.00245112
0.00281269
0.00242019
0.00161806
0.000839805
0.00057543
0.00135172
0.00107362
0.000788905
0.000560188
0.00039957
0.000305834
0.000333472
0.000365735
0.000401269
0.000441193
0.000487241
0.000542345
0.000612314
0.000703755
0.0018445
0.0018334
0.00190423
0.000597568
0.00330003
0.00347315
0.00290309
0.00245087
0.00225374
0.00221681
0.00223924
0.00227791
0.00232872
0.00233364
0.00222874
0.00255206
0.00339729
0.00382488
0.00350904
0.00260595
0.00152736
0.000828477
0.00155789
0.00175529
0.00146783
0.00123566
0.00105016
0.000887694
0.000716976
0.00071448
0.000712242
0.00071162
0.000714322
0.000721805
0.000735848
0.000759592
0.000798632
0.00215421
0.00196723
0.00150208
0.00071734
0.00362861
0.00373877
0.0027817
0.0021571
0.00206688
0.0021374
0.00216676
0.00223928
0.0023559
0.00239754
0.00243964
0.00309957
0.00429416
0.00512481
0.00535284
0.00519415
0.00485978
0.00442938
0.00401112
0.00386175
0.00386298
0.00394004
0.00401238
0.00398128
0.00390079
0.00381511
0.00371149
0.00359759
0.00348012
0.00336397
0.00325272
0.0031492
0.00304811
0.00291346
0.00251696
0.00196521
0.00131747
0.00079307
0.000770177
0.000761511
0.00399878
0.00396703
0.0025805
0.00242841
0.00278521
0.00245571
0.00222956
0.00225146
0.00237528
0.00243039
0.00255969
0.00338584
0.00471359
0.00579722
0.00632928
0.00659726
0.00664771
0.00649061
0.00623841
0.00600485
0.00587867
0.00581346
0.00574724
0.00566944
0.00556728
0.00543621
0.00528268
0.00511392
0.00493526
0.00474974
0.00455832
0.00436171
0.00416081
0.00394539
0.00368066
0.00333776
0.0028959
0.00234913
0.00170827
0.00091155
0.00444483
0.00429667
0.00239075
0.00278691
0.00315841
0.00278911
0.00245313
0.00238582
0.00246034
0.00247872
0.00257239
0.00334363
0.00459608
0.0058183
0.00671372
0.00733664
0.00769391
0.00776455
0.00764998
0.00747188
0.00730371
0.00715552
0.00701631
0.0068734
0.00671347
0.00653071
0.00632876
0.00611359
0.00589018
0.0056618
0.00543059
0.0051999
0.00497509
0.00475467
0.00451684
0.00422508
0.00383221
0.00327109
0.00243851
0.00105015
0.00503675
0.00512272
0.00365107
0.00222661
0.00317034
0.00318258
0.00300769
0.00284805
0.00277444
0.00265862
0.00259233
0.00310147
0.00393835
0.00515299
0.00660015
0.00755137
0.00818627
0.00847973
0.00852448
0.00844337
0.00831584
0.0081687
0.00800472
0.00782026
0.00761167
0.00737999
0.00713147
0.00687349
0.00661197
0.00635059
0.00609168
0.00583837
0.00559507
0.00536126
0.00512255
0.00485144
0.00450539
0.0040084
0.00316085
0.00119259
0.00595338
0.00734377
0.0116201
0.00389324
0.00336629
0.00410281
0.00418495
0.00398222
0.00365559
0.00322104
0.00285462
0.00303296
0.00342457
0.00407329
0.00530063
0.00677556
0.00783122
0.008422
0.00868824
0.00878344
0.00878913
0.00873031
0.00861249
0.00844037
0.00822213
0.00796946
0.00769575
0.0074133
0.0071313
0.00685519
0.0065874
0.00632902
0.00608066
0.00584001
0.00559783
0.00533589
0.00502102
0.00457993
0.00375846
0.00136105
0.0228396
0.0135239
0.0060777
0.00591209
0.00619815
0.00614946
0.00566698
0.00463018
0.00375155
0.00354337
0.00357532
0.00380582
0.00439491
0.00531369
0.00636536
0.00723447
0.00789283
0.00836583
0.00867162
0.00882229
0.00883497
0.00873457
0.00855016
0.00831063
0.00804158
0.00776339
0.00749023
0.00722991
0.00698466
0.00675272
0.00652995
0.00631043
0.00608515
0.00583903
0.00554323
0.0051287
0.00433315
0.00156264
0.00845546
0.0096016
0.0086879
0.00715645
0.00693705
0.00687987
0.00663593
0.00534665
0.00419637
0.00375355
0.00363879
0.0037699
0.00415202
0.00475671
0.00555553
0.00646209
0.00733103
0.00804784
0.00853968
0.0087922
0.00883743
0.00872946
0.00852447
0.0082704
0.00800379
0.00774996
0.00752409
0.00733252
0.00717391
0.00704071
0.00692069
0.00679794
0.00665319
0.00646306
0.00619711
0.00579675
0.00506757
0.00177511
0.00159128
0.00216698
0.00484203
0.00426196
0.00366879
0.00308404
0.00259612
0.00219126
0.0018805
0.00175708
0.00163643
0.00154552
0.0014862
0.00145135
0.00143571
0.00143594
0.00145126
0.00148932
0.00155539
0.00164075
0.00173078
0.00181134
0.00187325
0.00191305
0.00193156
0.00193204
0.00191872
0.00189594
0.00186766
0.00183721
0.00180715
0.00177917
0.00175399
0.00173132
0.00170975
0.00168667
0.00165788
0.00161632
0.00154858
0.00134376
)
;

boundaryField
{
    floor
    {
        type            nutkWallFunction;
        Cmu             0.09;
        kappa           0.41;
        E               9.8;
        value           nonuniform List<scalar> 
29
(
9.79927e-05
1.6593e-05
1.89531e-05
1.65051e-05
1.50757e-05
1.42653e-05
1.31767e-05
1.20201e-05
1.27127e-05
1.47972e-05
1.73681e-05
1.99327e-05
2.19068e-05
2.20998e-05
2.18782e-05
2.38154e-05
2.64028e-05
2.60789e-05
2.81259e-05
2.72256e-05
2.72255e-05
5.03355e-05
7.19916e-05
8.68023e-05
9.79927e-05
1.65929e-05
3.58451e-05
6.922e-05
0.000100262
)
;
    }
    ceiling
    {
        type            nutkWallFunction;
        Cmu             0.09;
        kappa           0.41;
        E               9.8;
        value           nonuniform List<scalar> 
43
(
0.000188822
0.000252292
0.000529392
0.000470952
0.000410372
0.000349657
0.000298043
0.000254363
0.000220277
0.000206791
0.000193435
0.000183287
0.000176635
0.000172718
0.000170965
0.000171004
0.000172747
0.000177046
0.000184481
0.000194037
0.000204057
0.000212971
0.000219789
0.000224156
0.000226179
0.000226224
0.000224757
0.000222252
0.00021914
0.000215787
0.000212472
0.000209384
0.0002066
0.000204091
0.000201701
0.000199137
0.000195933
0.000191298
0.000183716
0.000160555
0.000638574
0.000773227
0.000880034
)
;
    }
    sWall
    {
        type            nutkWallFunction;
        Cmu             0.09;
        kappa           0.41;
        E               9.8;
        value           uniform 0.000188848;
    }
    nWall
    {
        type            nutkWallFunction;
        Cmu             0.09;
        kappa           0.41;
        E               9.8;
        value           nonuniform List<scalar> 6(9.22213e-05 0.000110274 0.000126644 0.000185297 0.000208962 0.000160564);
    }
    sideWalls
    {
        type            empty;
    }
    glass1
    {
        type            nutkWallFunction;
        Cmu             0.09;
        kappa           0.41;
        E               9.8;
        value           nonuniform List<scalar> 9(0.000260084 0.000303948 0.00033936 0.000372187 0.000406108 0.000443953 0.000489096 0.000548326 0.00063876);
    }
    glass2
    {
        type            nutkWallFunction;
        Cmu             0.09;
        kappa           0.41;
        E               9.8;
        value           nonuniform List<scalar> 2(0.000143212 0.000162525);
    }
    sun
    {
        type            nutkWallFunction;
        Cmu             0.09;
        kappa           0.41;
        E               9.8;
        value           nonuniform List<scalar> 
14
(
0.00025997
0.000243011
0.000228064
0.000215605
0.00020496
0.000195342
0.000186076
0.000176597
0.000166219
0.000153925
0.00013099
0.000104363
9.60776e-05
9.8426e-05
)
;
    }
    heatsource1
    {
        type            nutkWallFunction;
        Cmu             0.09;
        kappa           0.41;
        E               9.8;
        value           nonuniform List<scalar> 3(9.60282e-05 9.32631e-05 9.22214e-05);
    }
    heatsource2
    {
        type            nutkWallFunction;
        Cmu             0.09;
        kappa           0.41;
        E               9.8;
        value           nonuniform List<scalar> 4(9.72417e-05 7.60967e-05 7.60966e-05 0.000101616);
    }
    Table_master
    {
        type            nutkWallFunction;
        Cmu             0.09;
        kappa           0.41;
        E               9.8;
        value           nonuniform List<scalar> 9(3.40908e-05 3.7829e-05 4.21439e-05 4.68405e-05 5.20555e-05 5.79982e-05 6.502e-05 7.38132e-05 8.51287e-05);
    }
    Table_slave
    {
        type            nutkWallFunction;
        Cmu             0.09;
        kappa           0.41;
        E               9.8;
        value           nonuniform List<scalar> 9(8.67549e-05 8.64516e-05 8.61793e-05 8.61046e-05 8.64367e-05 8.73533e-05 8.90698e-05 9.19628e-05 9.66968e-05);
    }
    inlet
    {
        type            calculated;
        value           uniform 0.0228396;
    }
    outlet
    {
        type            calculated;
        value           nonuniform List<scalar> 2(0.00159128 0.00216698);
    }
}


// ************************************************************************* //
