// -*- C++ -*-
// File generated by PyFoam - sorry for the ugliness

FoamFile
{
 version 2.0;
 format ascii;
 class volVectorField;
 location "1100";
 object U;
}

dimensions [ 0 1 -1 0 0 0 0 ];

internalField nonuniform List<vector> 459
(
  (-0.00497859 0.0788387 0)
  (-0.171189 0.000288536 0)
  (-0.150668 -0.0420861 0)
  (-0.0913057 -0.0886294 0)
  (0.0285214 -0.0987334 0)
  (0.116717 -0.0615076 0)
  (0.171681 -0.0390693 0)
  (0.204315 -0.0244735 0)
  (0.220232 -0.0144708 0)
  (0.224158 -0.00716492 0)
  (0.21846 -0.000916824 0)
  (0.204543 0.00552715 0)
  (0.181176 0.0142635 0)
  (0.142089 0.0314716 0)
  (0.107318 0.0790485 0)
  (-0.0533688 0.01946 0)
  (-0.0656813 -0.00713784 0)
  (-0.0522314 -0.0271923 0)
  (-0.0228167 -0.0414253 0)
  (0.0258596 -0.04115 0)
  (0.0600081 -0.03158 0)
  (0.0865499 -0.0182241 0)
  (0.10378 -0.0109793 0)
  (0.112841 -0.00832108 0)
  (0.117687 -0.00724731 0)
  (0.121084 -0.00647854 0)
  (0.123722 -0.00575632 0)
  (0.125436 -0.00493506 0)
  (0.125649 -0.00366647 0)
  (0.123045 -0.00125726 0)
  (0.115338 0.00320626 0)
  (0.0996847 0.00955032 0)
  (0.0725866 0.0191303 0)
  (0.0501738 0.0350027 0)
  (0.15275 0.183218 0)
  (-0.153676 0.0517847 0)
  (-0.124837 -0.0399922 0)
  (-0.0781802 -0.142151 0)
  (0.0040108 -0.165854 0)
  (0.0835949 -0.102256 0)
  (0.133209 -0.0601546 0)
  (0.165411 -0.0322508 0)
  (0.183905 -0.0126919 0)
  (0.192309 0.0024267 0)
  (0.192118 0.0148275 0)
  (0.184735 0.0267475 0)
  (0.171737 0.0410112 0)
  (0.155874 0.0617379 0)
  (0.145524 0.0989298 0)
  (0.137814 0.0908641 0)
  (0.0889678 0.0835322 0)
  (-0.0313024 0.0540429 0)
  (-0.0264831 0.0181023 0)
  (0.0278527 -0.0453574 0)
  (0.0449137 -0.0605359 0)
  (0.0677701 -0.0596805 0)
  (0.0898303 -0.0484287 0)
  (0.101612 -0.023227 0)
  (0.105102 -0.00754242 0)
  (0.105592 -0.00183862 0)
  (0.106154 6.74664e-05 0)
  (0.107004 0.00107259 0)
  (0.107688 0.00186063 0)
  (0.108096 0.00296492 0)
  (0.108073 0.00525685 0)
  (0.106542 0.0100538 0)
  (0.0999157 0.0208805 0)
  (0.0842445 0.033676 0)
  (0.0566653 0.0499323 0)
  (0.0423965 0.0706442 0)
  (0.28795 0.277216 0)
  (-0.165405 0.0848965 0)
  (-0.111134 -0.0535402 0)
  (-0.0760825 -0.203492 0)
  (-0.0226593 -0.243956 0)
  (0.0471386 -0.161303 0)
  (0.0911515 -0.10059 0)
  (0.120713 -0.0599618 0)
  (0.139985 -0.031314 0)
  (0.1519 -0.00855145 0)
  (0.157723 0.011375 0)
  (0.157339 0.0301239 0)
  (0.153032 0.0498426 0)
  (0.146637 0.0725373 0)
  (0.140335 0.0990639 0)
  (0.124408 0.102864 0)
  (0.0968974 0.138807 0)
  (-0.00685229 0.0203908 0)
  (0.0641433 -0.0381946 0)
  (0.0919024 -0.0687959 0)
  (0.101962 -0.0794752 0)
  (0.110751 -0.0769784 0)
  (0.121282 -0.0695101 0)
  (0.122812 -0.0520392 0)
  (0.104615 -0.0337403 0)
  (0.0895538 -0.0234817 0)
  (0.0822951 -0.0175248 0)
  (0.0786225 -0.0135211 0)
  (0.0758686 -0.010642 0)
  (0.0737443 -0.00824779 0)
  (0.0735383 -0.00515984 0)
  (0.078362 0.00212148 0)
  (0.0786739 0.0280942 0)
  (0.0663257 0.0507612 0)
  (0.0425023 0.0766079 0)
  (0.0387342 0.106594 0)
  (0.403155 0.356616 0)
  (-0.189067 0.119901 0)
  (-0.100162 -0.0558883 0)
  (-0.0732342 -0.247048 0)
  (-0.043146 -0.303152 0)
  (0.0111441 -0.213243 0)
  (0.0510447 -0.134034 0)
  (0.0752034 -0.0821906 0)
  (0.0921345 -0.0467495 0)
  (0.104972 -0.0186952 0)
  (0.115429 0.00640814 0)
  (0.12081 0.02945 0)
  (0.123538 0.0515752 0)
  (0.125549 0.0742189 0)
  (0.130637 0.0983771 0)
  (0.141769 0.115809 0)
  (0.159727 0.151598 0)
  (0.199413 0.117959 0)
  (0.162602 0.0442258 0)
  (0.164523 -0.0159863 0)
  (0.160743 -0.0574602 0)
  (0.150438 -0.0742666 0)
  (0.138161 -0.0735398 0)
  (0.123817 -0.0628119 0)
  (0.119716 -0.0365755 0)
  (0.132797 -0.0215706 0)
  (0.140489 -0.0131714 0)
  (0.139006 -0.00768562 0)
  (0.132437 -0.00356916 0)
  (0.123162 -0.00018289 0)
  (0.111417 0.00295755 0)
  (0.0962169 0.00655314 0)
  (0.073555 0.0117941 0)
  (0.0561528 0.0389359 0)
  (0.0487304 0.0647728 0)
  (0.0338076 0.0960054 0)
  (0.0420381 0.139541 0)
  (0.504449 0.423126 0)
  (-0.215646 0.151163 0)
  (-0.0825243 -0.0528665 0)
  (-0.0555678 -0.275644 0)
  (-0.0470169 -0.342253 0)
  (-0.0156771 -0.256952 0)
  (0.0185744 -0.160052 0)
  (0.0349721 -0.0983379 0)
  (0.0457487 -0.0589987 0)
  (0.0556162 -0.0290776 0)
  (0.0664762 -0.0020184 0)
  (0.0763187 0.0232087 0)
  (0.0848439 0.046148 0)
  (0.0945046 0.0675966 0)
  (0.108427 0.0879068 0)
  (0.12832 0.101375 0)
  (0.154872 0.107155 0)
  (0.178887 0.0536546 0)
  (0.184402 0.00503198 0)
  (0.183319 -0.0322879 0)
  (0.172169 -0.0547175 0)
  (0.154142 -0.0622296 0)
  (0.13416 -0.057889 0)
  (0.115483 -0.0442266 0)
  (0.10463 -0.0193068 0)
  (0.1012 -0.00285337 0)
  (0.0959991 0.00588708 0)
  (0.0884891 0.0107593 0)
  (0.079898 0.0141825 0)
  (0.0710645 0.017169 0)
  (0.0619178 0.0204389 0)
  (0.0522467 0.0248834 0)
  (0.0410535 0.0319171 0)
  (0.0332131 0.0498621 0)
  (0.0351492 0.0711317 0)
  (0.0385429 0.0988599 0)
  (0.0606456 0.139285 0)
  (0.072221 0.0958701 0)
  (0.0645986 0.0379625 0)
  (-0.19172 0.0137306 0)
  (0.590462 0.476568 0)
  (-0.244597 0.171376 0)
  (-0.0462166 -0.047881 0)
  (-0.00859138 -0.295509 0)
  (-0.0233824 -0.366037 0)
  (-0.020864 -0.285086 0)
  (-0.000188099 -0.176135 0)
  (0.0067773 -0.105204 0)
  (0.00798267 -0.0643599 0)
  (0.0111766 -0.0353747 0)
  (0.0174313 -0.0098427 0)
  (0.0288288 0.0141809 0)
  (0.0404513 0.0355704 0)
  (0.0542149 0.0540822 0)
  (0.0714341 0.068851 0)
  (0.0923529 0.0753135 0)
  (0.118535 0.0694986 0)
  (0.140166 0.0351832 0)
  (0.148779 0.00293599 0)
  (0.145281 -0.0213606 0)
  (0.132414 -0.0363336 0)
  (0.114128 -0.0412179 0)
  (0.0941365 -0.0372189 0)
  (0.0753493 -0.0261939 0)
  (0.0609941 -0.00956895 0)
  (0.0506232 0.00383794 0)
  (0.0432963 0.0116825 0)
  (0.0365884 0.0162229 0)
  (0.0301664 0.0195762 0)
  (0.0241374 0.0227544 0)
  (0.018546 0.0264329 0)
  (0.0137323 0.0313383 0)
  (0.00958322 0.0382911 0)
  (0.00937321 0.0505797 0)
  (0.0181102 0.0659174 0)
  (0.0284472 0.084987 0)
  (0.0521592 0.108472 0)
  (0.0621323 0.0602403 0)
  (0.0790295 0.0302813 0)
  (-0.106076 0.0370121 0)
  (0.725905 0.529055 0)
  (-0.252364 0.169563 0)
  (0.0259849 -0.105426 0)
  (0.0780748 -0.312035 0)
  (0.0432301 -0.36834 0)
  (0.00669927 -0.289657 0)
  (-0.000808561 -0.174461 0)
  (-0.00772551 -0.0985247 0)
  (-0.0177899 -0.0613146 0)
  (-0.0226714 -0.0371696 0)
  (-0.022141 -0.0168863 0)
  (-0.0152029 0.00263422 0)
  (-0.00487103 0.0211685 0)
  (0.00969826 0.0372884 0)
  (0.0269133 0.0480323 0)
  (0.0467224 0.0512605 0)
  (0.0689142 0.0446805 0)
  (0.0844721 0.024213 0)
  (0.0886841 0.00332892 0)
  (0.083882 -0.0123599 0)
  (0.0715357 -0.0213675 0)
  (0.0548567 -0.0232158 0)
  (0.0367655 -0.0187555 0)
  (0.0197591 -0.00949696 0)
  (0.0052879 0.00275263 0)
  (-0.00352681 0.0124873 0)
  (-0.00856503 0.018009 0)
  (-0.0125267 0.0214673 0)
  (-0.0158458 0.0242297 0)
  (-0.0185184 0.0268996 0)
  (-0.0202882 0.0298577 0)
  (-0.0206298 0.0334267 0)
  (-0.0192434 0.0378459 0)
  (-0.0144585 0.0441185 0)
  (-0.00365638 0.0527653 0)
  (0.00917473 0.0661241 0)
  (0.0347972 0.0812739 0)
  (0.0501777 0.0466637 0)
  (0.0885539 0.034395 0)
  (-0.0793931 0.0757734 0)
  (0.868234 0.516429 0)
  (-0.0926938 0.0747239 0)
  (0.161736 -0.199749 0)
  (0.223797 -0.305402 0)
  (0.163852 -0.327535 0)
  (0.0754046 -0.25468 0)
  (0.0138884 -0.143744 0)
  (-0.0175872 -0.0748974 0)
  (-0.0386282 -0.0484919 0)
  (-0.0509518 -0.0322367 0)
  (-0.0554975 -0.0181215 0)
  (-0.0540735 -0.00418435 0)
  (-0.0472854 0.00955864 0)
  (-0.0365755 0.0214332 0)
  (-0.0226615 0.0297415 0)
  (-0.00685998 0.0326451 0)
  (0.00935776 0.0286393 0)
  (0.0182667 0.0174417 0)
  (0.018815 0.00556056 0)
  (0.0132487 -0.00333823 0)
  (0.00237802 -0.00767364 0)
  (-0.0120015 -0.00691444 0)
  (-0.0268213 -0.00218982 0)
  (-0.0396775 0.00468966 0)
  (-0.0478564 0.0116663 0)
  (-0.0521193 0.01713 0)
  (-0.0542262 0.0208657 0)
  (-0.0552954 0.0235918 0)
  (-0.0555582 0.0257493 0)
  (-0.0549036 0.0275384 0)
  (-0.0530076 0.029054 0)
  (-0.0494655 0.0303439 0)
  (-0.044092 0.0315088 0)
  (-0.0365644 0.0332178 0)
  (-0.026627 0.0367337 0)
  (-0.0156931 0.0438959 0)
  (0.00997819 0.0546866 0)
  (0.021183 0.0316368 0)
  (0.0502294 0.0631273 0)
  (-0.326152 0.125553 0)
  (1.02891 0.468929 0)
  (0.54278 0.305694 0)
  (0.501098 0.107609 0)
  (0.426267 -0.0991844 0)
  (0.302444 -0.188667 0)
  (0.150725 -0.15542 0)
  (0.0182211 -0.073205 0)
  (-0.0428411 -0.0333973 0)
  (-0.0685439 -0.0262557 0)
  (-0.0838648 -0.0207151 0)
  (-0.0911795 -0.0135173 0)
  (-0.0930949 -0.00502664 0)
  (-0.0903352 0.00399129 0)
  (-0.0841141 0.0123119 0)
  (-0.0752934 0.0184056 0)
  (-0.065453 0.0212053 0)
  (-0.0566492 0.0203203 0)
  (-0.0523302 0.0158613 0)
  (-0.0534084 0.0104033 0)
  (-0.0588774 0.00631166 0)
  (-0.0668956 0.00479934 0)
  (-0.0757928 0.0057719 0)
  (-0.0834724 0.00827645 0)
  (-0.0890517 0.0115457 0)
  (-0.0920135 0.0149189 0)
  (-0.0927686 0.017803 0)
  (-0.0920541 0.0199453 0)
  (-0.0903423 0.0214293 0)
  (-0.087757 0.0223073 0)
  (-0.084279 0.0226286 0)
  (-0.0798976 0.0225201 0)
  (-0.0748134 0.0222878 0)
  (-0.0696984 0.0226208 0)
  (-0.0657238 0.0249568 0)
  (-0.0642925 0.0314609 0)
  (-0.0661258 0.0440885 0)
  (-0.0717765 0.0614417 0)
  (-0.103589 0.0729996 0)
  (-0.161141 0.0746807 0)
  (-0.32875 0.0437909 0)
  (0.163758 -0.17356 0)
  (0.170283 -0.181903 0)
  (0.108364 -0.12639 0)
  (-0.023393 -0.0149289 0)
  (-0.0844982 0.0150845 0)
  (-0.105337 0.00637316 0)
  (-0.117637 -0.00336665 0)
  (-0.127123 -0.0054292 0)
  (-0.133418 -0.00268957 0)
  (-0.136493 0.0024065 0)
  (-0.136431 0.00824226 0)
  (-0.133775 0.0135962 0)
  (-0.129316 0.0180325 0)
  (-0.124144 0.0210015 0)
  (-0.119642 0.022276 0)
  (-0.117351 0.021956 0)
  (-0.117776 0.0210305 0)
  (-0.12034 0.0205986 0)
  (-0.123849 0.021346 0)
  (-0.127078 0.0232756 0)
  (-0.12912 0.0259474 0)
  (-0.129589 0.0289573 0)
  (-0.128418 0.03198 0)
  (-0.125833 0.0347791 0)
  (-0.122153 0.0371979 0)
  (-0.11762 0.0391813 0)
  (-0.112397 0.0407218 0)
  (-0.106632 0.0418809 0)
  (-0.100504 0.0428106 0)
  (-0.0942916 0.0437632 0)
  (-0.0884332 0.0451422 0)
  (-0.083304 0.0477423 0)
  (-0.0783971 0.0532828 0)
  (-0.0714176 0.0645659 0)
  (-0.0607245 0.0824611 0)
  (-0.0564421 0.097074 0)
  (-0.0667305 0.0850043 0)
  (-0.0159002 -0.124485 0)
  (-0.108151 0.0390193 0)
  (-0.0994129 -0.0296119 0)
  (-0.141922 -0.0358499 0)
  (-0.16493 -0.0301529 0)
  (-0.165485 -0.0406932 0)
  (-0.164551 -0.0544936 0)
  (-0.167806 -0.0612672 0)
  (-0.173719 -0.0628813 0)
  (-0.179217 -0.0618649 0)
  (-0.182916 -0.0588887 0)
  (-0.184207 -0.0542088 0)
  (-0.18306 -0.0486663 0)
  (-0.180081 -0.0443814 0)
  (-0.175851 -0.042018 0)
  (-0.171245 -0.0419808 0)
  (-0.167187 -0.044426 0)
  (-0.164193 -0.0489039 0)
  (-0.162214 -0.0545567 0)
  (-0.160772 -0.0604294 0)
  (-0.159255 -0.0658153 0)
  (-0.157163 -0.0703841 0)
  (-0.154195 -0.0741003 0)
  (-0.15023 -0.0771875 0)
  (-0.145307 -0.0800191 0)
  (-0.139573 -0.0829774 0)
  (-0.133245 -0.0863414 0)
  (-0.126586 -0.0902593 0)
  (-0.119889 -0.0946745 0)
  (-0.113414 -0.0991571 0)
  (-0.107287 -0.102645 0)
  (-0.101291 -0.103195 0)
  (-0.0944119 -0.0980234 0)
  (-0.0841142 -0.0843356 0)
  (-0.0662266 -0.0613906 0)
  (-0.0376861 -0.0339895 0)
  (0.000355597 -0.0196866 0)
  (0.0433644 -0.0807238 0)
  (0.0228856 -0.201233 0)
  (0.0766914 0.374382 0)
  (-0.043518 -0.617873 0)
  (-0.346654 0.167783 0)
  (-0.260787 0.167875 0)
  (-0.250862 0.174054 0)
  (-0.239585 0.184812 0)
  (-0.227831 0.191809 0)
  (-0.222137 0.193062 0)
  (-0.222625 0.189505 0)
  (-0.226467 0.185591 0)
  (-0.231257 0.182945 0)
  (-0.235308 0.181093 0)
  (-0.237422 0.179507 0)
  (-0.236861 0.178716 0)
  (-0.233636 0.180254 0)
  (-0.228086 0.18423 0)
  (-0.22087 0.190631 0)
  (-0.212808 0.199263 0)
  (-0.204639 0.209612 0)
  (-0.196826 0.220874 0)
  (-0.189519 0.232131 0)
  (-0.182637 0.242642 0)
  (-0.175988 0.252034 0)
  (-0.169356 0.260312 0)
  (-0.162567 0.267751 0)
  (-0.155543 0.27474 0)
  (-0.148315 0.281655 0)
  (-0.140987 0.28882 0)
  (-0.133692 0.296511 0)
  (-0.126539 0.304913 0)
  (-0.119549 0.313971 0)
  (-0.112586 0.323151 0)
  (-0.105176 0.33124 0)
  (-0.0961774 0.336496 0)
  (-0.0836174 0.337625 0)
  (-0.0654822 0.335771 0)
  (-0.0414938 0.336173 0)
  (-0.0137749 0.343756 0)
  (0.015001 0.396035 0)
  (-0.0353838 0.525675 0)
)
;

boundaryField
{
  floor
  {
    type noSlip;
  }
  ceiling
  {
    type noSlip;
  }
  sWall
  {
    type noSlip;
  }
  nWall
  {
    type noSlip;
  }
  sideWalls
  {
    type empty;
  }
  glass1
  {
    type noSlip;
  }
  glass2
  {
    type noSlip;
  }
  sun
  {
    type noSlip;
  }
  heatsource1
  {
    type noSlip;
  }
  heatsource2
  {
    type noSlip;
  }
  Table_master
  {
    type noSlip;
  }
  Table_slave
  {
    type noSlip;
  }
  inlet
  {
    type fixedValue;
    value uniform (0.277164 -0.114805 0);
  }
  outlet
  {
    type zeroGradient;
  }
} 	// ************************************************************************* //

