/*--------------------------------*- C++ -*----------------------------------*\
  =========                 |
  \\      /  F ield         | OpenFOAM: The Open Source CFD Toolbox
   \\    /   O peration     | Website:  https://openfoam.org
    \\  /    A nd           | Version:  6
     \\/     M anipulation  |
\*---------------------------------------------------------------------------*/
FoamFile
{
    version     2.0;
    format      ascii;
    class       surfaceScalarField;
    location    "2000";
    object      phi;
}
// * * * * * * * * * * * * * * * * * * * * * * * * * * * * * * * * * * * * * //

dimensions      [1 0 -1 0 0 0 0];

internalField   nonuniform List<scalar> 
852
(
0.00480918
-0.00478533
0.00876715
-0.00395777
0.0108706
-0.00210327
0.0119671
-0.00109622
0.0126017
-0.000634475
0.0129255
-0.000323597
0.0129726
-4.6811e-05
0.0127695
0.000203262
0.0123282
0.000441487
0.0116387
0.000689687
0.0106688
0.000970131
0.0093533
0.0013157
0.0075508
0.0018027
0.0048659
0.00268509
0.00486427
-0.000332872
0.000334773
-0.000377446
4.46188e-05
-0.000351229
-2.61698e-05
-0.000353327
2.1477e-06
-0.00036904
1.57645e-05
-0.000327022
-4.19642e-05
-0.000201693
-0.000125273
2.50113e-05
-0.000226642
0.000191746
-0.000166668
0.000293118
-0.000101308
0.000367219
-7.40389e-05
0.000435904
-6.86243e-05
0.000512923
-7.69599e-05
0.00055517
-4.21889e-05
0.000543861
1.13661e-05
0.000492518
5.13992e-05
0.000470954
2.16185e-05
0.000388515
8.24907e-05
0.000390456
0.00467718
-0.0093953
0.00721895
-0.00649933
0.00858239
-0.0034665
0.00938721
-0.00190084
0.00989133
-0.00113839
0.0101759
-0.000607981
0.0102644
-0.000135137
0.0101526
0.000315321
0.00983304
0.000761239
0.00929307
0.00122985
0.00851944
0.00174396
0.00751011
0.00232522
0.00631189
0.00300111
0.00522235
0.00377483
0.00552325
0.00456356
0.00204396
0.00347944
0.00204409
0.000534667
-0.000196651
0.000516503
6.28356e-05
0.000344713
0.000145673
0.000189977
0.000156934
4.77615e-05
0.000158033
-0.000127969
0.000133822
-0.000162423
-9.07585e-05
-2.98496e-05
-0.000359148
2.68674e-05
-0.00022331
5.29464e-05
-0.000127312
5.83243e-05
-7.93442e-05
3.70719e-05
-4.73022e-05
-2.30053e-05
-1.68154e-05
-0.000104259
3.91311e-05
-0.000185706
9.28725e-05
-0.000290204
0.000155953
-0.000434099
0.000165569
-0.000480747
0.000129196
-8.65105e-05
0.00333795
-0.0126251
0.00492643
-0.0080876
0.00571939
-0.00425924
0.00623282
-0.00241407
0.00660801
-0.0015134
0.00685936
-0.000859142
0.00700405
-0.000279633
0.00702475
0.00029481
0.00689176
0.000894417
0.00658099
0.00154081
0.00608419
0.00224095
0.0054183
0.0029913
0.00464548
0.00377413
0.00386946
0.00455104
0.00310919
0.00532402
0.00167793
0.00491089
0.00372221
-0.000168108
-2.71448e-05
-0.000139323
3.4117e-05
-7.0454e-05
7.68689e-05
-4.88175e-06
9.1426e-05
7.71804e-05
7.60346e-05
0.000177553
3.35147e-05
8.70125e-05
-0.00027191
-0.000494984
-0.000622055
-0.000701158
-0.000748221
-0.0007648
-0.000725437
-0.000632335
-0.000393136
-8.31745e-05
-0.000180424
-4.70758e-05
1.59288e-05
-6.70833e-05
-7.13347e-05
0.00202312
-0.0145005
0.00289982
-0.00896408
0.00328177
-0.004641
0.003461
-0.00259311
0.00367855
-0.00173076
0.00388083
-0.00106125
0.00405299
-0.000451617
0.0041563
0.000191671
0.00414585
0.000905044
0.00399371
0.00169312
0.00368858
0.00254627
0.00323483
0.00344524
0.00264819
0.00436096
0.00194239
0.00525703
0.00117493
0.00609167
0.000339826
0.00574618
-0.000337316
0.00439946
-0.000924883
0.000584459
-0.00100094
4.9003e-05
-0.00103976
7.30243e-05
-0.00109483
0.000132042
-0.00118203
0.000178722
-0.00129683
0.000190936
-0.00142196
0.000158738
-0.00151982
9.78157e-05
-0.00154991
3.00336e-05
-0.00153509
-1.48712e-05
-0.00148899
-4.61563e-05
-0.00141905
-6.99932e-05
-0.00132872
-9.03799e-05
-0.00121786
-0.000110908
-0.001082
-0.00013591
-0.000909896
-0.000172142
-0.00075454
-0.000238413
-0.000510092
-0.000291401
-0.000220847
-0.000356198
-0.000297072
0.000929976
-0.0152441
0.0013178
-0.00935168
0.00133464
-0.00465764
0.00112344
-0.00238174
0.00123848
-0.00184564
0.00143929
-0.00126189
0.00162982
-0.000641991
0.00175158
7.00687e-05
0.00177233
0.000884458
0.00168257
0.00178305
0.00147277
0.00275624
0.00113672
0.00378148
0.00067132
0.00482654
0.000103163
0.00582537
-0.000410284
0.0066053
-0.000832535
0.0061686
-0.000888294
0.00445529
-0.00124636
0.000942615
-0.0014557
0.000258442
-0.00155366
0.000171086
-0.00160483
0.000183313
-0.00162601
0.0002
-0.00162789
0.000192915
-0.00162156
0.00015251
-0.00161089
8.72449e-05
-0.00159922
1.84678e-05
-0.00157697
-3.70217e-05
-0.00154402
-7.89965e-05
-0.00150279
-0.00011112
-0.00145503
-0.00013804
-0.00140113
-0.000164694
-0.00133919
-0.000197739
-0.0012652
-0.000246019
-0.00118997
-0.000313519
-0.00107752
-0.000403736
-0.000900155
-0.000533442
-0.000484473
-0.000712634
0.000428724
-0.000913285
0.0010045
-0.000575866
0.00102045
-1.3982e-05
-0.015006
2.02849e-06
-0.00936747
-0.00032045
-0.00433498
-0.000831637
-0.00187039
-0.000806242
-0.00187088
-0.000651821
-0.00141615
-0.000502201
-0.000791452
-0.000419415
-1.25596e-05
-0.000409277
0.000874484
-0.000464822
0.00183877
-0.000595942
0.00288754
-0.000809078
0.00399479
-0.00109654
0.00511419
-0.00140485
0.00613386
-0.00156914
0.00676977
-0.00159294
0.00619253
-0.0013321
0.00419452
-0.00149479
0.0011054
-0.00163171
0.000395459
-0.00169291
0.000232393
-0.00169662
0.000187129
-0.00166037
0.000163848
-0.00160274
0.00013539
-0.00154272
9.25978e-05
-0.00149286
3.74932e-05
-0.00145547
-1.882e-05
-0.00142649
-6.58984e-05
-0.00140382
-0.000101563
-0.0013872
-0.000127633
-0.00137823
-0.0001469
-0.00137925
-0.000163568
-0.00139222
-0.00018466
-0.00141764
-0.000220486
-0.00144874
-0.000282312
-0.00146688
-0.00038548
-0.00144488
-0.000555336
-0.00132335
-0.000834058
-0.00105281
-0.0011837
-0.000511389
-0.00111718
0.000528527
-0.00100054
-0.0137455
-0.00164435
-0.00872343
-0.00222844
-0.0037507
-0.00291515
-0.00118352
-0.00295243
-0.00183344
-0.00282694
-0.00154149
-0.00268817
-0.000930055
-0.00257571
-0.000124857
-0.002499
0.000797938
-0.00246117
0.00180111
-0.00245223
0.00287877
-0.00246605
0.00400879
-0.00248483
0.00513315
-0.00245663
0.00610584
-0.00227472
0.00658801
-0.00195788
0.00587579
-0.00151617
0.00375286
-0.00154132
0.00113065
-0.00157872
0.000432966
-0.00156605
0.000219838
-0.00150691
0.000128093
-0.00141676
7.38089e-05
-0.00131537
3.41069e-05
-0.00122067
-1.99569e-06
-0.00114522
-3.78431e-05
-0.0010929
-7.10258e-05
-0.0010593
-9.93942e-05
-0.00103954
-0.00012121
-0.00103191
-0.000135157
-0.00103787
-0.000140825
-0.00106213
-0.000139204
-0.00111274
-0.000133934
-0.00120012
-0.000133007
-0.00133136
-0.000150964
-0.00150609
-0.000210641
-0.00172451
-0.000336813
-0.00200895
-0.000549507
-0.00231333
-0.000879214
-0.00212582
-0.00130457
-0.00158268
-0.00358579
-0.00986756
-0.00547773
-0.00683126
-0.00554607
-0.00368216
-0.00575548
-0.000973946
-0.00531441
-0.00227434
-0.00493555
-0.00192018
-0.00467829
-0.00118715
-0.00448632
-0.000316661
-0.00432217
0.000633963
-0.00415525
0.00163435
-0.00395684
0.00268053
-0.00371002
0.00376216
-0.00339797
0.00482127
-0.00299609
0.00570412
-0.00247612
0.00606818
-0.00190067
0.00530044
-0.00136646
0.00321872
-0.00128373
0.00104803
-0.00123369
0.000383041
-0.00114128
0.000127534
-0.00100807
-4.99739e-06
-0.000860862
-7.32869e-05
-0.00072918
-9.74608e-05
-0.000626454
-0.000104607
-0.000553862
-0.000110321
-0.000505602
-0.000119171
-0.0004752
-0.000129682
-0.000457327
-0.000138968
-0.000448235
-0.000144132
-0.000445975
-0.00014297
-0.000450745
-0.000134317
-0.000465924
-0.000118639
-0.000499825
-9.89928e-05
-0.000567991
-8.26879e-05
-0.000696551
-8.1975e-05
-0.000928209
-0.000105053
-0.00133158
-0.000146033
-0.00191182
-0.000298877
-0.00203127
-0.00118501
-0.00354702
-0.00957212
-0.0164214
-0.0115276
-0.00857567
-0.00807347
-0.00442791
-0.00691523
-0.00343243
-0.00636823
-0.00246702
-0.00609545
-0.00145976
-0.00591192
-0.000500017
-0.00570456
0.00042677
-0.00540901
0.00133897
-0.00500283
0.00227452
-0.00446839
0.00322789
-0.00379948
0.00415253
-0.00301016
0.00491495
-0.002158
0.00521615
-0.00136702
0.00450955
-0.000715896
0.00256768
-0.000566855
0.000899096
-0.000462905
0.000279209
-0.000302379
-3.28735e-05
-0.000125749
-0.000181508
1.64673e-05
-0.000215384
0.000118976
-0.000199851
0.000188797
-0.000174309
0.000234704
-0.000156109
0.000263206
-0.000147555
0.000279427
-0.000145783
0.000287436
-0.000146857
0.000290877
-0.000147453
0.000293458
-0.000145429
0.000299269
-0.000140006
0.000312844
-0.000132093
0.000338914
-0.000124942
0.000381308
-0.000124963
0.000440331
-0.000140882
0.000512131
-0.000176741
0.000593011
-0.000226803
0.000640939
-0.000346698
0.000437738
-0.000981708
-0.00303448
-0.00921199
0.000271396
-0.00726063
-0.00637901
-0.00686717
-0.00382572
-0.00686852
-0.00246551
-0.00686474
-0.00146338
-0.00676044
-0.000604153
-0.00652187
0.000188369
-0.00614177
0.000959033
-0.00556111
0.00169403
-0.00475981
0.00242675
-0.00374592
0.0031388
-0.00256253
0.00373171
-0.00136358
0.00401734
-0.00019811
0.00334419
0.000597795
0.00177187
0.00081516
0.000681849
0.000940025
0.000154466
0.00103983
-0.000132551
0.00109711
-0.000238667
0.00112116
-0.000239306
0.00113033
-0.0002089
0.00113425
-0.000178106
0.00113519
-0.000156928
0.00113299
-0.000145225
0.00112698
-0.000139654
0.00111721
-0.000136962
0.00110497
-0.000135091
0.00109301
-0.000133344
0.00108548
-0.000132354
0.0010877
-0.000134189
0.00110557
-0.00014268
0.00114439
-0.00016366
0.00120768
-0.000204054
0.00129837
-0.000267316
0.00141613
-0.000344448
0.0014805
-0.000410953
0.00113299
-0.000634091
-0.00188571
-0.000535472
0.000775382
-0.00372607
-0.00318808
-0.00537879
-0.00217284
-0.00650423
-0.0013399
-0.00716079
-0.00080667
-0.00738588
-0.000378896
-0.00721598
1.86288e-05
-0.00673938
0.000482594
-0.00596433
0.000919149
-0.00488197
0.00134455
-0.00351285
0.00176984
-0.00189891
0.00211792
-8.4191e-05
0.00220276
0.00157222
0.00168789
0.00242533
0.000918875
0.00271647
0.000390847
0.00275326
0.000117801
0.00263175
-1.09125e-05
0.00245838
-6.51688e-05
0.00231153
-9.23291e-05
0.00220578
-0.00010302
0.00213416
-0.000106361
0.00208353
-0.000106163
0.0020419
-0.00010347
0.00200122
-9.88527e-05
0.00195762
-9.32355e-05
0.00191057
-8.79085e-05
0.00186174
-8.43952e-05
0.00181394
-8.44247e-05
0.00176997
-9.00895e-05
0.00173159
-0.000104183
0.00169869
-0.000130629
0.00166951
-0.000174753
0.00164544
-0.000243129
0.00164642
-0.000345304
0.00173836
-0.000502781
0.00188187
-0.000777495
1.20783e-05
0.00402581
0.000706415
0.00141138
-0.0018495
-0.00409385
-0.00550676
-0.00638702
-0.00683974
-0.00689485
-0.00648557
-0.00563941
-0.00436736
-0.00266935
-0.000622385
0.0015113
0.0031328
0.00398729
0.0043157
0.00437338
0.00430507
0.00418567
0.00404177
0.00388907
0.00373424
0.0035803
0.00342944
0.00328343
0.00314321
0.00300852
0.00287757
0.00274687
0.00261079
0.00246086
0.00228469
0.00206448
0.00177581
0.00138464
0.000835212
1.05606e-05
)
;

boundaryField
{
    floor
    {
        type            calculated;
        value           nonuniform List<scalar> 
29
(
0
0
0
0
0
0
0
0
0
0
0
0
0
0
0
0
0
0
0
0
-1.89149e-06
-3.72254e-06
8.5651e-07
5.0315e-06
1.83269e-06
-1.85773e-06
-3.18649e-06
-1.33698e-06
3.18537e-06
)
;
    }
    ceiling
    {
        type            calculated;
        value           nonuniform List<scalar> 
43
(
0.000167175
0.000162063
7.09966e-05
7.33148e-05
7.16839e-05
7.31655e-05
7.37459e-05
7.3982e-05
7.3897e-05
7.34798e-05
7.31449e-05
7.2661e-05
7.19887e-05
7.11234e-05
6.9227e-05
6.65325e-05
6.45303e-05
6.25726e-05
6.02691e-05
5.75312e-05
5.43771e-05
5.17074e-05
4.98101e-05
4.8608e-05
4.79093e-05
4.75221e-05
4.72921e-05
4.71105e-05
4.69133e-05
4.66758e-05
4.64035e-05
4.61215e-05
4.58644e-05
4.56704e-05
4.55814e-05
4.5654e-05
4.59853e-05
4.67601e-05
4.72639e-05
4.71964e-05
2.13903e-05
1.82698e-05
3.18543e-05
)
;
    }
    sWall
    {
        type            calculated;
        value           uniform -6.35301e-05;
    }
    nWall
    {
        type            calculated;
        value           nonuniform List<scalar> 6(-1.60365e-05 -1.93556e-05 -1.44736e-05 -1.56676e-05 -1.5806e-05 -2.44553e-05);
    }
    sideWalls
    {
        type            empty;
        value           nonuniform 0();
    }
    glass1
    {
        type            calculated;
        value           nonuniform List<scalar> 9(-2.36388e-05 -6.69994e-05 -0.000107904 -0.000147509 -0.000186167 -0.000223879 -0.000259795 -0.000291893 -0.000316586);
    }
    glass2
    {
        type            calculated;
        value           nonuniform List<scalar> 2(-6.68299e-05 -7.47043e-05);
    }
    sun
    {
        type            calculated;
        value           uniform 0;
    }
    heatsource1
    {
        type            calculated;
        value           nonuniform List<scalar> 3(2.00572e-07 2.00592e-07 2.00668e-07);
    }
    heatsource2
    {
        type            calculated;
        value           nonuniform List<scalar> 4(4.89382e-08 4.934e-08 0 0);
    }
    Table_master
    {
        type            calculated;
        value           nonuniform List<scalar> 9(-1.52131e-07 -1.52176e-07 -1.5209e-07 -1.5199e-07 -1.51908e-07 -1.51837e-07 -1.51773e-07 -1.51711e-07 -1.51622e-07);
    }
    Table_slave
    {
        type            calculated;
        value           nonuniform List<scalar> 9(1.50592e-07 1.50569e-07 1.50559e-07 1.50557e-07 1.50568e-07 1.5059e-07 1.50621e-07 1.50663e-07 1.50699e-07);
    }
    inlet
    {
        type            calculated;
        value           uniform 0.000365262;
    }
    outlet
    {
        type            calculated;
        value           nonuniform List<scalar> 2(-0.00412901 0.00315779);
    }
}


// ************************************************************************* //
