/*--------------------------------*- C++ -*----------------------------------*\
  =========                 |
  \\      /  F ield         | OpenFOAM: The Open Source CFD Toolbox
   \\    /   O peration     | Website:  https://openfoam.org
    \\  /    A nd           | Version:  6
     \\/     M anipulation  |
\*---------------------------------------------------------------------------*/
FoamFile
{
    version     2.0;
    format      ascii;
    class       surfaceScalarField;
    location    "200";
    object      phi;
}
// * * * * * * * * * * * * * * * * * * * * * * * * * * * * * * * * * * * * * //

dimensions      [1 0 -1 0 0 0 0];

internalField   nonuniform List<scalar> 
852
(
0.00300705
-0.00302728
0.00373884
-0.000731874
0.0045331
-0.000794334
0.00504319
-0.000510172
0.00520469
-0.000161587
0.00516917
3.54387e-05
0.00503407
0.000135019
0.00483284
0.000201147
0.00457816
0.000254592
0.00427274
0.000305344
0.00390585
0.000366798
0.0034467
0.000459065
0.0028265
0.000620115
0.0018593
0.000967113
0.00185421
0.000230174
-0.000236684
0.000445563
-0.000215475
0.000843516
-0.00039804
0.00117018
-0.000326747
0.00136471
-0.000194626
0.00145448
-8.98519e-05
0.0014967
-4.23111e-05
0.00152763
-3.10152e-05
0.00155031
-2.27692e-05
0.0015641
-1.38813e-05
0.00156832
-4.30484e-06
0.00155961
8.62046e-06
0.00153025
2.92785e-05
0.00146445
6.57202e-05
0.0013304
0.00013397
0.00107622
0.000254105
0.000680548
0.000395603
7.75422e-06
0.000672725
-9.41644e-07
0.00143912
-0.0045232
0.00258121
-0.00187404
0.00335711
-0.00157032
0.00366376
-0.000816907
0.00375422
-0.000252123
0.00373076
5.88122e-05
0.00363008
0.000235616
0.00347949
0.000351645
0.0032958
0.000438198
0.00308543
0.000515627
0.00284743
0.000604716
0.00257797
0.00072844
0.00228546
0.000912534
0.00208034
0.00117214
0.00241071
0.00152376
0.00113144
0.00127913
0.0011313
-5.19593e-05
-0.000200702
0.000611406
-0.000878927
0.0009752
-0.000761919
0.00121572
-0.000567347
0.00133953
-0.000318519
0.00136849
-0.000118899
0.00137262
-4.65302e-05
0.00138322
-4.17001e-05
0.00139125
-3.08933e-05
0.00139756
-2.0282e-05
0.00140229
-9.12025e-06
0.00140424
6.57585e-06
0.00140098
3.24536e-05
0.00138639
8.02288e-05
0.00132541
0.000194871
0.0010878
0.000491633
0.000748615
0.000734717
0.000489259
0.00093201
0.000465364
0.000653164
-0.00526857
0.00168875
-0.00290971
0.0022086
-0.00209025
0.00227713
-0.00088552
0.00226555
-0.000240627
0.00222475
9.95247e-05
0.00215467
0.000305604
0.00206849
0.000437738
0.00197558
0.000531021
0.00187936
0.000611757
0.00178243
0.000701557
0.00169094
0.000819846
0.00162023
0.000983157
0.0015905
0.00120178
0.00157861
0.00153556
0.0011344
0.00172325
0.00226561
0.000531912
-0.000759562
0.000901006
-0.00124811
0.00121838
-0.00107937
0.00136918
-0.000718223
0.00139944
-0.00034886
0.0012577
2.27592e-05
0.00121124
0.00116961
0.00113878
0.00111856
0.0011095
0.00111614
0.00114866
0.00122896
0.00142391
0.00109454
0.000820922
0.000875843
0.000953343
0.000743166
0.00106461
0.00117386
0.000132084
-0.00552945
0.000792564
-0.00357027
0.000943587
-0.00224136
0.000826622
-0.000768643
0.000754561
-0.000168655
0.00072069
0.000133305
0.000711172
0.000315031
0.000714075
0.000434745
0.000723438
0.000521568
0.000739953
0.000595152
0.000769111
0.000672309
0.000819387
0.00076948
0.000899455
0.000902999
0.00101711
0.00108404
0.00120942
0.00134316
0.00148229
0.00145029
0.00232606
0.00142175
0.00208965
0.000201954
0.00214891
-0.000818909
0.00184074
-0.000940014
0.00163593
-0.000874641
0.00153717
-0.000619532
0.00151453
-0.000326291
0.00161938
-8.21574e-05
0.00159079
2.8358e-05
0.00154356
4.70056e-05
0.00147043
7.29002e-05
0.00137197
9.82329e-05
0.00124679
0.00012494
0.00108844
0.000158106
0.000885276
0.000202922
0.000618195
0.00026683
0.000258322
0.000359623
0.000565311
0.000513867
0.000726209
0.000792374
0.000941221
0.00084953
0.00207136
-0.000377066
-0.00531795
-0.000336418
-0.003611
-0.00031868
-0.00225918
-0.000415069
-0.000672346
-0.000485784
-9.80324e-05
-0.000498747
0.000146174
-0.000467683
0.000283875
-0.000411396
0.000378364
-0.000338055
0.000448135
-0.00024701
0.000504015
-0.00013116
0.000556366
2.17787e-05
0.00061645
0.000224197
0.000700491
0.000492037
0.000816108
0.000875191
0.00095992
0.00135433
0.00097106
0.00196008
0.000815918
0.00214346
1.84913e-05
0.00185357
-0.00052909
0.00159921
-0.000685733
0.00135495
-0.000630448
0.00118053
-0.000445183
0.00108005
-0.000225878
0.00103205
-3.42222e-05
0.000980194
8.01379e-05
0.000901571
0.000125555
0.000815257
0.000159138
0.000717234
0.000196176
0.00060202
0.00024007
0.000463593
0.000296447
0.000298086
0.000368339
0.000123045
0.00044178
4.79491e-05
0.00043463
0.000221905
0.000339838
0.000618026
0.00039618
0.00134415
0.000123334
0.00248814
0.000927296
0.00114864
0.00133922
-0.000318723
0.00146708
-0.00036484
-0.000916649
-0.00460419
-0.00110336
-0.00342437
-0.00107688
-0.00228575
-0.00119755
-0.000551768
-0.0012917
-3.971e-06
-0.00132692
0.000181302
-0.00130795
0.000264813
-0.00124667
0.000316986
-0.00115165
0.00035302
-0.00102516
0.000377429
-0.000863848
0.000394967
-0.000660186
0.000412697
-0.000398866
0.000439081
-5.77419e-05
0.000474895
0.000375752
0.00052634
0.000840564
0.000506166
0.00130529
0.000351118
0.00138776
-6.40542e-05
0.00121706
-0.000358455
0.000990554
-0.000459298
0.000762933
-0.000402894
0.000578889
-0.000261206
0.000454247
-0.000101305
0.000382719
3.72342e-05
0.000335869
0.000126915
0.000281831
0.000179517
0.000217592
0.000223299
0.000142387
0.000271301
5.51739e-05
0.000327201
-3.96551e-05
0.000391191
-0.000124572
0.000453171
-0.000163293
0.000480414
-0.0001282
0.000399451
-1.24706e-05
0.000224023
0.000228312
0.000155308
0.000349929
1.62562e-06
0.000584231
0.000692914
0.000217942
0.00170543
-0.000465038
0.00214997
-0.00087451
-0.00140331
-0.00344115
-0.00175263
-0.00307512
-0.00162506
-0.00241341
-0.00169896
-0.000477968
-0.00178705
8.40283e-05
-0.00183878
0.000232945
-0.00184085
0.000266788
-0.00179353
0.000269566
-0.00170252
0.000261921
-0.00157131
0.000246124
-0.00139951
0.000223083
-0.00118384
0.00019694
-0.000918687
0.000173837
-0.000601166
0.00015729
-0.000225395
0.000150488
0.000157603
0.000123092
0.000463987
4.46638e-05
0.000520455
-0.00012059
0.000416633
-0.000254699
0.000242679
-0.000285411
6.52671e-05
-0.000225549
-7.51588e-05
-0.000120848
-0.000164323
-1.2211e-05
-0.000206705
7.95429e-05
-0.000227955
0.00014809
-0.00025228
0.000203765
-0.000285081
0.000256021
-0.000323374
0.000309514
-0.000360441
0.000364186
-0.00038422
0.000414888
-0.000378031
0.000446898
-0.000328776
0.000431074
-0.000256924
0.000327514
-0.000202621
0.000169633
-0.000130337
8.29344e-05
-0.000205458
7.66603e-05
-0.000187705
0.000675076
-0.000294244
0.00181189
-0.000152513
0.00200816
-0.00106915
-0.00186996
-0.00184831
-0.00258407
-0.00236107
-0.00228015
-0.00271741
-0.00200363
-0.000754574
-0.00199971
8.00138e-05
-0.00205398
0.000287129
-0.00206922
0.000281932
-0.00203659
0.000236845
-0.00196207
0.00018731
-0.00184977
0.000133742
-0.00170083
7.40485e-05
-0.0015163
1.23213e-05
-0.00129823
-4.43111e-05
-0.00105316
-8.78635e-05
-0.000790371
-0.000112378
-0.00054133
-0.000126021
-0.000350653
-0.000146083
-0.000284384
-0.000186929
-0.000328444
-0.00021071
-0.000426262
-0.000187663
-0.00052639
-0.000125493
-0.000601335
-4.59772e-05
-0.000641577
2.79562e-05
-0.000653665
9.1556e-05
-0.000653969
0.000148318
-0.000652036
0.000201755
-0.000649491
0.000253397
-0.000642698
0.000302641
-0.000624852
0.00034626
-0.000586921
0.000376877
-0.000520752
0.000380648
-0.000427121
0.00033736
-0.00033047
0.000230779
-0.000250373
8.94491e-05
-0.00015388
-1.3647e-05
-6.65386e-05
-1.07695e-05
0.000204777
0.000403673
0.000692214
0.00132436
0.00157608
0.0011242
0.000240704
-0.00221073
-0.00461452
-0.00262843
-0.00470356
-0.0017375
-0.0016456
-0.00182322
0.00016565
-0.00189847
0.000362301
-0.00190243
0.000285801
-0.00186334
0.00019767
-0.00179777
0.000121663
-0.00170952
4.5401e-05
-0.00159815
-3.73982e-05
-0.00147115
-0.000114765
-0.00133412
-0.000181419
-0.00119193
-0.000230124
-0.0010512
-0.000253186
-0.000924885
-0.000252406
-0.000831034
-0.000240009
-0.000794259
-0.00022378
-0.000810084
-0.000194962
-0.000849867
-0.000147958
-0.000888425
-8.70125e-05
-0.000916916
-1.75641e-05
-0.000926993
3.7955e-05
-0.000921403
8.58877e-05
-0.000905128
0.000131964
-0.00088069
0.000177238
-0.000848058
0.000220685
-0.000805366
0.000259869
-0.000749629
0.000290442
-0.000677818
0.000304984
-0.000589366
0.000292114
-0.000490482
0.000238394
-0.000396894
0.000137107
-0.000310643
3.11396e-06
-0.000196835
-0.000127541
-9.14445e-06
-0.000198547
0.00038912
5.32057e-06
0.00112879
0.000584603
0.00181011
0.000442789
0.00176132
0.000691716
-0.00092268
-0.00108036
0.000126391
-0.00139042
0.000475638
-0.0013957
0.000367503
-0.00133047
0.000220499
-0.00124772
0.000114844
-0.00116966
4.35338e-05
-0.00110193
-2.24033e-05
-0.00104734
-9.20591e-05
-0.00100728
-0.000154897
-0.000979663
-0.000209097
-0.000960748
-0.000249103
-0.000947422
-0.000266579
-0.000939951
-0.000259949
-0.000941985
-0.000238052
-0.000961346
-0.0002045
-0.000994558
-0.000161832
-0.0010274
-0.0001152
-0.00104729
-6.71982e-05
-0.00105626
-8.68466e-06
-0.00105336
3.49812e-05
-0.00103902
7.14645e-05
-0.00101294
0.000105805
-0.000974564
0.000138775
-0.000923463
0.000169503
-0.000859558
0.000195882
-0.000783535
0.000214337
-0.000697841
0.000219207
-0.000608409
0.000202599
-0.000526323
0.000156226
-0.000466482
7.71823e-05
-0.000438008
-2.54442e-05
-0.000438245
-0.000127389
-0.000438115
-0.000198763
-0.000376247
-5.66342e-05
-0.000162426
0.000370693
-9.89667e-05
0.000379243
0.00160988
-0.00129451
0.000309294
-0.00138634
0.000218173
-0.00102797
0.000117209
-0.00072745
6.69261e-05
-0.000528943
2.193e-05
-0.000401481
-1.26798e-05
-0.000317655
-4.03542e-05
-0.000274556
-6.55633e-05
-0.000278926
-8.7747e-05
-0.000321625
-0.000112253
-0.000393431
-0.000137343
-0.000482469
-0.000160118
-0.000571195
-0.000177909
-0.000647556
-0.000183653
-0.000727105
-0.00015858
-0.000812788
-0.000118899
-0.0008939
-8.08042e-05
-0.000965265
-4.39205e-05
-0.00102352
-9.02778e-06
-0.00105056
1.8272e-05
-0.00106068
4.50166e-05
-0.00105802
6.87186e-05
-0.00104176
8.9462e-05
-0.00101086
0.000107791
-0.000964792
0.000123353
-0.000903947
0.000134953
-0.000830216
0.000140522
-0.00074814
0.000137048
-0.000666663
0.000121038
-0.000600933
9.04123e-05
-0.000571374
4.75398e-05
-0.000597166
2.64503e-07
-0.000681773
-4.28661e-05
-0.000828253
-5.23667e-05
-0.000888828
3.85526e-06
-0.000691886
0.000173666
-0.000754245
0.000441516
0.000788098
-0.00230744
0.00143119
0.00157746
0.0016825
0.00169924
0.00167081
0.00160061
0.00149855
0.00137124
0.00122076
0.00104979
0.000855753
0.00063791
0.000398461
0.000142279
-0.00011872
-0.000354065
-0.000549387
-0.000706401
-0.00082645
-0.000911691
-0.000969757
-0.00100123
-0.00100916
-0.000996488
-0.000965607
-0.000919225
-0.000861222
-0.000797515
-0.000737004
-0.000692064
-0.000677185
-0.000704625
-0.000779024
-0.000896305
-0.00102294
-0.00109299
-0.00099183
-0.000622548
)
;

boundaryField
{
    floor
    {
        type            calculated;
        value           nonuniform List<scalar> 
29
(
0
0
0
0
0
0
0
0
0
0
0
0
0
0
0
0
0
0
0
0
8.61498e-06
2.28828e-05
3.46036e-05
4.36421e-05
5.00439e-06
6.42339e-06
1.58881e-05
2.68594e-05
3.43743e-05
)
;
    }
    ceiling
    {
        type            calculated;
        value           nonuniform List<scalar> 
43
(
0.000227013
0.000258851
0.000163146
0.00011317
0.000100474
9.53388e-05
9.20988e-05
8.93512e-05
8.69113e-05
8.48762e-05
8.31818e-05
8.17397e-05
8.04632e-05
7.92984e-05
7.82389e-05
7.73003e-05
7.66896e-05
7.63379e-05
7.61228e-05
7.60411e-05
7.61254e-05
7.62518e-05
7.63997e-05
7.65612e-05
7.67089e-05
7.68239e-05
7.6885e-05
7.68648e-05
7.67311e-05
7.64523e-05
7.60132e-05
7.54491e-05
7.48968e-05
7.45795e-05
7.4333e-05
7.41844e-05
7.38259e-05
7.24212e-05
7.21506e-05
7.93521e-05
4.55094e-05
4.26546e-05
6.25142e-05
)
;
    }
    sWall
    {
        type            calculated;
        value           uniform 0.000302185;
    }
    nWall
    {
        type            calculated;
        value           nonuniform List<scalar> 6(4.58335e-05 4.45496e-05 4.20429e-05 5.23889e-05 6.74513e-05 8.61141e-05);
    }
    sideWalls
    {
        type            empty;
        value           nonuniform 0();
    }
    glass1
    {
        type            calculated;
        value           nonuniform List<scalar> 9(2.01506e-05 5.67222e-05 9.21301e-05 0.000128717 0.000165492 0.000202818 0.000240193 0.000277053 0.000316849);
    }
    glass2
    {
        type            calculated;
        value           nonuniform List<scalar> 2(0.000266144 0.000289408);
    }
    sun
    {
        type            calculated;
        value           uniform 0;
    }
    heatsource1
    {
        type            calculated;
        value           nonuniform List<scalar> 3(2.02959e-07 2.03218e-07 2.03398e-07);
    }
    heatsource2
    {
        type            calculated;
        value           nonuniform List<scalar> 4(5.09813e-08 5.11295e-08 0 0);
    }
    Table_master
    {
        type            calculated;
        value           nonuniform List<scalar> 9(-1.52779e-07 -1.52822e-07 -1.52827e-07 -1.52826e-07 -1.52819e-07 -1.52805e-07 -1.52782e-07 -1.52746e-07 -1.52679e-07);
    }
    Table_slave
    {
        type            calculated;
        value           nonuniform List<scalar> 9(1.52501e-07 1.52534e-07 1.52532e-07 1.52538e-07 1.52551e-07 1.52572e-07 1.52601e-07 1.5264e-07 1.52699e-07);
    }
    inlet
    {
        type            calculated;
        value           uniform -0.00447262;
    }
    outlet
    {
        type            calculated;
        value           nonuniform List<scalar> 2(0.00177853 -0.0039972);
    }
}


// ************************************************************************* //
