/*--------------------------------*- C++ -*----------------------------------*\
  =========                 |
  \\      /  F ield         | OpenFOAM: The Open Source CFD Toolbox
   \\    /   O peration     | Website:  https://openfoam.org
    \\  /    A nd           | Version:  6
     \\/     M anipulation  |
\*---------------------------------------------------------------------------*/
FoamFile
{
    version     2.0;
    format      ascii;
    class       volScalarField;
    location    "260";
    object      nut;
}
// * * * * * * * * * * * * * * * * * * * * * * * * * * * * * * * * * * * * * //

dimensions      [0 2 -1 0 0 0 0];

internalField   nonuniform List<scalar> 
459
(
0.00119212
0.00146972
0.00148016
0.00141683
0.00134665
0.00128239
0.0012242
0.00117222
0.0011243
0.0010785
0.00103308
0.000986046
0.000934649
0.000873577
0.000802788
0.000580476
0.000759486
0.00081325
0.000822094
0.000790217
0.000752225
0.000704915
0.000658764
0.000617677
0.000581753
0.000550313
0.000522605
0.000497818
0.000475566
0.000454686
0.000433783
0.000411586
0.000378024
0.000362594
0.00138261
0.00427351
0.00363554
0.00331356
0.00309403
0.00295112
0.00285865
0.0027577
0.00263834
0.0024945
0.00231653
0.00209382
0.00181918
0.00148915
0.00113573
0.000782912
0.000695441
0.000881205
0.00265245
0.0022819
0.00235683
0.00249124
0.00245544
0.00189721
0.00161196
0.00141657
0.00127166
0.00116001
0.0010721
0.00100298
0.000930414
0.000848494
0.000770608
0.000751805
0.000683234
0.000451332
0.00142455
0.00475812
0.00348319
0.00326751
0.00315736
0.00316773
0.00325573
0.00332457
0.00332637
0.00323788
0.0030518
0.00277147
0.00241011
0.00198979
0.00155262
0.00114762
0.000706476
0.00092038
0.00268052
0.00236191
0.00261374
0.00295667
0.00291663
0.000927148
0.000819781
0.00073074
0.000657559
0.000597303
0.000547439
0.000506074
0.000473273
0.000449634
0.000505016
0.000661672
0.000833393
0.000516199
0.00141265
0.00432668
0.00302079
0.00326105
0.00328966
0.00346542
0.00370823
0.00383368
0.00383341
0.00371638
0.00349462
0.00318274
0.00279955
0.00236901
0.00191904
0.00148293
0.00100903
0.00071998
0.00136381
0.00185951
0.00263068
0.00340418
0.00393775
0.00378554
0.00100917
0.000927249
0.000862323
0.000805998
0.000753151
0.000700744
0.000646684
0.000589018
0.000523127
0.000494425
0.000622561
0.00100041
0.000599151
0.00141651
0.00355692
0.00268245
0.00343998
0.00365363
0.00403207
0.0042606
0.00426622
0.00418724
0.00403236
0.00380332
0.0035065
0.00315687
0.00277845
0.00239443
0.00204345
0.00175831
0.00185812
0.00253774
0.00349237
0.00438574
0.00504372
0.00541309
0.00542128
0.00466456
0.00420634
0.0037549
0.00330841
0.00286002
0.00240812
0.00195191
0.00149331
0.00102995
0.000704268
0.000678386
0.00100749
0.000853815
0.000665599
0.000729663
0.00107634
0.0014016
0.00296295
0.00248611
0.00353994
0.00397844
0.00445148
0.00467836
0.00464527
0.00454902
0.00441383
0.00423606
0.00401038
0.00375214
0.00349745
0.00328118
0.00318217
0.00329203
0.00395101
0.00485328
0.00563717
0.00620004
0.00651609
0.00660912
0.00650143
0.00615527
0.00566588
0.00507126
0.0044261
0.00375964
0.00308937
0.00242715
0.00178959
0.00123188
0.000919675
0.00087758
0.00101789
0.000997649
0.00106538
0.00157239
0.00143279
0.00137609
0.00247766
0.00222855
0.00373689
0.00433251
0.00465777
0.00491237
0.00492688
0.00488672
0.00483009
0.0047576
0.00467318
0.00459246
0.00454167
0.00458378
0.00480191
0.00527207
0.00603938
0.00669328
0.00711526
0.00731023
0.00729936
0.00712983
0.00683501
0.0063968
0.00584706
0.005221
0.00454645
0.00385379
0.00317574
0.00254971
0.00202044
0.00163951
0.00145785
0.00140543
0.00136759
0.00118986
0.00150114
0.00284784
0.00195168
0.00133427
0.00193863
0.00180642
0.00390185
0.00489489
0.00498055
0.00500695
0.0049806
0.00498983
0.00502041
0.00506305
0.00512339
0.00521781
0.0053732
0.00562907
0.00603683
0.00657234
0.00712563
0.00746429
0.00755681
0.00743557
0.00713278
0.00668519
0.00618742
0.00568199
0.00516706
0.00463394
0.00409125
0.00356857
0.00310707
0.00274861
0.00252249
0.00242872
0.00241755
0.00236729
0.00220497
0.00175532
0.00205363
0.00518115
0.00270148
0.00130961
0.00120032
0.00122881
0.00382021
0.00552531
0.00558054
0.00546907
0.00544335
0.00548828
0.00555749
0.0056395
0.00574068
0.00587442
0.00605707
0.00630339
0.00661387
0.00693631
0.00716402
0.00718951
0.0069939
0.00661614
0.00614227
0.00566034
0.0052149
0.00482508
0.00448748
0.00419472
0.00395295
0.00378023
0.00369583
0.0037092
0.00381022
0.00395853
0.00407261
0.00404307
0.00380302
0.00322655
0.00333891
0.00701067
0.00304911
0.000896014
0.00339354
0.00606596
0.0064036
0.00649815
0.00660778
0.00671507
0.00680289
0.00687234
0.00693124
0.00698777
0.00704785
0.00711212
0.00716997
0.00719242
0.00713992
0.00699187
0.00676598
0.00649891
0.0062272
0.00597558
0.00575718
0.00557735
0.00543927
0.00534823
0.00531305
0.00534361
0.0054461
0.00561715
0.00583628
0.00605697
0.00620044
0.00615951
0.00588113
0.00533916
0.00526378
0.00740713
0.00259592
0.00231213
0.00672915
0.00741029
0.00743593
0.00754656
0.00769897
0.00782542
0.00790849
0.00795397
0.00797124
0.00796777
0.007949
0.00791923
0.00788111
0.00783335
0.00776955
0.00768166
0.00756941
0.00744212
0.00731172
0.00718662
0.00707268
0.00697616
0.00690492
0.00686806
0.00687523
0.00693517
0.00705364
0.00722981
0.00744977
0.00767531
0.00782789
0.00777818
0.0074357
0.00683949
0.00629912
0.00578242
0.00217479
0.00131262
0.00139212
0.00167113
0.00183151
0.00185574
0.0018759
0.00188647
0.00189352
0.00189755
0.00189924
0.00189947
0.00189902
0.00189856
0.00189861
0.00189933
0.00190026
0.00190017
0.00189767
0.00189219
0.00188436
0.00187533
0.00186621
0.00185792
0.00185117
0.00184655
0.00184465
0.00184601
0.00185111
0.00186026
0.00187327
0.00188913
0.00190529
0.00191675
0.0019161
0.00190083
0.00188331
0.00189867
0.00196557
0.00201488
0.00181469
)
;

boundaryField
{
    floor
    {
        type            nutkWallFunction;
        Cmu             0.09;
        kappa           0.41;
        E               9.8;
        value           nonuniform List<scalar> 
29
(
9.72334e-05
6.99167e-05
9.19906e-05
9.84933e-05
9.95585e-05
9.57146e-05
9.11093e-05
8.53356e-05
7.96587e-05
7.45646e-05
7.0077e-05
6.6122e-05
6.26136e-05
5.94556e-05
5.66042e-05
5.39134e-05
5.12041e-05
4.83092e-05
4.38941e-05
4.18468e-05
4.18468e-05
5.34772e-05
6.17965e-05
7.22518e-05
9.72334e-05
6.99166e-05
0.000106641
0.000111304
8.71804e-05
)
;
    }
    ceiling
    {
        type            nutkWallFunction;
        Cmu             0.09;
        kappa           0.41;
        E               9.8;
        value           nonuniform List<scalar> 
43
(
0.000156918
0.000165959
0.000197267
0.000214999
0.000217665
0.00021988
0.00022104
0.000221813
0.000222255
0.000222441
0.000222466
0.000222417
0.000222367
0.000222373
0.000222452
0.000222554
0.000222545
0.000222271
0.000221671
0.000220811
0.00021982
0.000218819
0.000217908
0.000217165
0.000216658
0.000216448
0.000216597
0.000217158
0.000218162
0.00021959
0.000221329
0.000223099
0.000224353
0.000224282
0.000222607
0.000220685
0.000222369
0.000229687
0.000235065
0.000213146
0.000156527
0.000144007
0.000267178
)
;
    }
    sWall
    {
        type            nutkWallFunction;
        Cmu             0.09;
        kappa           0.41;
        E               9.8;
        value           uniform 0.00015692;
    }
    nWall
    {
        type            nutkWallFunction;
        Cmu             0.09;
        kappa           0.41;
        E               9.8;
        value           nonuniform List<scalar> 6(0.000129665 0.000170559 0.000228164 0.000297459 0.000252404 0.000213143);
    }
    sideWalls
    {
        type            empty;
    }
    glass1
    {
        type            nutkWallFunction;
        Cmu             0.09;
        kappa           0.41;
        E               9.8;
        value           nonuniform List<scalar> 9(0.000143058 0.000164825 0.00016957 0.000168225 0.000168662 0.000166974 0.000164083 0.000159331 0.000156516);
    }
    glass2
    {
        type            nutkWallFunction;
        Cmu             0.09;
        kappa           0.41;
        E               9.8;
        value           nonuniform List<scalar> 2(0.000308487 0.000344948);
    }
    sun
    {
        type            nutkWallFunction;
        Cmu             0.09;
        kappa           0.41;
        E               9.8;
        value           nonuniform List<scalar> 
14
(
0.000143071
0.000174687
0.000175863
0.000168721
0.000160763
0.000153436
0.000146765
0.000140777
0.000135229
0.000129903
0.000124594
0.000119069
0.000112996
0.00010573
)
;
    }
    heatsource1
    {
        type            nutkWallFunction;
        Cmu             0.09;
        kappa           0.41;
        E               9.8;
        value           nonuniform List<scalar> 3(8.0496e-05 8.83582e-05 0.000129674);
    }
    heatsource2
    {
        type            nutkWallFunction;
        Cmu             0.09;
        kappa           0.41;
        E               9.8;
        value           nonuniform List<scalar> 4(9.48324e-05 8.41739e-05 8.41739e-05 8.55268e-05);
    }
    Table_master
    {
        type            nutkWallFunction;
        Cmu             0.09;
        kappa           0.41;
        E               9.8;
        value           nonuniform List<scalar> 9(0.000112113 9.92821e-05 8.84912e-05 7.95052e-05 7.2016e-05 6.57488e-05 6.04965e-05 5.62939e-05 5.32425e-05);
    }
    Table_slave
    {
        type            nutkWallFunction;
        Cmu             0.09;
        kappa           0.41;
        E               9.8;
        value           nonuniform List<scalar> 9(0.0001218 0.000112127 0.00010439 9.76218e-05 9.12213e-05 8.48211e-05 7.81586e-05 7.09771e-05 6.26648e-05);
    }
    inlet
    {
        type            calculated;
        value           uniform 0.000100623;
    }
    outlet
    {
        type            calculated;
        value           nonuniform List<scalar> 2(0.00131262 0.00139212);
    }
}


// ************************************************************************* //
