// -*- C++ -*-
// File generated by PyFoam - sorry for the ugliness

FoamFile
{
 version 2.0;
 format ascii;
 class volScalarField;
 location "2000";
 object T;
}

dimensions [ 0 0 0 1 0 0 0 ];

internalField nonuniform List<scalar> 459
(
  303.923
  303.667
  303.656
  303.654
  303.652
  303.649
  303.646
  303.642
  303.638
  303.63
  303.62
  303.607
  303.594
  303.584
  303.578
  303.628
  303.608
  303.607
  303.608
  303.61
  303.611
  303.612
  303.614
  303.615
  303.617
  303.619
  303.622
  303.625
  303.629
  303.634
  303.641
  303.648
  303.659
  303.681
  304.107
  303.708
  303.69
  303.696
  303.701
  303.705
  303.706
  303.705
  303.7
  303.687
  303.665
  303.638
  303.61
  303.586
  303.57
  303.561
  303.556
  303.614
  303.602
  303.602
  303.604
  303.606
  303.606
  303.606
  303.605
  303.604
  303.603
  303.603
  303.603
  303.605
  303.607
  303.611
  303.618
  303.627
  303.642
  303.671
  304.298
  303.755
  303.725
  303.739
  303.756
  303.77
  303.781
  303.786
  303.783
  303.763
  303.727
  303.68
  303.632
  303.595
  303.573
  303.564
  303.562
  303.591
  303.596
  303.603
  303.61
  303.616
  303.618
  303.615
  303.613
  303.61
  303.608
  303.606
  303.606
  303.606
  303.608
  303.611
  303.615
  303.623
  303.636
  303.666
  304.488
  303.813
  303.756
  303.777
  303.805
  303.834
  303.859
  303.876
  303.876
  303.848
  303.793
  303.722
  303.652
  303.601
  303.573
  303.565
  303.567
  303.576
  303.586
  303.601
  303.616
  303.628
  303.637
  303.643
  303.646
  303.649
  303.652
  303.654
  303.655
  303.656
  303.656
  303.656
  303.656
  303.642
  303.634
  303.638
  303.666
  304.669
  303.886
  303.788
  303.803
  303.838
  303.878
  303.919
  303.952
  303.958
  303.922
  303.846
  303.752
  303.66
  303.599
  303.569
  303.563
  303.571
  303.586
  303.604
  303.624
  303.643
  303.658
  303.668
  303.675
  303.68
  303.684
  303.687
  303.688
  303.688
  303.686
  303.683
  303.679
  303.673
  303.66
  303.647
  303.642
  303.662
  303.722
  303.758
  303.765
  304.827
  303.981
  303.844
  303.83
  303.858
  303.897
  303.942
  303.999
  304.01
  303.961
  303.866
  303.754
  303.655
  303.588
  303.559
  303.559
  303.577
  303.602
  303.629
  303.655
  303.676
  303.692
  303.702
  303.708
  303.712
  303.714
  303.715
  303.715
  303.713
  303.709
  303.703
  303.695
  303.686
  303.674
  303.659
  303.649
  303.658
  303.688
  303.701
  303.733
  304.961
  304.135
  303.992
  303.938
  303.932
  303.95
  303.985
  304.037
  304.032
  303.961
  303.845
  303.721
  303.618
  303.557
  303.54
  303.555
  303.589
  303.628
  303.664
  303.692
  303.712
  303.725
  303.733
  303.736
  303.738
  303.739
  303.739
  303.737
  303.733
  303.727
  303.718
  303.708
  303.698
  303.685
  303.67
  303.659
  303.659
  303.671
  303.68
  303.707
  305.168
  304.553
  304.393
  304.269
  304.188
  304.15
  304.15
  304.125
  304.041
  303.907
  303.756
  303.625
  303.538
  303.504
  303.517
  303.56
  303.616
  303.668
  303.707
  303.73
  303.744
  303.752
  303.756
  303.758
  303.759
  303.758
  303.756
  303.753
  303.749
  303.742
  303.734
  303.724
  303.714
  303.703
  303.691
  303.682
  303.682
  303.694
  303.714
  303.838
  305.458
  305.182
  304.922
  304.692
  304.513
  304.381
  304.271
  304.104
  303.889
  303.683
  303.525
  303.435
  303.414
  303.446
  303.514
  303.591
  303.67
  303.716
  303.742
  303.757
  303.765
  303.77
  303.773
  303.775
  303.775
  303.774
  303.773
  303.771
  303.768
  303.766
  303.765
  303.766
  303.77
  303.779
  303.795
  303.819
  303.851
  303.884
  303.904
  303.953
  297.121
  299.977
  301.568
  302.202
  302.458
  302.615
  302.756
  302.891
  303.027
  303.17
  303.316
  303.451
  303.583
  303.671
  303.722
  303.75
  303.765
  303.774
  303.78
  303.784
  303.787
  303.79
  303.791
  303.793
  303.794
  303.795
  303.797
  303.799
  303.801
  303.804
  303.81
  303.819
  303.833
  303.852
  303.874
  303.895
  303.909
  303.921
  297.715
  300.089
  301.165
  301.812
  302.191
  302.45
  302.691
  302.911
  303.112
  303.313
  303.488
  303.604
  303.681
  303.727
  303.752
  303.767
  303.776
  303.782
  303.788
  303.792
  303.796
  303.8
  303.804
  303.807
  303.81
  303.813
  303.816
  303.818
  303.821
  303.824
  303.829
  303.835
  303.845
  303.857
  303.872
  303.887
  303.881
  303.905
  301.729
  300.042
  299.776
  301.443
  302.121
  302.529
  302.846
  303.108
  303.297
  303.432
  303.533
  303.611
  303.666
  303.702
  303.727
  303.742
  303.752
  303.758
  303.763
  303.768
  303.773
  303.778
  303.783
  303.788
  303.792
  303.797
  303.802
  303.806
  303.81
  303.815
  303.819
  303.823
  303.828
  303.833
  303.84
  303.849
  303.858
  303.862
  303.861
  303.898
)
;

boundaryField
{
  floor
  {
    type wallHeatTransfer;
    Tinf uniform 305.2;
    alphaWall uniform 0.24;
    value nonuniform List<scalar> 29
(
  303.746
  303.936
  303.878
  303.87
  303.876
  303.885
  303.895
  303.906
  303.917
  303.928
  303.938
  303.948
  303.958
  303.968
  303.978
  303.988
  304.001
  304.016
  304.035
  304.073
  304.073
  304.029
  304.002
  303.985
  303.746
  303.936
  303.866
  303.778
  303.732
)
;
  }
  ceiling
  {
    type wallHeatTransfer;
    Tinf uniform 303.2;
    alphaWall uniform 0.24;
    value nonuniform List<scalar> 43
(
  301.827
  300.254
  300.003
  301.554
  302.193
  302.577
  302.873
  303.116
  303.288
  303.411
  303.503
  303.571
  303.619
  303.648
  303.665
  303.675
  303.68
  303.684
  303.688
  303.691
  303.695
  303.698
  303.702
  303.705
  303.708
  303.712
  303.716
  303.72
  303.726
  303.731
  303.737
  303.743
  303.75
  303.757
  303.766
  303.778
  303.787
  303.79
  303.786
  303.815
  305.35
  305.101
  298.065
)
;
  }
  sWall
  {
    type wallHeatTransfer;
    Tinf uniform 315.2;
    alphaWall uniform 0.36;
    value uniform 303.032;
  }
  nWall
  {
    type wallHeatTransfer;
    Tinf uniform 307.2;
    alphaWall uniform 0.36;
    value nonuniform List<scalar> 6
(
  304.44
  304.401
  304.358
  304.406
  304.383
  304.452
)
;
  }
  sideWalls
  {
    type empty;
  }
  glass1
  {
    type wallHeatTransfer;
    Tinf uniform 315.2;
    alphaWall uniform 4.3;
    value nonuniform List<scalar> 9
(
  311.99
  311.368
  310.957
  310.625
  310.34
  310.079
  309.86
  309.906
  310.104
)
;
  }
  glass2
  {
    type wallHeatTransfer;
    Tinf uniform 307.2;
    alphaWall uniform 4.3;
    value nonuniform List<scalar> 2
(
  305.996
  306.062
)
;
  }
  sun
  {
    type wallHeatTransfer;
    Tinf uniform 305.2;
    alphaWall uniform 0.24;
    value nonuniform List<scalar> 14
(
  304.077
  303.842
  303.831
  303.823
  303.817
  303.81
  303.804
  303.797
  303.79
  303.781
  303.771
  303.76
  303.751
  303.746
)
;
  }
  heatsource1
  {
    type fixedGradient;
    gradient uniform 0;
  }
  heatsource2
  {
    type fixedGradient;
    gradient uniform 0;
  }
  Table_master
  {
    type zeroGradient;
  }
  Table_slave
  {
    type zeroGradient;
  }
  inlet
  {
    type fixedValue;
    value uniform 293.15;
  }
  outlet
  {
    type zeroGradient;
  }
} 	// ************************************************************************* //

