/*--------------------------------*- C++ -*----------------------------------*\
  =========                 |
  \\      /  F ield         | OpenFOAM: The Open Source CFD Toolbox
   \\    /   O peration     | Website:  https://openfoam.org
    \\  /    A nd           | Version:  6
     \\/     M anipulation  |
\*---------------------------------------------------------------------------*/
FoamFile
{
    version     2.0;
    format      ascii;
    class       surfaceScalarField;
    location    "720";
    object      phi;
}
// * * * * * * * * * * * * * * * * * * * * * * * * * * * * * * * * * * * * * //

dimensions      [1 0 -1 0 0 0 0];

internalField   nonuniform List<scalar> 
852
(
-0.00196453
0.00198726
-0.00275469
0.000790161
-0.00334623
0.000591533
-0.00377818
0.000431945
-0.00402406
0.000245881
-0.00405552
3.14519e-05
-0.00384103
-0.000214493
-0.00336443
-0.000476603
-0.00265635
-0.000708089
-0.00179827
-0.000858079
-0.000904888
-0.000893386
-0.000109922
-0.00079497
0.000365392
-0.000475319
0.000442612
-7.72242e-05
0.000440854
-1.42798e-05
1.18239e-05
0.000142631
-0.000156916
0.000499857
-0.000357232
0.000886896
-0.000387044
0.00122472
-0.000337833
0.00148213
-0.000257412
0.00162083
-0.000138708
0.00167324
-5.24203e-05
0.00169318
-1.99369e-05
0.00169956
-6.39564e-06
0.00169571
3.84897e-06
0.001682
1.37037e-05
0.00165453
2.74679e-05
0.0016
5.45218e-05
0.00148589
0.000114105
0.00125564
0.000230238
0.000858912
0.000396724
0.000239927
0.000618979
0.000236601
-0.0014733
0.0035237
-0.002221
0.00153786
-0.0028254
0.00119593
-0.00326201
0.00086855
-0.00351832
0.000502181
-0.00356892
8.20496e-05
-0.00338406
-0.000399351
-0.00295483
-0.000905837
-0.00232682
-0.00133611
-0.0015927
-0.0015922
-0.000864464
-0.00162163
-0.0002458
-0.00141364
0.000230191
-0.000951314
0.000573525
-0.000420562
0.000918111
9.62636e-05
0.00055089
0.000367166
0.000550834
-7.95079e-05
8.55218e-05
0.000477943
-0.000714373
0.000842478
-0.000721772
0.00113979
-0.000684359
0.00139102
-0.000589074
0.00157885
-0.000445243
0.00162087
-0.000180734
0.00162874
-6.03027e-05
0.00163695
-2.81435e-05
0.00164373
-1.31834e-05
0.00164767
-9.62576e-08
0.0016488
1.25662e-05
0.00164636
2.98939e-05
0.00163594
6.49368e-05
0.00158357
0.000166473
0.00137992
0.000433881
0.00103042
0.000746217
0.000597978
0.00105141
0.000825511
-0.00108544
0.00470795
-0.00172007
0.00217249
-0.00226995
0.0017458
-0.0026668
0.0012654
-0.00291425
0.000749628
-0.00298113
0.000148918
-0.00281723
-0.000563252
-0.00241577
-0.00130729
-0.00184758
-0.00190431
-0.00121388
-0.0022259
-0.000611585
-0.00222393
-0.000106394
-0.00191883
0.000301356
-0.00135907
0.000608766
-0.000727977
0.000814154
-0.000109129
0.000720825
0.000460491
0.00127165
0.000760617
-0.000683743
0.000962922
-0.000916683
0.00119648
-0.000955337
0.00136604
-0.000853921
0.00150747
-0.000730515
0.00170363
-0.000641399
0.00152304
0.00146289
0.00143489
0.00142185
0.00142191
0.00143462
0.00146466
0.00152975
0.00169637
0.0014825
0.000647739
0.00121668
0.00101203
0.000807656
0.00146043
0.00161871
-0.000795175
0.00563369
-0.00128109
0.0026584
-0.00167751
0.00214221
-0.00197255
0.00156044
-0.00217193
0.000949004
-0.00223389
0.000210872
-0.00206614
-0.000731003
-0.00167967
-0.00169377
-0.00118315
-0.00240084
-0.000669897
-0.00273915
-0.000207416
-0.00268641
0.000175818
-0.00230207
0.000505506
-0.00168876
0.000786806
-0.00100928
0.00103754
-0.000359868
0.00131711
0.00018092
0.00209619
0.000492564
0.00207145
1.61826e-05
0.00192237
-0.000534667
0.00173197
-0.000726288
0.00157479
-0.000798163
0.00148756
-0.000766696
0.00143517
-0.000678131
0.00132483
-0.000531066
0.00158831
-0.000263635
0.00175485
-0.000166707
0.0018928
-0.000138105
0.00201335
-0.000120717
0.00210915
-9.59598e-05
0.00216185
-5.28581e-05
0.00213986
2.18282e-05
0.00199899
0.000140703
0.00166887
0.00032996
0.00159289
0.000723718
0.00142483
0.00118008
0.00115752
0.00172774
0.00275728
-0.000578251
0.00637058
-0.000915538
0.00299568
-0.00105422
0.00228089
-0.00118007
0.00168628
-0.00127462
0.00104355
-0.00128408
0.000220335
-0.00106698
-0.000948111
-0.000707395
-0.00205335
-0.000327077
-0.00278116
1.64534e-05
-0.00308268
0.000297476
-0.00296744
0.000522053
-0.00252665
0.000723035
-0.00188975
0.000913786
-0.00120004
0.00112796
-0.000574051
0.00140777
-9.88891e-05
0.00176747
0.000132858
0.00186359
-7.99433e-05
0.001708
-0.000379082
0.00153887
-0.000557161
0.00137531
-0.000634604
0.00124556
-0.000636957
0.00115277
-0.000585348
0.00110835
-0.000486655
0.00119781
-0.0003531
0.00130572
-0.00027462
0.00141216
-0.00024456
0.00151729
-0.00022585
0.00161621
-0.000194886
0.0016976
-0.000134263
0.00174196
-2.25335e-05
0.00172939
0.000153258
0.0016644
0.000394948
0.00165141
0.000736696
0.00172057
0.00111092
0.0020626
0.0013857
0.00305501
0.00176487
0.00179393
0.00126087
0.0006294
0.00116431
0.000676823
-0.000496085
0.00704982
-0.000681747
0.00318134
-0.000449388
0.00204853
-0.000332996
0.00156989
-0.000280456
0.00099101
-0.000116244
5.61192e-05
0.000190006
-0.00125437
0.000470899
-0.00233425
0.000675467
-0.00298573
0.000794749
-0.00320197
0.000851735
-0.00302443
0.00087259
-0.00254751
0.000884469
-0.00190163
0.000910567
-0.00122614
0.000980165
-0.000643654
0.00111339
-0.000232123
0.0012842
-3.79486e-05
0.00131467
-0.00011042
0.00121197
-0.000276392
0.00106675
-0.000411945
0.000918291
-0.000486151
0.000789956
-0.000508629
0.000697019
-0.000492418
0.000657129
-0.000446772
0.000690559
-0.000386538
0.000765979
-0.000350049
0.000858057
-0.000336645
0.000957768
-0.00032557
0.00106193
-0.000299055
0.00116845
-0.000240788
0.00127407
-0.000128163
0.00136508
6.22397e-05
0.00143983
0.000320185
0.00155049
0.00062603
0.00173104
0.000930358
0.00196491
0.00115182
0.00225857
0.0014712
0.00203411
0.00148531
0.00146603
0.00173239
0.00219253
-0.000573416
0.00782833
-0.000419932
0.00302785
0.00028765
0.00134095
0.000654122
0.00120341
0.000963355
0.000681773
0.00134906
-0.000329586
0.00164811
-0.00155342
0.00177754
-0.00246368
0.00175261
-0.0029608
0.00160511
-0.00305447
0.0013858
-0.00280513
0.0011428
-0.00230452
0.000916762
-0.0016756
0.000738584
-0.00104797
0.000639889
-0.000544965
0.000626621
-0.000218861
0.000663715
-7.50482e-05
0.000652325
-9.90355e-05
0.000573085
-0.000197159
0.000453597
-0.000292463
0.000324055
-0.000356616
0.000206802
-0.000391383
0.000119399
-0.000405021
7.71552e-05
-0.000404537
8.85178e-05
-0.000397909
0.000137227
-0.000398767
0.000204209
-0.000403635
0.000280755
-0.000402125
0.000367035
-0.000385343
0.000470454
-0.000344216
0.000604103
-0.000261821
0.000770532
-0.000104197
0.000951658
0.00013905
0.00115281
0.000424865
0.00139157
0.000691594
0.0016292
0.000914187
0.00192096
0.00117943
0.0021113
0.00129496
0.00194648
0.0018972
0.00419141
0.00143298
0.00662515
0.00190322
0.00255761
0.00206959
0.00117458
0.00231958
0.000953412
0.00275112
0.000250226
0.00320649
-0.000784952
0.00334741
-0.00169435
0.00318973
-0.002306
0.00280854
-0.00257961
0.002293
-0.00253894
0.0017303
-0.00224242
0.00118577
-0.00176
0.000712754
-0.00120258
0.000346536
-0.000681761
0.000122093
-0.00032053
2.30356e-05
-0.00011981
-7.73609e-06
-4.4283e-05
-4.51503e-05
-6.16279e-05
-0.000119707
-0.000122609
-0.00022338
-0.000188797
-0.000336388
-0.000243616
-0.000440421
-0.000287358
-0.000521851
-0.0003236
-0.000572012
-0.000354385
-0.000588885
-0.000381044
-0.000582577
-0.000405084
-0.000564083
-0.000422137
-0.00053988
-0.000426336
-0.000511273
-0.000413959
-0.000471782
-0.000383715
-0.000400171
-0.000333441
-0.000253852
-0.000250524
-2.51513e-05
-8.96601e-05
0.000247424
0.000152281
0.000534845
0.000404165
0.000805142
0.000643881
0.00111361
0.000870949
0.00138958
0.00101899
0.000971411
0.00231536
0.00537694
0.00686363
0.00940652
0.00805651
0.00252458
0.00738553
0.00162439
0.0068878
0.00074796
0.00624782
-0.000144976
0.00542416
-0.00087069
0.00447713
-0.00135897
0.00347422
-0.0015767
0.00248207
-0.00154679
0.00157012
-0.00133048
0.000774241
-0.00096413
0.00013618
-0.00056453
-0.000292045
-0.000253545
-0.000524335
-8.82474e-05
-0.000632641
-1.15107e-05
-0.000685119
8.18753e-06
-0.000734846
-1.19088e-05
-0.000804918
-5.25448e-05
-0.000892284
-0.000101439
-0.000988918
-0.00014699
-0.00108513
-0.000191151
-0.0011739
-0.000234842
-0.00125136
-0.000276931
-0.0013168
-0.000315611
-0.00137391
-0.00034799
-0.00142801
-0.000368042
-0.00148648
-0.000367877
-0.00156082
-0.000339621
-0.00166726
-0.000277289
-0.00181993
-0.000180781
-0.00202326
-4.72023e-05
-0.00227126
0.000158333
-0.00257258
0.0004536
-0.00301815
0.000849722
-0.00373984
0.00136556
-0.00487753
0.00200864
-0.00645558
0.00259702
-0.0065527
0.00241248
-0.000943216
0.00594689
0.00298766
0.00525632
0.00231497
0.00493656
0.00106772
0.00454698
0.000244608
0.00394835
-0.000272056
0.00313964
-0.000550258
0.00221243
-0.000649492
0.00126583
-0.000600205
0.000394115
-0.000458773
-0.000321294
-0.000248732
-0.000800815
-8.50178e-05
-0.00106009
5.72015e-06
-0.00119305
4.47101e-05
-0.00125834
5.37619e-05
-0.00129505
4.4896e-05
-0.00133154
2.45722e-05
-0.00138057
-3.52778e-06
-0.00144514
-3.68705e-05
-0.001526
-6.61392e-05
-0.00162115
-9.60166e-05
-0.0017292
-0.000126793
-0.00184901
-0.000157137
-0.00197883
-0.000185795
-0.00211627
-0.000210561
-0.00225786
-0.000226466
-0.00240041
-0.000225329
-0.00254368
-0.000196359
-0.00269351
-0.000127472
-0.00285229
-2.20043e-05
-0.00301137
0.000111871
-0.00314917
0.000296117
-0.00326164
0.000566064
-0.00335062
0.000938699
-0.00340671
0.00142164
-0.00340421
0.00200612
-0.00324177
0.00243458
-0.00167822
0.000848922
-0.00256511
0.000322569
0.00265745
0.00110193
0.00153561
0.00128376
0.0008859
0.00119528
0.000333085
0.000908874
1.43469e-05
0.000466515
-0.000107907
-6.25173e-05
-0.000120472
-0.000595329
-6.74036e-05
-0.00105576
1.65087e-06
-0.00136535
6.08466e-05
-0.00153823
8.7847e-05
-0.00162012
8.76007e-05
-0.00165543
8.00171e-05
-0.0016689
6.72177e-05
-0.00167673
5.2717e-05
-0.00168895
3.67862e-05
-0.00171163
1.91432e-05
-0.00175142
2.91152e-06
-0.00180484
-1.27286e-05
-0.00187415
-2.67089e-05
-0.00196278
-3.81773e-05
-0.00207412
-4.58076e-05
-0.00221133
-4.85911e-05
-0.00237581
-4.60841e-05
-0.00256411
-3.81784e-05
-0.00276463
-2.48118e-05
-0.00295508
-5.91564e-06
-0.00310409
2.1524e-05
-0.00318638
6.02789e-05
-0.00320398
0.000129464
-0.00313986
0.00023199
-0.00295782
0.000384017
-0.0026244
0.000605265
-0.00208847
0.000885704
-0.00117767
0.00109532
0.000336085
0.000920819
0.00139326
-0.000208257
-0.00111214
-0.00597505
-0.0072672
-0.00462252
-0.00310151
-0.00223269
-0.00191967
-0.00192794
-0.00205957
-0.00220476
-0.00229804
-0.00232364
-0.00229131
-0.00223313
-0.00217597
-0.0021268
-0.00209066
-0.00206915
-0.00206369
-0.00207599
-0.00210465
-0.00214901
-0.00220742
-0.00227735
-0.00235505
-0.00243576
-0.00251438
-0.00258572
-0.00264453
-0.0026854
-0.00269971
-0.00267595
-0.00258343
-0.00238856
-0.00204158
-0.00147302
-0.000623571
0.000435897
0.00132058
0.00107517
)
;

boundaryField
{
    floor
    {
        type            calculated;
        value           nonuniform List<scalar> 
29
(
0
0
0
0
0
0
0
0
0
0
0
0
0
0
0
0
0
0
0
0
3.31862e-06
9.06067e-06
1.44548e-05
1.89354e-05
1.75268e-06
2.44918e-06
5.80465e-06
8.64307e-06
8.5566e-06
)
;
    }
    ceiling
    {
        type            calculated;
        value           nonuniform List<scalar> 
43
(
1.39616e-05
1.31584e-05
1.27725e-05
1.45975e-05
1.70694e-05
2.00512e-05
2.26035e-05
2.37166e-05
2.47055e-05
2.58653e-05
2.72352e-05
2.85125e-05
2.9658e-05
3.04263e-05
3.08445e-05
3.1065e-05
3.1199e-05
3.13142e-05
3.14392e-05
3.1559e-05
3.16298e-05
3.16841e-05
3.17524e-05
3.1877e-05
3.21149e-05
3.2526e-05
3.31537e-05
3.39922e-05
3.49484e-05
3.58191e-05
3.651e-05
3.69423e-05
3.71122e-05
3.70215e-05
3.67011e-05
3.62471e-05
3.58437e-05
3.61295e-05
3.71442e-05
3.89527e-05
1.80613e-05
1.47154e-05
7.63996e-06
)
;
    }
    sWall
    {
        type            calculated;
        value           uniform -0.000113177;
    }
    nWall
    {
        type            calculated;
        value           nonuniform List<scalar> 6(-4.76165e-05 -4.96845e-05 -5.24066e-05 -5.63375e-05 -5.97205e-05 -7.59285e-05);
    }
    sideWalls
    {
        type            empty;
        value           nonuniform 0();
    }
    glass1
    {
        type            calculated;
        value           nonuniform List<scalar> 9(-2.27335e-05 -6.3138e-05 -9.8822e-05 -0.000130567 -0.000158635 -0.00018316 -0.000205102 -0.0002298 -0.000256541);
    }
    glass2
    {
        type            calculated;
        value           nonuniform List<scalar> 2(-0.000214126 -0.000232552);
    }
    sun
    {
        type            calculated;
        value           uniform 0;
    }
    heatsource1
    {
        type            calculated;
        value           nonuniform List<scalar> 3(2.05037e-07 2.05587e-07 2.06017e-07);
    }
    heatsource2
    {
        type            calculated;
        value           nonuniform List<scalar> 4(5.15152e-08 5.15939e-08 0 0);
    }
    Table_master
    {
        type            calculated;
        value           nonuniform List<scalar> 9(-1.54151e-07 -1.54266e-07 -1.54298e-07 -1.54316e-07 -1.54327e-07 -1.54329e-07 -1.54324e-07 -1.54307e-07 -1.54257e-07);
    }
    Table_slave
    {
        type            calculated;
        value           nonuniform List<scalar> 9(1.54077e-07 1.54075e-07 1.54026e-07 1.53982e-07 1.53947e-07 1.53928e-07 1.5393e-07 1.53943e-07 1.54e-07);
    }
    inlet
    {
        type            calculated;
        value           uniform -0.00640998;
    }
    outlet
    {
        type            calculated;
        value           nonuniform List<scalar> 2(0.00607426 0.00127898);
    }
}


// ************************************************************************* //
