/*--------------------------------*- C++ -*----------------------------------*\
  =========                 |
  \\      /  F ield         | OpenFOAM: The Open Source CFD Toolbox
   \\    /   O peration     | Website:  https://openfoam.org
    \\  /    A nd           | Version:  6
     \\/     M anipulation  |
\*---------------------------------------------------------------------------*/
FoamFile
{
    version     2.0;
    format      ascii;
    class       volScalarField;
    location    "200";
    object      nut;
}
// * * * * * * * * * * * * * * * * * * * * * * * * * * * * * * * * * * * * * //

dimensions      [0 2 -1 0 0 0 0];

internalField   nonuniform List<scalar> 
459
(
0.000713113
0.000742657
0.000732222
0.000754949
0.000773945
0.000789565
0.000802571
0.000813722
0.000823768
0.000833587
0.00084039
0.000843238
0.00084204
0.000838333
0.000832689
0.000639294
0.000599765
0.000569912
0.000549626
0.000534291
0.000519137
0.000500859
0.000482759
0.000465316
0.000448479
0.000432279
0.000416714
0.000401722
0.000387144
0.000372649
0.000357698
0.000341232
0.000328156
0.000300371
0.0010848
0.00166984
0.0014056
0.0016286
0.00173512
0.00184917
0.00196297
0.00206666
0.00214616
0.00218295
0.0021889
0.0021385
0.0019992
0.00172724
0.00128867
0.000847789
0.000794464
0.000739859
0.00120184
0.00152865
0.00175906
0.00187318
0.00183855
0.00155203
0.00138231
0.00124851
0.00113791
0.00104261
0.000958119
0.000880278
0.000803904
0.000724567
0.000653428
0.000592471
0.000689938
0.000381099
0.00142929
0.00251063
0.00151967
0.00226582
0.00242939
0.00254598
0.00263596
0.00270435
0.00275494
0.00278414
0.00279295
0.00275902
0.00265308
0.00243971
0.00208216
0.00157277
0.000914061
0.000828298
0.00218499
0.00257054
0.00268151
0.0026557
0.00228609
0.000615627
0.000547381
0.00049574
0.000455903
0.000424433
0.000398992
0.000378166
0.0003614
0.000349356
0.000400191
0.000472081
0.000778825
0.000442696
0.00178948
0.00383216
0.00146817
0.00253851
0.00280735
0.00290194
0.00295107
0.00297819
0.00299809
0.00301525
0.00302992
0.00302667
0.0029829
0.00287061
0.00264781
0.00224321
0.00158536
0.000913412
0.00237357
0.00270516
0.00285325
0.00285936
0.00278866
0.00238922
0.000623505
0.000592718
0.00058154
0.00057614
0.000568904
0.000555129
0.000536848
0.000516563
0.000490822
0.00046905
0.000480894
0.000912709
0.000493573
0.00216094
0.00562143
0.00178976
0.00241985
0.00296688
0.00306881
0.00309207
0.00308867
0.00308488
0.00309651
0.00312086
0.00315195
0.00316267
0.00312591
0.00301577
0.00282458
0.00260382
0.00243823
0.0024587
0.00271118
0.00275916
0.0027438
0.00271303
0.00263711
0.00236947
0.00234313
0.00235616
0.00235648
0.00232302
0.00224262
0.00206428
0.00179165
0.00146312
0.00111422
0.000829387
0.000883447
0.000621974
0.000644
0.000767011
0.000852382
0.00254239
0.00756037
0.00309726
0.0020833
0.00281741
0.00307349
0.00314657
0.00314921
0.0031151
0.00309291
0.00312394
0.0031872
0.00323594
0.00323928
0.00315835
0.0029448
0.00259098
0.00224488
0.00226101
0.00263226
0.00265631
0.00261179
0.00259238
0.0026096
0.00264185
0.00270235
0.00275224
0.00277458
0.00276301
0.00271586
0.00261748
0.00240597
0.00208696
0.00167689
0.0012772
0.000957091
0.000786177
0.000730808
0.00110076
0.000888279
0.00293348
0.00917091
0.00585272
0.00290238
0.00220565
0.00241014
0.0027646
0.00303556
0.00320098
0.00306988
0.00311843
0.00319343
0.00325334
0.00327688
0.00322796
0.00303496
0.0026236
0.00210974
0.00207537
0.00259812
0.00262995
0.00256035
0.00252949
0.00255309
0.00260973
0.00267672
0.0027314
0.00276308
0.00277356
0.00276871
0.00275428
0.0026467
0.00238961
0.00201506
0.00163998
0.00127711
0.00106253
0.00103528
0.00112858
0.00098361
0.00304216
0.00935557
0.00749686
0.00572171
0.00409366
0.00310849
0.00278354
0.00285927
0.00308653
0.00313755
0.00316543
0.00320288
0.00323946
0.00325159
0.00320343
0.00303736
0.00265057
0.00203802
0.00190931
0.00259439
0.00266161
0.00257059
0.00251622
0.00251248
0.00253445
0.00256235
0.00258619
0.00260483
0.00262645
0.00266388
0.00272954
0.00280286
0.00267746
0.00236309
0.00209824
0.00199901
0.00217448
0.00281303
0.00379923
0.00157589
0.00299281
0.00365454
0.00409018
0.00422747
0.00406759
0.00371973
0.00340053
0.00320798
0.00313478
0.00310864
0.00312591
0.0031617
0.0031892
0.00318203
0.00311281
0.00293918
0.00255706
0.00190538
0.00174692
0.00258715
0.00272359
0.00260659
0.00251582
0.00246722
0.00243568
0.00240591
0.00237163
0.00233156
0.0022871
0.00223974
0.00218972
0.00213694
0.00208796
0.0020605
0.00208946
0.0021643
0.00221287
0.0021613
0.00202504
0.00145461
0.00215903
0.00360212
0.0039084
0.00385768
0.00371162
0.00357286
0.00347312
0.00339476
0.00332845
0.00326019
0.00317413
0.00305699
0.0028974
0.00266891
0.00227134
0.00161935
0.00153329
0.00258255
0.0027832
0.00264232
0.00252481
0.00244345
0.00237377
0.00230836
0.00224619
0.00218779
0.00213571
0.00209541
0.00207514
0.00208262
0.00210882
0.00214894
0.0021978
0.00222628
0.00218545
0.00205049
0.00182656
0.0011828
0.00228898
0.00411927
0.00432432
0.00418084
0.00401406
0.00383626
0.00365772
0.00348219
0.00326555
0.00301278
0.00274552
0.0024764
0.00221166
0.0019445
0.00162887
0.00119217
0.00125823
0.00215767
0.00230571
0.00220769
0.00211745
0.00204965
0.0019978
0.0019667
0.0019608
0.00197975
0.00201848
0.00206767
0.00211387
0.00217966
0.00226065
0.00235016
0.0024358
0.0025058
0.00251812
0.00256156
0.00231114
0.00119664
0.0020028
0.00210889
0.00219911
0.0023403
0.0022164
0.00203986
0.00189411
0.0017612
0.00163536
0.00151601
0.00141064
0.00131647
0.00122744
0.00114032
0.00105355
0.000966566
0.000878696
0.00076793
0.000661392
0.000683048
0.000689623
0.000691413
0.00069707
0.000707434
0.000722261
0.000741427
0.000764798
0.000792362
0.00082446
0.000862103
0.00090744
0.000958368
0.00101552
0.00107906
0.00114914
0.00124208
0.00127316
0.00124662
0.00116552
0.001078
)
;

boundaryField
{
    floor
    {
        type            nutkWallFunction;
        Cmu             0.09;
        kappa           0.41;
        E               9.8;
        value           nonuniform List<scalar> 
29
(
0.000100832
7.72414e-05
7.23207e-05
6.85783e-05
6.60218e-05
6.40814e-05
6.21572e-05
5.98269e-05
5.75089e-05
5.52646e-05
5.30884e-05
5.09848e-05
4.89542e-05
4.69894e-05
4.50697e-05
4.31518e-05
4.11636e-05
3.89614e-05
3.72029e-05
3.34351e-05
3.3435e-05
4.42712e-05
5.23384e-05
5.88945e-05
0.000100832
7.72413e-05
8.96018e-05
0.000100307
0.000110482
)
;
    }
    ceiling
    {
        type            nutkWallFunction;
        Cmu             0.09;
        kappa           0.41;
        E               9.8;
        value           nonuniform List<scalar> 
43
(
0.000233587
0.000245098
0.000254841
0.00027009
0.000256812
0.000237728
0.000221828
0.000207209
0.000193257
0.000179915
0.00016804
0.000157344
0.000147151
0.000137099
0.000126998
0.000116778
0.000106345
9.30231e-05
7.99801e-05
8.26498e-05
8.34587e-05
8.36785e-05
8.43727e-05
8.56428e-05
8.74566e-05
8.97946e-05
9.26362e-05
9.59746e-05
9.98451e-05
0.000104362
0.000109772
0.000115812
0.000122546
0.000129982
0.000138126
0.000148842
0.000152404
0.000149362
0.000140022
0.000129859
0.000339342
0.000407754
0.000264426
)
;
    }
    sWall
    {
        type            nutkWallFunction;
        Cmu             0.09;
        kappa           0.41;
        E               9.8;
        value           uniform 0.00023365;
    }
    nWall
    {
        type            nutkWallFunction;
        Cmu             0.09;
        kappa           0.41;
        E               9.8;
        value           nonuniform List<scalar> 6(0.000103198 0.000107491 0.000118796 0.000142028 0.000143624 0.000129867);
    }
    sideWalls
    {
        type            empty;
    }
    glass1
    {
        type            nutkWallFunction;
        Cmu             0.09;
        kappa           0.41;
        E               9.8;
        value           nonuniform List<scalar> 9(8.63002e-05 0.000130763 0.00017038 0.000210665 0.000251289 0.00029223 0.000333537 0.000344921 0.000339776);
    }
    glass2
    {
        type            nutkWallFunction;
        Cmu             0.09;
        kappa           0.41;
        E               9.8;
        value           nonuniform List<scalar> 2(0.000186727 0.000173099);
    }
    sun
    {
        type            nutkWallFunction;
        Cmu             0.09;
        kappa           0.41;
        E               9.8;
        value           nonuniform List<scalar> 
14
(
8.63328e-05
8.99409e-05
8.86686e-05
9.14364e-05
9.37425e-05
9.56336e-05
9.72049e-05
9.85497e-05
9.97594e-05
0.00010094
0.000101757
0.000102099
0.000101955
0.00010151
)
;
    }
    heatsource1
    {
        type            nutkWallFunction;
        Cmu             0.09;
        kappa           0.41;
        E               9.8;
        value           nonuniform List<scalar> 3(7.78276e-05 9.2903e-05 0.000103196);
    }
    heatsource2
    {
        type            nutkWallFunction;
        Cmu             0.09;
        kappa           0.41;
        E               9.8;
        value           nonuniform List<scalar> 4(0.000102644 9.62259e-05 9.62259e-05 0.000110556);
    }
    Table_master
    {
        type            nutkWallFunction;
        Cmu             0.09;
        kappa           0.41;
        E               9.8;
        value           nonuniform List<scalar> 9(7.43042e-05 6.57437e-05 5.91796e-05 5.4058e-05 4.99727e-05 4.66423e-05 4.3896e-05 4.16709e-05 4.00644e-05);
    }
    Table_slave
    {
        type            nutkWallFunction;
        Cmu             0.09;
        kappa           0.41;
        E               9.8;
        value           nonuniform List<scalar> 9(7.52845e-05 7.1444e-05 7.0044e-05 6.93666e-05 6.84575e-05 6.6723e-05 6.44125e-05 6.18375e-05 5.85518e-05);
    }
    inlet
    {
        type            calculated;
        value           uniform 0.000100623;
    }
    outlet
    {
        type            calculated;
        value           nonuniform List<scalar> 2(0.0020028 0.00210889);
    }
}


// ************************************************************************* //
