// -*- C++ -*-
// File generated by PyFoam - sorry for the ugliness

FoamFile
{
 version 2.0;
 format ascii;
 class volVectorField;
 location "200";
 object U;
}

dimensions [ 0 1 -1 0 0 0 0 ];

internalField nonuniform List<vector> 459
(
  (0.0748252 0.0765915 0)
  (-0.150971 0.0120946 0)
  (-0.15507 0.0134 0)
  (-0.181693 0.0112971 0)
  (-0.205185 0.00819806 0)
  (-0.224958 0.00466826 0)
  (-0.240262 0.000734824 0)
  (-0.250329 -0.00370962 0)
  (-0.254211 -0.00882606 0)
  (-0.250553 -0.0148367 0)
  (-0.237725 -0.0223639 0)
  (-0.212888 -0.0318963 0)
  (-0.174476 -0.0452647 0)
  (-0.132197 -0.0663374 0)
  (-0.121368 -0.0959179 0)
  (0.0769374 -0.042111 0)
  (0.0516811 -0.0256873 0)
  (0.0641304 -0.0154836 0)
  (0.0770758 -0.0102318 0)
  (0.0840677 -0.00734079 0)
  (0.0877724 -0.00517846 0)
  (0.0896513 -0.0031602 0)
  (0.0894443 -0.00191928 0)
  (0.0880533 -0.00133967 0)
  (0.0864249 -0.00105528 0)
  (0.0848719 -0.000861007 0)
  (0.0833286 -0.00067994 0)
  (0.0816274 -0.000432095 0)
  (0.0794674 5.416e-05 0)
  (0.0761736 0.0011632 0)
  (0.0704065 0.0034355 0)
  (0.0606992 0.00606689 0)
  (0.0506918 0.00848702 0)
  (-0.00948562 0.0251936 0)
  (0.279196 0.163762 0)
  (-0.163715 0.0401688 0)
  (-0.133214 0.0431462 0)
  (-0.164502 0.0394142 0)
  (-0.1887 0.0345412 0)
  (-0.20894 0.0289012 0)
  (-0.224818 0.0222783 0)
  (-0.235751 0.0143285 0)
  (-0.240878 0.00467321 0)
  (-0.238945 -0.00704048 0)
  (-0.229391 -0.0202847 0)
  (-0.211356 -0.0348489 0)
  (-0.186048 -0.0520569 0)
  (-0.159916 -0.0743898 0)
  (-0.139117 -0.0944967 0)
  (-0.104713 -0.0785275 0)
  (-0.0651609 -0.0659629 0)
  (0.0769051 -0.0595556 0)
  (0.0330052 -0.0284118 0)
  (0.041991 -0.0127865 0)
  (0.0532113 -0.00773137 0)
  (0.0605821 -0.00594861 0)
  (0.0658183 -0.00368352 0)
  (0.0693885 0.000927937 0)
  (0.0701035 0.0034056 0)
  (0.0699249 0.00413596 0)
  (0.0699593 0.00422734 0)
  (0.0701913 0.0041971 0)
  (0.0704081 0.00421642 0)
  (0.0705321 0.00445491 0)
  (0.0705099 0.0052806 0)
  (0.0697838 0.00762104 0)
  (0.0658344 0.0141187 0)
  (0.0556287 0.019967 0)
  (0.0509516 0.0240118 0)
  (-0.0546582 0.0528277 0)
  (0.45984 0.249188 0)
  (-0.206331 0.073175 0)
  (-0.103724 0.0729931 0)
  (-0.140097 0.0629879 0)
  (-0.161887 0.053483 0)
  (-0.180577 0.0430559 0)
  (-0.195641 0.0310561 0)
  (-0.206559 0.0170389 0)
  (-0.212406 0.00076321 0)
  (-0.211739 -0.0175798 0)
  (-0.204205 -0.0377437 0)
  (-0.190278 -0.0587676 0)
  (-0.172021 -0.0801079 0)
  (-0.152793 -0.100724 0)
  (-0.131844 -0.114294 0)
  (-0.104957 -0.113092 0)
  (-0.0950214 -0.120973 0)
  (0.045916 -0.0704298 0)
  (0.00548295 -0.0379901 0)
  (0.0190817 -0.0235483 0)
  (0.0310986 -0.0182456 0)
  (0.0405187 -0.0154295 0)
  (0.0478021 -0.0130612 0)
  (0.0534568 -0.00881711 0)
  (0.0529508 -0.00577391 0)
  (0.0522468 -0.00435767 0)
  (0.0530004 -0.00370335 0)
  (0.0544279 -0.0033214 0)
  (0.0559446 -0.00302426 0)
  (0.0575807 -0.00263961 0)
  (0.0599098 -0.00178992 0)
  (0.0643215 0.00156346 0)
  (0.0635574 0.0196065 0)
  (0.0505319 0.0323518 0)
  (0.0569468 0.0403835 0)
  (-0.0955927 0.0803244 0)
  (0.613629 0.320149 0)
  (-0.259937 0.108133 0)
  (-0.0681541 0.0998334 0)
  (-0.11144 0.0844677 0)
  (-0.128086 0.0725267 0)
  (-0.143463 0.0596607 0)
  (-0.156555 0.0447276 0)
  (-0.166799 0.026949 0)
  (-0.173059 0.00574526 0)
  (-0.173375 -0.0188039 0)
  (-0.167359 -0.045303 0)
  (-0.156774 -0.071508 0)
  (-0.144017 -0.0954817 0)
  (-0.131619 -0.115237 0)
  (-0.120311 -0.127566 0)
  (-0.112359 -0.130754 0)
  (-0.111471 -0.117863 0)
  (-0.0849077 -0.0505077 0)
  (-0.0196386 -0.0768417 0)
  (-0.00941847 -0.0543756 0)
  (0.0047995 -0.037808 0)
  (0.0164152 -0.0291703 0)
  (0.0252865 -0.0238551 0)
  (0.0317197 -0.018931 0)
  (0.0402868 -0.0142107 0)
  (0.0536523 -0.0121905 0)
  (0.0657044 -0.0106988 0)
  (0.0757566 -0.00921829 0)
  (0.0835807 -0.00734931 0)
  (0.0883601 -0.00488668 0)
  (0.0886166 -0.00177577 0)
  (0.0829262 0.00227148 0)
  (0.0692687 0.00784095 0)
  (0.0550642 0.0294612 0)
  (0.0408108 0.0477173 0)
  (0.0630796 0.0611307 0)
  (-0.141216 0.103351 0)
  (0.740098 0.377918 0)
  (-0.311941 0.142251 0)
  (-0.0296785 0.117326 0)
  (-0.0797886 0.0994177 0)
  (-0.0898899 0.0865013 0)
  (-0.100373 0.0721436 0)
  (-0.109811 0.0550771 0)
  (-0.11779 0.0343012 0)
  (-0.123147 0.00898001 0)
  (-0.123007 -0.0207724 0)
  (-0.117057 -0.0523659 0)
  (-0.108464 -0.081672 0)
  (-0.0994101 -0.106044 0)
  (-0.091692 -0.124324 0)
  (-0.085965 -0.136068 0)
  (-0.0822207 -0.14153 0)
  (-0.0753375 -0.13617 0)
  (-0.0541071 -0.110082 0)
  (-0.0271948 -0.0963732 0)
  (-0.0130854 -0.0683265 0)
  (-0.00316069 -0.0501644 0)
  (0.00632628 -0.0388961 0)
  (0.0140524 -0.0319202 0)
  (0.0212987 -0.0262787 0)
  (0.0301698 -0.0206804 0)
  (0.0404907 -0.0175057 0)
  (0.0502901 -0.015375 0)
  (0.0591396 -0.0128883 0)
  (0.0667079 -0.00907528 0)
  (0.0722359 -0.003272 0)
  (0.0746015 0.00434086 0)
  (0.072295 0.0131356 0)
  (0.0653852 0.0235577 0)
  (0.0561872 0.0407431 0)
  (0.0420886 0.0609378 0)
  (0.0710327 0.0828222 0)
  (-0.0413721 0.117485 0)
  (0.043769 0.0195049 0)
  (-0.075736 -0.0420252 0)
  (-0.287954 -0.0654597 0)
  (0.826838 0.428822 0)
  (-0.355717 0.170983 0)
  (0.00202269 0.118797 0)
  (-0.0445791 0.107965 0)
  (-0.0488757 0.095255 0)
  (-0.0542007 0.0798524 0)
  (-0.05875 0.0616929 0)
  (-0.0627592 0.0395 0)
  (-0.0655267 0.0117011 0)
  (-0.0617032 -0.0227751 0)
  (-0.0546936 -0.0589689 0)
  (-0.0483631 -0.0896585 0)
  (-0.0436214 -0.112857 0)
  (-0.0412855 -0.128835 0)
  (-0.0414193 -0.138537 0)
  (-0.0432002 -0.142721 0)
  (-0.0427213 -0.140051 0)
  (-0.0324359 -0.131077 0)
  (-0.0205483 -0.110317 0)
  (-0.0116095 -0.0768091 0)
  (-0.00715401 -0.0572916 0)
  (-0.0021749 -0.0457535 0)
  (0.00278384 -0.0382405 0)
  (0.0080304 -0.0330163 0)
  (0.0143494 -0.0289222 0)
  (0.0215276 -0.0264502 0)
  (0.0289384 -0.024449 0)
  (0.0362938 -0.0216758 0)
  (0.0434233 -0.0169879 0)
  (0.0499088 -0.00930399 0)
  (0.0557121 0.00185824 0)
  (0.057677 0.0146883 0)
  (0.0567384 0.0284986 0)
  (0.0554338 0.0452526 0)
  (0.0506291 0.0651585 0)
  (0.0791178 0.0907595 0)
  (0.0452487 0.111999 0)
  (0.0968763 0.0713736 0)
  (0.123255 0.0451254 0)
  (-0.146837 -0.0160384 0)
  (0.849883 0.474425 0)
  (-0.376491 0.164198 0)
  (0.0217479 0.0778422 0)
  (0.00518524 0.108931 0)
  (0.000649281 0.106004 0)
  (-0.00332202 0.0852589 0)
  (-0.00372972 0.0638445 0)
  (-0.00276834 0.0407105 0)
  (-0.00204861 0.0100564 0)
  (0.0125833 -0.0303822 0)
  (0.0197255 -0.0666125 0)
  (0.0217586 -0.0943897 0)
  (0.0201219 -0.114045 0)
  (0.0151962 -0.126864 0)
  (0.00766757 -0.134342 0)
  (-0.00145566 -0.13801 0)
  (-0.0100257 -0.139004 0)
  (-0.0102729 -0.138954 0)
  (-0.0100408 -0.117176 0)
  (-0.00807874 -0.0789776 0)
  (-0.0101044 -0.0588203 0)
  (-0.0102633 -0.0477569 0)
  (-0.00976619 -0.0410738 0)
  (-0.00837103 -0.0367761 0)
  (-0.00596765 -0.0339635 0)
  (-0.00271021 -0.0322396 0)
  (0.00128261 -0.0307204 0)
  (0.00577255 -0.0284154 0)
  (0.0108943 -0.0241753 0)
  (0.016829 -0.0166063 0)
  (0.0241846 -0.00427155 0)
  (0.0332752 0.0113332 0)
  (0.0390314 0.026474 0)
  (0.045674 0.0420152 0)
  (0.0515519 0.0584838 0)
  (0.07815 0.0796911 0)
  (0.0880692 0.0879582 0)
  (0.126603 0.0555199 0)
  (0.170311 0.042124 0)
  (-0.0328429 0.0954202 0)
  (0.947841 0.491835 0)
  (-0.134842 0.146769 0)
  (0.0838484 0.00896919 0)
  (0.122326 0.0468723 0)
  (0.0989284 0.073502 0)
  (0.0808704 0.0631661 0)
  (0.0771821 0.0410801 0)
  (0.0801589 0.0162536 0)
  (0.0883954 -0.015429 0)
  (0.103227 -0.0450964 0)
  (0.105799 -0.0708297 0)
  (0.0998499 -0.0912936 0)
  (0.0885578 -0.106089 0)
  (0.0736155 -0.115746 0)
  (0.0564271 -0.121417 0)
  (0.0384153 -0.124807 0)
  (0.0204027 -0.128537 0)
  (0.0103697 -0.135192 0)
  (0.000383361 -0.11613 0)
  (-0.00445227 -0.0746531 0)
  (-0.0137258 -0.054977 0)
  (-0.0194401 -0.0452908 0)
  (-0.0237855 -0.0397394 0)
  (-0.0269818 -0.0364405 0)
  (-0.0292407 -0.0345705 0)
  (-0.0307899 -0.0335479 0)
  (-0.0317767 -0.0326885 0)
  (-0.0321759 -0.0312628 0)
  (-0.031739 -0.0285337 0)
  (-0.0299619 -0.0237495 0)
  (-0.0255443 -0.0161634 0)
  (-0.0134138 -0.00487015 0)
  (-0.000742549 0.00907091 0)
  (0.0114648 0.021204 0)
  (0.0231661 0.0298649 0)
  (0.0468344 0.0397373 0)
  (0.0667446 0.0319293 0)
  (0.0871926 -0.00442223 0)
  (0.149762 0.0429137 0)
  (-0.462429 0.222909 0)
  (1.07576 0.452836 0)
  (0.520803 0.302304 0)
  (0.520804 0.236003 0)
  (0.487138 0.198154 0)
  (0.401853 0.171725 0)
  (0.32823 0.133426 0)
  (0.285795 0.0910057 0)
  (0.263438 0.0512473 0)
  (0.250625 0.0146565 0)
  (0.230181 -0.0199595 0)
  (0.206352 -0.0487286 0)
  (0.180682 -0.0700448 0)
  (0.153713 -0.0844138 0)
  (0.125847 -0.0933113 0)
  (0.097654 -0.0985203 0)
  (0.0697901 -0.102181 0)
  (0.0428841 -0.10781 0)
  (0.02577 -0.119838 0)
  (0.00719565 -0.104294 0)
  (-0.00223203 -0.0632211 0)
  (-0.0190888 -0.0460211 0)
  (-0.0301114 -0.0391845 0)
  (-0.0388979 -0.035371 0)
  (-0.0465622 -0.0330387 0)
  (-0.0536557 -0.0316644 0)
  (-0.0605421 -0.0307677 0)
  (-0.0674986 -0.0297538 0)
  (-0.0747263 -0.0279289 0)
  (-0.0824311 -0.0245213 0)
  (-0.0909365 -0.0187259 0)
  (-0.100666 -0.00977647 0)
  (-0.111739 0.00281717 0)
  (-0.121739 0.0181027 0)
  (-0.136854 0.0355036 0)
  (-0.163266 0.0547025 0)
  (-0.202739 0.0740158 0)
  (-0.260044 0.0879175 0)
  (-0.325839 0.0936658 0)
  (-0.398548 0.0926272 0)
  (-0.667982 0.0850665 0)
  (-0.233041 0.106731 0)
  (0.176119 0.17915 0)
  (0.264539 0.172426 0)
  (0.261303 0.140439 0)
  (0.26224 0.0998398 0)
  (0.264853 0.0589376 0)
  (0.262366 0.0227507 0)
  (0.252226 -0.00675781 0)
  (0.233674 -0.0288689 0)
  (0.209331 -0.044511 0)
  (0.181095 -0.054876 0)
  (0.150516 -0.0611742 0)
  (0.118717 -0.0646749 0)
  (0.0862549 -0.0671355 0)
  (0.0543579 -0.0728108 0)
  (0.0327145 -0.0913275 0)
  (0.00285105 -0.0772737 0)
  (-0.00711109 -0.0362179 0)
  (-0.0286929 -0.0270493 0)
  (-0.0427705 -0.0251429 0)
  (-0.053703 -0.0244275 0)
  (-0.0638055 -0.0241572 0)
  (-0.0737892 -0.0241085 0)
  (-0.0839464 -0.0239766 0)
  (-0.0944393 -0.0233283 0)
  (-0.105227 -0.0215705 0)
  (-0.116004 -0.0179482 0)
  (-0.126129 -0.0116191 0)
  (-0.134544 -0.00178131 0)
  (-0.139995 0.0118779 0)
  (-0.143048 0.0293124 0)
  (-0.145179 0.0507222 0)
  (-0.148119 0.0746816 0)
  (-0.152753 0.0964288 0)
  (-0.155893 0.104011 0)
  (-0.137827 0.0748519 0)
  (-0.0828552 -0.0327433 0)
  (-0.292173 -0.230006 0)
  (-0.119654 0.258569 0)
  (0.088153 0.187613 0)
  (0.107847 0.138981 0)
  (0.140921 0.11343 0)
  (0.176071 0.083445 0)
  (0.202557 0.0538426 0)
  (0.2158 0.0304788 0)
  (0.216299 0.0150804 0)
  (0.207537 0.00402919 0)
  (0.191586 -0.00435809 0)
  (0.170615 -0.0104872 0)
  (0.14617 -0.0146021 0)
  (0.119278 -0.0171173 0)
  (0.0903184 -0.0196349 0)
  (0.0606427 -0.0301172 0)
  (0.0325487 -0.0680067 0)
  (-0.0220581 -0.0476534 0)
  (-0.0318624 0.02203 0)
  (-0.0493251 0.0300795 0)
  (-0.0611807 0.0283024 0)
  (-0.070532 0.0289783 0)
  (-0.0791302 0.0298025 0)
  (-0.0873507 0.0297808 0)
  (-0.0953206 0.0291543 0)
  (-0.103059 0.0282809 0)
  (-0.110432 0.0274135 0)
  (-0.117153 0.0266948 0)
  (-0.122729 0.0261465 0)
  (-0.126146 0.025657 0)
  (-0.125656 0.0284676 0)
  (-0.119278 0.0366402 0)
  (-0.105995 0.0509674 0)
  (-0.086484 0.0708135 0)
  (-0.0625317 0.0909106 0)
  (-0.0375449 0.102248 0)
  (0.00706227 0.0834855 0)
  (0.145667 0.00522346 0)
  (-0.208186 -0.143675 0)
  (-0.167302 -0.373459 0)
  (-0.452656 -0.100658 0)
  (-0.328038 0.158503 0)
  (-0.171934 0.0640709 0)
  (-0.0815065 0.0376888 0)
  (0.0255256 0.0322262 0)
  (0.090539 0.0102091 0)
  (0.138631 -0.0116656 0)
  (0.168058 -0.0311474 0)
  (0.180174 -0.0485184 0)
  (0.179625 -0.0628343 0)
  (0.170047 -0.0746134 0)
  (0.154272 -0.0852284 0)
  (0.134511 -0.0957917 0)
  (0.112351 -0.107462 0)
  (0.0886767 -0.121869 0)
  (0.0651081 -0.142198 0)
  (0.0250473 -0.1713 0)
  (-0.0581371 -0.16768 0)
  (-0.0666217 -0.156706 0)
  (-0.0729983 -0.152343 0)
  (-0.0810907 -0.148678 0)
  (-0.0896065 -0.144051 0)
  (-0.0975289 -0.138598 0)
  (-0.104808 -0.132423 0)
  (-0.111509 -0.125537 0)
  (-0.117529 -0.117891 0)
  (-0.122553 -0.109327 0)
  (-0.12606 -0.0995051 0)
  (-0.12731 -0.0878381 0)
  (-0.125238 -0.0735008 0)
  (-0.11784 -0.0583392 0)
  (-0.101855 -0.0418086 0)
  (-0.0748874 -0.0230306 0)
  (-0.0383064 -0.00117885 0)
  (0.0231265 0.0262201 0)
  (0.0765789 0.0270676 0)
  (0.12737 0.00320495 0)
  (0.180262 -0.0406996 0)
  (-0.17109 -0.111802 0)
)
;

boundaryField
{
  floor
  {
    type noSlip;
  }
  ceiling
  {
    type noSlip;
  }
  sWall
  {
    type noSlip;
  }
  nWall
  {
    type noSlip;
  }
  sideWalls
  {
    type empty;
  }
  glass1
  {
    type noSlip;
  }
  glass2
  {
    type noSlip;
  }
  sun
  {
    type noSlip;
  }
  heatsource1
  {
    type noSlip;
  }
  heatsource2
  {
    type noSlip;
  }
  Table_master
  {
    type noSlip;
  }
  Table_slave
  {
    type noSlip;
  }
  inlet
  {
    type fixedValue;
    value uniform (0.277164 -0.114805 0);
  }
  outlet
  {
    type zeroGradient;
  }
} 	// ************************************************************************* //

