/*--------------------------------*- C++ -*----------------------------------*\
  =========                 |
  \\      /  F ield         | OpenFOAM: The Open Source CFD Toolbox
   \\    /   O peration     | Website:  https://openfoam.org
    \\  /    A nd           | Version:  6
     \\/     M anipulation  |
\*---------------------------------------------------------------------------*/
FoamFile
{
    version     2.0;
    format      ascii;
    class       volScalarField;
    location    "10";
    object      alphat;
}
// * * * * * * * * * * * * * * * * * * * * * * * * * * * * * * * * * * * * * //

dimensions      [1 -1 -1 0 0 0 0];

internalField   nonuniform List<scalar> 
459
(
0.00145285
0.00181028
0.00204121
0.00217764
0.00224105
0.0022616
0.00227428
0.00229158
0.00230397
0.00230924
0.00230552
0.00228851
0.00224894
0.00216689
0.00201144
0.00138412
0.00175923
0.00194856
0.00200116
0.00194982
0.00178459
0.00150683
0.00136124
0.00131253
0.00129996
0.00129739
0.00129815
0.00130352
0.00132496
0.0013947
0.00154861
0.00160128
0.00151436
0.00131569
0.00185915
0.00844446
0.0116494
0.0134177
0.0143359
0.0147898
0.0149381
0.0149148
0.0148872
0.0148958
0.0149008
0.0148059
0.0144402
0.013417
0.0104635
0.00237151
0.00160198
0.00191556
0.00886719
0.0115375
0.0122825
0.0115328
0.00919962
0.00528889
0.00400748
0.00355387
0.00342179
0.00339177
0.00339804
0.00345337
0.00364598
0.0042462
0.00632259
0.00707367
0.00615808
0.00165663
0.0021148
0.0116584
0.0165499
0.0197123
0.0217752
0.023133
0.0239942
0.0245074
0.0248378
0.0250504
0.0251161
0.0249209
0.0242436
0.0226375
0.0191087
0.0119633
0.00246441
0.00246621
0.0130673
0.0179282
0.0190464
0.017398
0.0123513
0.00207136
0.00145976
0.00132426
0.00130109
0.00129742
0.00129825
0.00130736
0.00136996
0.00175149
0.00835118
0.0104239
0.00876388
0.00195655
0.0022992
0.0128366
0.0186476
0.022771
0.0258415
0.028146
0.0298181
0.0309734
0.0317559
0.0322377
0.0324098
0.0321819
0.0313673
0.0296257
0.0263653
0.0207829
0.0124427
0.00291488
0.0115557
0.0193838
0.0234642
0.0243162
0.0220873
0.0153315
0.00270853
0.00238566
0.00230633
0.00227589
0.00226131
0.00225542
0.00225714
0.00227885
0.00244473
0.0109585
0.0138157
0.0112333
0.00230062
0.00239292
0.0126478
0.0183692
0.0235341
0.0276797
0.0309596
0.0334361
0.035212
0.0364241
0.0371608
0.0374474
0.037243
0.0364392
0.0348502
0.0322203
0.0283431
0.0234334
0.0188977
0.0224859
0.0263592
0.0286858
0.0290856
0.0274131
0.0233973
0.0173655
0.0161618
0.0156811
0.0154127
0.0152527
0.0151598
0.015115
0.0151293
0.0154243
0.0183223
0.0188337
0.016009
0.00927724
0.0021155
0.00170874
0.00159205
0.00237596
0.0112969
0.0156507
0.0224303
0.0278742
0.0321708
0.0353948
0.0376987
0.0392474
0.0401679
0.0405335
0.0403651
0.0396397
0.0383048
0.0363179
0.0337544
0.0310197
0.0291425
0.0300392
0.0316135
0.0326718
0.0327229
0.0315965
0.029355
0.0266029
0.0252144
0.0244691
0.0240279
0.023753
0.0235757
0.0234579
0.0233947
0.0234653
0.0239018
0.023206
0.0205896
0.0157924
0.0100938
0.00709817
0.00203862
0.00218994
0.00879496
0.0109884
0.0200402
0.0269319
0.032177
0.0359827
0.0386292
0.0403511
0.0413335
0.041703
0.0415391
0.0408887
0.039788
0.0382982
0.0365694
0.0349228
0.0338752
0.0339046
0.0343942
0.0347412
0.0345927
0.033818
0.0324985
0.0309896
0.0298865
0.0291495
0.028664
0.0283417
0.0281188
0.0279446
0.0277765
0.0275687
0.0271954
0.0260882
0.0238003
0.0201416
0.0155304
0.011115
0.00248298
0.00192185
0.00560784
0.0060929
0.0169999
0.025261
0.0311409
0.0352027
0.0379063
0.03958
0.0404724
0.0407514
0.0405381
0.0399238
0.0389923
0.0378384
0.0366019
0.0354869
0.034732
0.0344685
0.0344787
0.0344719
0.034236
0.0336807
0.0328493
0.0319164
0.0311133
0.0305012
0.0300614
0.0297515
0.0295239
0.0293269
0.0291005
0.0287606
0.0281575
0.0270089
0.0250322
0.0219752
0.017681
0.0134561
0.00302791
0.00177472
0.001881
0.00310797
0.0133127
0.0229632
0.0288087
0.0325974
0.0350139
0.036432
0.0371025
0.0372118
0.0369049
0.0362967
0.035483
0.0345531
0.0336182
0.0327935
0.0321871
0.0318393
0.0316599
0.0315071
0.0312608
0.0308617
0.0303245
0.0297291
0.0291778
0.0287246
0.0283792
0.0281245
0.0279285
0.0277476
0.0275241
0.0271782
0.026591
0.0255917
0.023983
0.0214943
0.0177774
0.0138193
0.00312504
0.0016603
0.00937008
0.0195547
0.0243007
0.0272806
0.0291014
0.0300788
0.0304365
0.0303518
0.0299673
0.0293942
0.0287169
0.0280021
0.0273153
0.0267201
0.0262596
0.0259459
0.0257383
0.025568
0.0253712
0.0251113
0.0247891
0.0244373
0.0241015
0.0238141
0.0235872
0.023415
0.0232784
0.0231471
0.0229787
0.0227142
0.0222696
0.0215273
0.0203638
0.0186429
0.0161202
0.012255
0.0025472
0.0028513
0.0110061
0.0147536
0.0166773
0.0179785
0.0188017
0.0192382
0.0193858
0.0193369
0.0191667
0.0189295
0.0186614
0.0183835
0.0181142
0.0178828
0.0177046
0.0175807
0.0174959
0.0174253
0.0173453
0.0172418
0.0171145
0.0169744
0.0168381
0.0167189
0.0166234
0.0165503
0.0164926
0.0164378
0.0163686
0.0162593
0.0160642
0.0156947
0.0151493
0.0144385
0.0133769
0.0102898
0.002281
0.00185984
0.00203113
0.00232007
0.00258434
0.00273374
0.00285281
0.00291886
0.00294728
0.0029502
0.00293764
0.00291716
0.00289369
0.00286984
0.00284643
0.00282386
0.00280436
0.00278878
0.00277588
0.00276617
0.00275909
0.00275351
0.00274825
0.00274251
0.00273605
0.00272918
0.00272249
0.0027165
0.00271146
0.00270722
0.00270312
0.00269805
0.00269029
0.0026778
0.00265916
0.00263602
0.00260711
0.00257613
0.00252716
0.002383
0.00194255
)
;

boundaryField
{
    floor
    {
        type            compressible::alphatWallFunction;
        Prt             0.85;
        value           nonuniform List<scalar> 
29
(
0.000279598
0.000196186
0.000246495
0.000271416
0.000278289
0.000271578
0.000249858
0.000212854
0.000193183
0.000186558
0.000184846
0.000184496
0.0001846
0.000185334
0.000188261
0.00019775
0.000218517
0.000225566
0.000213883
0.000186882
0.00018688
0.000232838
0.000272389
0.000317032
0.000279595
0.000196184
0.000267019
0.00033823
0.000394962
)
;
    }
    ceiling
    {
        type            compressible::alphatWallFunction;
        Prt             0.85;
        value           nonuniform List<scalar> 
43
(
0.00025944
0.000281854
0.000319174
0.000352929
0.000371904
0.000386901
0.000395184
0.00039873
0.000399081
0.000397498
0.000394927
0.000391981
0.000388986
0.000386044
0.000383209
0.000380759
0.000378799
0.000377176
0.000375955
0.000375066
0.000374364
0.000373701
0.000372976
0.00037216
0.000371292
0.000370444
0.000369687
0.000369051
0.000368515
0.000368
0.000367362
0.000366384
0.000364804
0.000362438
0.000359495
0.000355804
0.000351821
0.000345532
0.000327117
0.000270248
0.00024841
0.000262388
0.000386368
)
;
    }
    sWall
    {
        type            compressible::alphatWallFunction;
        Prt             0.85;
        value           uniform 0.000259083;
    }
    nWall
    {
        type            compressible::alphatWallFunction;
        Prt             0.85;
        value           nonuniform List<scalar> 6(0.000223841 0.000282695 0.000339841 0.000347929 0.000313848 0.000270005);
    }
    sideWalls
    {
        type            empty;
    }
    glass1
    {
        type            compressible::alphatWallFunction;
        Prt             0.85;
        value           nonuniform List<scalar> 9(0.000205389 0.000259504 0.000292845 0.000316545 0.000328482 0.000326232 0.000302238 0.000267256 0.00024794);
    }
    glass2
    {
        type            compressible::alphatWallFunction;
        Prt             0.85;
        value           nonuniform List<scalar> 2(0.000409456 0.000421525);
    }
    sun
    {
        type            compressible::alphatWallFunction;
        Prt             0.85;
        value           nonuniform List<scalar> 
14
(
0.000205451
0.000253029
0.000283252
0.000300991
0.000309238
0.000311948
0.000313636
0.00031589
0.000317495
0.000318176
0.000317697
0.000315507
0.000310406
0.000299806
)
;
    }
    heatsource1
    {
        type            compressible::alphatWallFunction;
        Prt             0.85;
        value           nonuniform List<scalar> 3(0.000292813 0.000239375 0.000223678);
    }
    heatsource2
    {
        type            compressible::alphatWallFunction;
        Prt             0.85;
        value           nonuniform List<scalar> 4(0.000325676 0.000225108 0.000225106 0.000337592);
    }
    Table_master
    {
        type            compressible::alphatWallFunction;
        Prt             0.85;
        value           nonuniform List<scalar> 9(0.000287 0.000206111 0.000187754 0.000184601 0.000184101 0.000184213 0.000185458 0.000193987 0.000245147);
    }
    Table_slave
    {
        type            compressible::alphatWallFunction;
        Prt             0.85;
        value           nonuniform List<scalar> 9(0.000368585 0.000327527 0.000317358 0.000313448 0.000311575 0.00031082 0.000311047 0.000313847 0.000335134);
    }
    inlet
    {
        type            fixedValue;
        value           uniform 1.94e-05;
    }
    outlet
    {
        type            zeroGradient;
    }
}


// ************************************************************************* //
