// -*- C++ -*-
// File generated by PyFoam - sorry for the ugliness

FoamFile
{
 version 2.0;
 format ascii;
 class volVectorField;
 location "580";
 object U;
}

dimensions [ 0 1 -1 0 0 0 0 ];

internalField nonuniform List<vector> 459
(
  (0.029397 0.0709195 0)
  (-0.137446 0.0217132 0)
  (-0.159409 0.0166645 0)
  (-0.188071 0.0125848 0)
  (-0.210918 0.00804979 0)
  (-0.227307 0.00321807 0)
  (-0.236217 -0.00202181 0)
  (-0.23621 -0.00780779 0)
  (-0.226116 -0.0142832 0)
  (-0.20576 -0.0210218 0)
  (-0.176099 -0.027125 0)
  (-0.139563 -0.0317679 0)
  (-0.0992064 -0.0343521 0)
  (-0.0572571 -0.0348595 0)
  (-0.0146488 -0.0353255 0)
  (-0.118024 0.00114793 0)
  (0.040489 -0.00515697 0)
  (0.0245851 -0.00471897 0)
  (0.0228458 -0.00319179 0)
  (0.0265377 -0.00117066 0)
  (0.028383 0.000138794 0)
  (0.0281234 -0.000204994 0)
  (0.027964 -0.000670352 0)
  (0.028484 -0.000728802 0)
  (0.0291879 -0.000628188 0)
  (0.029728 -0.000528522 0)
  (0.0299815 -0.0004112 0)
  (0.0298576 -0.00017968 0)
  (0.0290732 0.00033855 0)
  (0.0271201 0.00147885 0)
  (0.0233035 0.0036153 0)
  (0.0183814 0.00484936 0)
  (-0.0492994 0.0112565 0)
  (0.143681 -0.0102373 0)
  (0.174396 0.145272 0)
  (-0.131428 0.0563996 0)
  (-0.131558 0.0475729 0)
  (-0.161454 0.0395729 0)
  (-0.184108 0.030477 0)
  (-0.200548 0.0203035 0)
  (-0.209932 0.00863109 0)
  (-0.210805 -0.00492151 0)
  (-0.20197 -0.0200839 0)
  (-0.183745 -0.0351214 0)
  (-0.157487 -0.0476592 0)
  (-0.126036 -0.0557736 0)
  (-0.0930751 -0.0581715 0)
  (-0.0630268 -0.0541274 0)
  (-0.0403553 -0.0434328 0)
  (-0.0236602 -0.0217517 0)
  (-0.00918099 0.00781477 0)
  (-0.152663 0.0019562 0)
  (0.0420401 -0.021688 0)
  (0.0325358 -0.0141634 0)
  (0.0340124 -0.00765097 0)
  (0.0371118 -0.00195021 0)
  (0.0376705 0.00191725 0)
  (0.0366081 0.00045154 0)
  (0.0365713 -0.000645129 0)
  (0.0369905 -0.000686255 0)
  (0.0372862 -0.000306844 0)
  (0.0374565 0.000176105 0)
  (0.0376012 0.000800546 0)
  (0.0376991 0.00169548 0)
  (0.0376691 0.00308589 0)
  (0.0370637 0.00561927 0)
  (0.0340534 0.011539 0)
  (0.0330147 0.0159293 0)
  (-0.0473582 0.0202275 0)
  (0.203555 -0.00103434 0)
  (0.308298 0.218375 0)
  (-0.147389 0.0906487 0)
  (-0.1009 0.0776373 0)
  (-0.130484 0.0628299 0)
  (-0.150767 0.0475112 0)
  (-0.166094 0.0307785 0)
  (-0.175508 0.0117076 0)
  (-0.176964 -0.0102432 0)
  (-0.16855 -0.0344407 0)
  (-0.151243 -0.0578635 0)
  (-0.127007 -0.0763308 0)
  (-0.0988703 -0.0870571 0)
  (-0.0700487 -0.0885129 0)
  (-0.0438262 -0.0799237 0)
  (-0.0224231 -0.0613556 0)
  (-0.00575405 -0.0343676 0)
  (0.00221752 -0.000910045 0)
  (-0.0503985 -0.02528 0)
  (0.0370025 -0.0306338 0)
  (0.0499721 -0.0233281 0)
  (0.0511006 -0.0129069 0)
  (0.0515964 -0.0029792 0)
  (0.049228 0.00489959 0)
  (0.0437366 -2.23523e-05 0)
  (0.0429704 -0.0016921 0)
  (0.0429599 -0.00263312 0)
  (0.0424068 -0.00320154 0)
  (0.0416829 -0.00361819 0)
  (0.041209 -0.00388746 0)
  (0.041247 -0.00388825 0)
  (0.0422984 -0.0033194 0)
  (0.0455105 -0.000574691 0)
  (0.0451948 0.0138719 0)
  (0.0455961 0.0229168 0)
  (-0.023188 0.0274149 0)
  (0.221531 0.0244707 0)
  (0.430361 0.277876 0)
  (-0.178009 0.121167 0)
  (-0.067343 0.103648 0)
  (-0.0965878 0.0830444 0)
  (-0.111759 0.0636045 0)
  (-0.124024 0.0422584 0)
  (-0.13237 0.0170608 0)
  (-0.133539 -0.0131398 0)
  (-0.124382 -0.0468219 0)
  (-0.107533 -0.0785205 0)
  (-0.0858509 -0.102168 0)
  (-0.062069 -0.115007 0)
  (-0.0384468 -0.115895 0)
  (-0.0167693 -0.104443 0)
  (0.003289 -0.0810745 0)
  (0.0221853 -0.0517751 0)
  (0.0449203 -0.0299362 0)
  (0.0755677 -0.0826783 0)
  (0.0864851 -0.0527647 0)
  (0.0838273 -0.038775 0)
  (0.0759201 -0.0272069 0)
  (0.0699164 -0.0149261 0)
  (0.0679137 -0.00366135 0)
  (0.0682146 0.00632354 0)
  (0.0705486 0.00514494 0)
  (0.0673789 0.00263358 0)
  (0.0634761 0.00120719 0)
  (0.0604028 0.00041788 0)
  (0.0577061 -2.62799e-05 0)
  (0.0548149 -0.000178164 0)
  (0.0513353 1.80094e-05 0)
  (0.0466818 0.000724264 0)
  (0.0391299 0.00222509 0)
  (0.0364228 0.0173023 0)
  (0.0446076 0.0269167 0)
  (-0.00827255 0.0308284 0)
  (0.234501 0.0563282 0)
  (0.538372 0.324372 0)
  (-0.215701 0.146299 0)
  (-0.0322315 0.11996 0)
  (-0.0607099 0.0959234 0)
  (-0.0685848 0.0744184 0)
  (-0.0754458 0.0504272 0)
  (-0.0809009 0.0209856 0)
  (-0.0794561 -0.0162805 0)
  (-0.0677028 -0.0589407 0)
  (-0.0518808 -0.0971385 0)
  (-0.0347652 -0.123457 0)
  (-0.0177042 -0.136657 0)
  (-0.0017576 -0.136336 0)
  (0.012639 -0.122629 0)
  (0.0261272 -0.0991433 0)
  (0.0405997 -0.0709359 0)
  (0.0574171 -0.0458276 0)
  (0.0713763 -0.0343951 0)
  (0.0752995 -0.0289839 0)
  (0.069986 -0.0238381 0)
  (0.0636847 -0.0165208 0)
  (0.0589785 -0.0079043 0)
  (0.0563789 -4.25033e-05 0)
  (0.0553831 0.00518971 0)
  (0.0541444 0.00508947 0)
  (0.0515179 0.00438396 0)
  (0.0484332 0.00422922 0)
  (0.0456281 0.00433857 0)
  (0.043055 0.00458953 0)
  (0.0405031 0.00510783 0)
  (0.0378643 0.00608741 0)
  (0.0351174 0.00776525 0)
  (0.0321856 0.0105017 0)
  (0.0315658 0.0171742 0)
  (0.0411481 0.0228044 0)
  (0.0173263 0.0209519 0)
  (0.113677 0.0537072 0)
  (0.0827509 0.0532514 0)
  (-0.0954941 0.0562793 0)
  (0.332668 -0.021445 0)
  (0.620088 0.363416 0)
  (-0.253869 0.163748 0)
  (-0.00238525 0.12055 0)
  (-0.0238353 0.100751 0)
  (-0.0238791 0.0796354 0)
  (-0.0241667 0.0547932 0)
  (-0.025356 0.0238128 0)
  (-0.0150445 -0.0199459 0)
  (0.000814442 -0.071891 0)
  (0.0134407 -0.113062 0)
  (0.0232265 -0.138098 0)
  (0.0310705 -0.14916 0)
  (0.0367806 -0.146913 0)
  (0.0410935 -0.132608 0)
  (0.0452368 -0.109271 0)
  (0.0501121 -0.0819751 0)
  (0.0557561 -0.0572785 0)
  (0.0589673 -0.0412497 0)
  (0.0568498 -0.0314904 0)
  (0.051049 -0.0224102 0)
  (0.0449499 -0.0134005 0)
  (0.040076 -0.0050834 0)
  (0.0365517 0.00173567 0)
  (0.0349162 0.00607596 0)
  (0.033641 0.00726027 0)
  (0.0319618 0.00705131 0)
  (0.0299987 0.0067069 0)
  (0.0280917 0.00649558 0)
  (0.0263242 0.00649475 0)
  (0.0246829 0.00683812 0)
  (0.023219 0.00767061 0)
  (0.0220712 0.00910633 0)
  (0.0213542 0.011178 0)
  (0.0221167 0.0141141 0)
  (0.0274158 0.0155599 0)
  (0.0156768 0.00726948 0)
  (0.0384259 0.0323457 0)
  (0.0421883 0.0549454 0)
  (-0.134061 0.0726075 0)
  (0.347613 -0.0399765 0)
  (0.66252 0.398 0)
  (-0.276769 0.152849 0)
  (0.0203982 0.086024 0)
  (0.0210251 0.0930929 0)
  (0.0256375 0.0801041 0)
  (0.0311039 0.0534991 0)
  (0.0374568 0.0161142 0)
  (0.0612351 -0.0372394 0)
  (0.076329 -0.0854055 0)
  (0.0828069 -0.120943 0)
  (0.0834941 -0.142475 0)
  (0.0802377 -0.150639 0)
  (0.0741736 -0.146412 0)
  (0.0666912 -0.131283 0)
  (0.0593134 -0.10815 0)
  (0.0529472 -0.081442 0)
  (0.0477037 -0.0567827 0)
  (0.0421893 -0.0383181 0)
  (0.0352976 -0.0255614 0)
  (0.0279452 -0.0157284 0)
  (0.021572 -0.00756088 0)
  (0.016767 -0.000797605 0)
  (0.0138036 0.00426383 0)
  (0.0127127 0.00730932 0)
  (0.0121939 0.00836896 0)
  (0.0115642 0.00828346 0)
  (0.0107181 0.00792512 0)
  (0.00980325 0.00763858 0)
  (0.00894748 0.00753341 0)
  (0.00826975 0.0076902 0)
  (0.00793795 0.00817677 0)
  (0.00815613 0.00901918 0)
  (0.00905116 0.0101743 0)
  (0.0109418 0.0116174 0)
  (0.0141571 0.0126703 0)
  (0.00789447 0.0113209 0)
  (0.0130456 0.0336696 0)
  (0.0320123 0.073871 0)
  (-0.182461 0.0893401 0)
  (0.43604 -0.0475257 0)
  (0.755304 0.403668 0)
  (-0.0876713 0.124853 0)
  (0.0786049 0.0182331 0)
  (0.115804 0.025186 0)
  (0.112055 0.0286718 0)
  (0.113441 0.00782437 0)
  (0.131882 -0.0296707 0)
  (0.153893 -0.0657294 0)
  (0.160561 -0.0972068 0)
  (0.155241 -0.120926 0)
  (0.142297 -0.134834 0)
  (0.124589 -0.138331 0)
  (0.104253 -0.13173 0)
  (0.0832609 -0.116163 0)
  (0.0635612 -0.0940303 0)
  (0.0462923 -0.0688934 0)
  (0.0319714 -0.0458179 0)
  (0.0200087 -0.0281015 0)
  (0.00997135 -0.0160949 0)
  (0.00192862 -0.00778159 0)
  (-0.00388034 -0.00152386 0)
  (-0.00759495 0.00303999 0)
  (-0.00901273 0.00610204 0)
  (-0.00924187 0.00797624 0)
  (-0.00901484 0.00879112 0)
  (-0.00882502 0.00889413 0)
  (-0.00879905 0.00871635 0)
  (-0.00884613 0.00848724 0)
  (-0.00881641 0.00829288 0)
  (-0.00852955 0.00817324 0)
  (-0.00776607 0.00815007 0)
  (-0.00628213 0.0082377 0)
  (-0.00385722 0.00849518 0)
  (-0.000157529 0.00920594 0)
  (0.0048005 0.0109719 0)
  (0.00690833 0.0143625 0)
  (0.01686 0.0340116 0)
  (0.0535393 0.0749821 0)
  (-0.144706 0.0749678 0)
  (0.72625 0.00356771 0)
  (0.878317 0.405267 0)
  (0.422833 0.287533 0)
  (0.424143 0.2232 0)
  (0.407604 0.159385 0)
  (0.364883 0.111764 0)
  (0.331957 0.0659233 0)
  (0.312465 0.0194792 0)
  (0.286172 -0.0259576 0)
  (0.254982 -0.0632867 0)
  (0.221395 -0.0893898 0)
  (0.186504 -0.10394 0)
  (0.150854 -0.107533 0)
  (0.115337 -0.101449 0)
  (0.0813341 -0.0873856 0)
  (0.0509315 -0.0678225 0)
  (0.0254108 -0.0457273 0)
  (0.00608643 -0.0262455 0)
  (-0.00820394 -0.011839 0)
  (-0.0175541 -0.00370136 0)
  (-0.0239492 0.00145186 0)
  (-0.0279499 0.00504327 0)
  (-0.0295991 0.00743975 0)
  (-0.0299644 0.00914489 0)
  (-0.0295424 0.0103349 0)
  (-0.0287548 0.0110117 0)
  (-0.0279043 0.0112612 0)
  (-0.0270933 0.0112329 0)
  (-0.0262841 0.0110313 0)
  (-0.0253792 0.0107038 0)
  (-0.0242479 0.0102652 0)
  (-0.0227255 0.00971686 0)
  (-0.0206105 0.00907511 0)
  (-0.0176554 0.00843248 0)
  (-0.0135035 0.00805129 0)
  (-0.00781247 0.00852151 0)
  (-0.000485215 0.0110859 0)
  (0.0157491 0.0233651 0)
  (0.0526346 0.0529052 0)
  (-0.109155 0.0441296 0)
  (0.715771 0.0449541 0)
  (0.12611 0.0747899 0)
  (0.238985 0.106308 0)
  (0.277193 0.0881418 0)
  (0.275373 0.0559892 0)
  (0.266365 0.0232851 0)
  (0.253118 -0.00578549 0)
  (0.231398 -0.0335747 0)
  (0.202265 -0.0565032 0)
  (0.167241 -0.0712548 0)
  (0.128523 -0.076065 0)
  (0.0886828 -0.0719968 0)
  (0.0501647 -0.0607558 0)
  (0.0165015 -0.0446388 0)
  (-0.0109667 -0.0254011 0)
  (-0.02707 -0.0111546 0)
  (-0.0366776 -0.00103911 0)
  (-0.0422552 0.00479811 0)
  (-0.0454674 0.00783252 0)
  (-0.0468366 0.00969811 0)
  (-0.0470673 0.0109374 0)
  (-0.046549 0.0118008 0)
  (-0.0455175 0.0123356 0)
  (-0.0441848 0.0125223 0)
  (-0.0427241 0.0123805 0)
  (-0.0412318 0.0119709 0)
  (-0.0397405 0.0113495 0)
  (-0.0382503 0.0105484 0)
  (-0.0367447 0.00957525 0)
  (-0.035194 0.0084184 0)
  (-0.0335591 0.00705297 0)
  (-0.0318268 0.00540828 0)
  (-0.0300834 0.00317138 0)
  (-0.0281731 0.000749597 0)
  (-0.0242325 0.00140038 0)
  (-0.01412 0.0105424 0)
  (-0.00420683 0.0317064 0)
  (-0.157801 0.0250823 0)
  (0.435791 0.0719503 0)
  (-0.0205222 0.136424 0)
  (0.0982902 0.103778 0)
  (0.136929 0.0504784 0)
  (0.159316 0.00307995 0)
  (0.170468 -0.0423489 0)
  (0.168973 -0.0819287 0)
  (0.153853 -0.100391 0)
  (0.126615 -0.10193 0)
  (0.0943072 -0.0956059 0)
  (0.0611605 -0.0891101 0)
  (0.0294458 -0.0840539 0)
  (1.80246e-05 -0.0807287 0)
  (-0.0222423 -0.0814221 0)
  (-0.0374857 -0.0841834 0)
  (-0.0475907 -0.0862442 0)
  (-0.0537257 -0.08616 0)
  (-0.0567349 -0.0860754 0)
  (-0.0580054 -0.0858336 0)
  (-0.058396 -0.0857189 0)
  (-0.0581532 -0.0855154 0)
  (-0.0573822 -0.0851776 0)
  (-0.0561793 -0.084782 0)
  (-0.0546622 -0.0844413 0)
  (-0.0529567 -0.0842316 0)
  (-0.0511721 -0.0841877 0)
  (-0.0493946 -0.0843391 0)
  (-0.0476957 -0.0847362 0)
  (-0.0461466 -0.0854628 0)
  (-0.0448379 -0.0866326 0)
  (-0.0439295 -0.0883612 0)
  (-0.0437748 -0.090694 0)
  (-0.0449911 -0.0933396 0)
  (-0.0476372 -0.095295 0)
  (-0.0492729 -0.0930284 0)
  (-0.047949 -0.0781508 0)
  (-0.0580619 -0.0493369 0)
  (-0.128223 -0.0356049 0)
  (0.346346 -0.00871986 0)
  (0.135838 -0.190318 0)
  (-0.253114 -0.0270194 0)
  (-0.162734 0.233358 0)
  (-0.0794159 0.225263 0)
  (-0.0276489 0.223069 0)
  (0.0217538 0.241895 0)
  (0.041402 0.264579 0)
  (0.0487918 0.293155 0)
  (0.0476241 0.296612 0)
  (0.0356649 0.282685 0)
  (0.0143442 0.270166 0)
  (-0.014701 0.270943 0)
  (-0.0330943 0.273492 0)
  (-0.048539 0.2787 0)
  (-0.0590626 0.287028 0)
  (-0.0653265 0.296912 0)
  (-0.068591 0.304375 0)
  (-0.0699111 0.307722 0)
  (-0.0700798 0.310401 0)
  (-0.0695236 0.312281 0)
  (-0.0685121 0.313901 0)
  (-0.0672049 0.315151 0)
  (-0.0656587 0.316072 0)
  (-0.0639259 0.316749 0)
  (-0.0620848 0.317258 0)
  (-0.0602373 0.317645 0)
  (-0.0584925 0.317924 0)
  (-0.0569594 0.318113 0)
  (-0.0557446 0.318249 0)
  (-0.0549488 0.318406 0)
  (-0.0546685 0.318723 0)
  (-0.0550404 0.319427 0)
  (-0.0562742 0.320814 0)
  (-0.0582418 0.32281 0)
  (-0.0594146 0.324241 0)
  (-0.0576093 0.321314 0)
  (-0.0585038 0.307722 0)
  (-0.0872314 0.288089 0)
  (-0.153729 0.286161 0)
  (0.442614 0.324673 0)
)
;

boundaryField
{
  floor
  {
    type noSlip;
  }
  ceiling
  {
    type noSlip;
  }
  sWall
  {
    type noSlip;
  }
  nWall
  {
    type noSlip;
  }
  sideWalls
  {
    type empty;
  }
  glass1
  {
    type noSlip;
  }
  glass2
  {
    type noSlip;
  }
  sun
  {
    type noSlip;
  }
  heatsource1
  {
    type noSlip;
  }
  heatsource2
  {
    type noSlip;
  }
  Table_master
  {
    type noSlip;
  }
  Table_slave
  {
    type noSlip;
  }
  inlet
  {
    type fixedValue;
    value uniform (0.277164 -0.114805 0);
  }
  outlet
  {
    type zeroGradient;
  }
} 	// ************************************************************************* //

