/*--------------------------------*- C++ -*----------------------------------*\
  =========                 |
  \\      /  F ield         | OpenFOAM: The Open Source CFD Toolbox
   \\    /   O peration     | Website:  https://openfoam.org
    \\  /    A nd           | Version:  6
     \\/     M anipulation  |
\*---------------------------------------------------------------------------*/
FoamFile
{
    version     2.0;
    format      ascii;
    class       volScalarField;
    location    "800";
    object      alphat;
}
// * * * * * * * * * * * * * * * * * * * * * * * * * * * * * * * * * * * * * //

dimensions      [1 -1 -1 0 0 0 0];

internalField   nonuniform List<scalar> 
459
(
0.000908775
0.000962205
0.000904849
0.000941151
0.000978096
0.00101281
0.00104636
0.00108069
0.00110814
0.0011278
0.00113864
0.00113794
0.00112021
0.00107438
0.000972691
0.000319572
0.000333274
0.000352022
0.000379108
0.00041096
0.000446496
0.000484902
0.000525159
0.00056604
0.000606497
0.000646286
0.000686097
0.000726109
0.000767314
0.00080922
0.000836481
0.000796962
0.000679368
0.000501161
0.00148857
0.00322325
0.00298714
0.00383976
0.00427977
0.00466947
0.00499879
0.00522575
0.00538512
0.00546828
0.00545855
0.0053172
0.00497014
0.00429262
0.00309404
0.00098474
0.000728803
0.000372472
0.000602896
0.00055146
0.000562403
0.000598616
0.000659698
0.000745673
0.000853011
0.00097533
0.00110258
0.00121768
0.00130762
0.00140833
0.001558
0.00179593
0.00235955
0.0020877
0.0014948
0.000676012
0.0019404
0.00469379
0.00366642
0.00539865
0.00624384
0.006809
0.00721462
0.00746719
0.0076125
0.00762922
0.00750413
0.0072007
0.00664576
0.00573236
0.00435912
0.00257084
0.000884488
0.000465567
0.000822244
0.000628425
0.00052478
0.000454098
0.000403589
0.000373889
0.000413739
0.00046613
0.000528682
0.000605703
0.000704917
0.000825025
0.00096038
0.00110583
0.00267385
0.00236574
0.00174956
0.000969982
0.0023533
0.00642837
0.00466588
0.00557778
0.00655701
0.00741048
0.00810649
0.00858934
0.00893083
0.00907222
0.00903325
0.00879758
0.00830039
0.00743399
0.00608698
0.00424318
0.00217166
0.000784034
0.00107983
0.00122103
0.00112443
0.00111802
0.00110263
0.00104527
0.000947443
0.000972884
0.00099754
0.00102426
0.00105297
0.00108796
0.00113387
0.00119617
0.00128099
0.00321668
0.00280662
0.00208462
0.00125801
0.0025234
0.00847514
0.00671786
0.00721479
0.00738818
0.00766824
0.0081731
0.00887666
0.00960327
0.0100699
0.0103512
0.010448
0.0103328
0.00993731
0.00917585
0.00801694
0.00655849
0.00499709
0.00358205
0.00329975
0.00340302
0.00367903
0.00401752
0.00434618
0.00459593
0.00476138
0.00479396
0.00474791
0.00468635
0.00462647
0.00459017
0.00458862
0.00458897
0.00447463
0.00390476
0.0030846
0.00208893
0.00132932
0.00129903
0.0012763
0.00280673
0.00485803
0.005122
0.00564185
0.0061419
0.0065341
0.0069717
0.00797253
0.00927682
0.0100833
0.0108449
0.0114237
0.0118073
0.0119813
0.0118714
0.0113946
0.0105105
0.00927923
0.00788212
0.00710065
0.00685893
0.00695749
0.00722074
0.00752219
0.00776402
0.00788924
0.00787804
0.00774083
0.00754931
0.00732753
0.00709323
0.00685945
0.00661395
0.00629104
0.00580141
0.00513792
0.00436517
0.00362116
0.00282736
0.0015005
0.00426483
0.00427913
0.00448389
0.00478848
0.00527597
0.00574156
0.00611404
0.00653603
0.00718831
0.00842364
0.00990717
0.0111044
0.0120234
0.0127391
0.0132108
0.0133602
0.0131109
0.0124526
0.0114916
0.0106342
0.0101168
0.0099158
0.00992796
0.0100494
0.0101918
0.0102922
0.010315
0.0102432
0.0100651
0.00981739
0.00951281
0.00916536
0.008782
0.0083377
0.00777046
0.00702682
0.00608369
0.00500956
0.00393911
0.00165663
0.00500098
0.00580091
0.00727344
0.00573556
0.00534167
0.00548141
0.00565677
0.00581373
0.006071
0.00665502
0.00779888
0.00928426
0.0107209
0.0119632
0.0129653
0.0136758
0.0140141
0.0139357
0.0134961
0.0128887
0.0123662
0.0120192
0.0118455
0.0117989
0.0118233
0.0118682
0.011895
0.0118753
0.0117845
0.0116
0.0113196
0.0109516
0.0105007
0.00995888
0.0092993
0.00848976
0.00750984
0.00637886
0.00539151
0.0017626
0.00608436
0.00801868
0.0177346
0.00961881
0.0061144
0.00580367
0.00573962
0.00568644
0.00570218
0.0059025
0.00642028
0.00737166
0.00864143
0.00997587
0.0112242
0.0122929
0.0130869
0.0135242
0.0135944
0.0133954
0.0130987
0.0128156
0.0125997
0.012462
0.0123903
0.0123621
0.0123523
0.0123367
0.0122915
0.0121849
0.0119706
0.011638
0.0111808
0.0105935
0.00986621
0.00899302
0.0079858
0.00690263
0.00586397
0.00184043
0.0253996
0.0173327
0.00724955
0.00636532
0.00618058
0.00600378
0.00590608
0.00594501
0.00615782
0.00656367
0.00717624
0.00794843
0.00884065
0.00978352
0.0106735
0.0113827
0.0118378
0.0120614
0.01211
0.0120551
0.0119554
0.0118493
0.0117568
0.011684
0.0116277
0.0115791
0.0115247
0.0114438
0.0112835
0.0110124
0.0106114
0.0100734
0.00940196
0.00861139
0.00772398
0.00676313
0.0056441
0.00187309
0.00805178
0.01192
0.0081446
0.00623322
0.00565661
0.00546828
0.00546673
0.00561859
0.00590647
0.00630613
0.0067908
0.00733131
0.00789179
0.00843526
0.00892691
0.00933804
0.00964753
0.00984296
0.00993283
0.00994133
0.0098974
0.00982678
0.00974851
0.00967442
0.00961034
0.00955771
0.00951521
0.00948057
0.00943593
0.0093262
0.0091319
0.00884138
0.00844783
0.00794618
0.00732847
0.00656891
0.00567023
0.00186679
0.0016121
0.00183888
0.00479788
0.00422778
0.00350863
0.00296739
0.00259944
0.00235266
0.00218248
0.00206222
0.00197764
0.00192194
0.00189209
0.00188676
0.00190216
0.0019324
0.00197017
0.00200868
0.00204207
0.00206612
0.00207962
0.00208356
0.00208012
0.00207164
0.00206022
0.0020474
0.00203419
0.00202096
0.0020075
0.00199299
0.00197853
0.00196605
0.00195344
0.0019385
0.00191884
0.00189162
0.00185277
0.00179553
0.0017176
0.00148237
)
;

boundaryField
{
    floor
    {
        type            compressible::alphatWallFunction;
        Prt             0.85;
        value           nonuniform List<scalar> 
29
(
0.000138504
4.09292e-05
4.31229e-05
4.61199e-05
5.04281e-05
5.54509e-05
6.10014e-05
6.69421e-05
7.31091e-05
7.93144e-05
8.54024e-05
9.13409e-05
9.72373e-05
0.000103119
0.00010913
0.000115196
0.000119109
0.00011339
9.62398e-05
6.94682e-05
6.94673e-05
9.58589e-05
0.000138274
0.000178275
0.000138502
4.09286e-05
4.94407e-05
6.40425e-05
0.000111505
)
;
    }
    ceiling
    {
        type            compressible::alphatWallFunction;
        Prt             0.85;
        value           nonuniform List<scalar> 
43
(
0.000226517
0.000256558
0.000623719
0.000555451
0.000467974
0.000400916
0.000354602
0.000323151
0.000301258
0.000285676
0.000274658
0.000267371
0.000263453
0.000262746
0.000264756
0.000268708
0.000273639
0.000278659
0.000283003
0.000286131
0.000287883
0.000288397
0.000287952
0.000286853
0.000285371
0.000283706
0.000281988
0.000280266
0.000278514
0.000276624
0.000274731
0.000273098
0.000271448
0.000269492
0.000266918
0.000263349
0.000258246
0.000250705
0.000240393
0.000208974
0.000774855
0.000996577
0.00100044
)
;
    }
    sWall
    {
        type            compressible::alphatWallFunction;
        Prt             0.85;
        value           uniform 0.000225642;
    }
    nWall
    {
        type            compressible::alphatWallFunction;
        Prt             0.85;
        value           nonuniform List<scalar> 6(0.00018055 0.00021112 0.000232049 0.000260633 0.000259776 0.000208717);
    }
    sideWalls
    {
        type            empty;
    }
    glass1
    {
        type            compressible::alphatWallFunction;
        Prt             0.85;
        value           nonuniform List<scalar> 9(0.000126388 0.000205421 0.000264716 0.000317701 0.000339362 0.000375314 0.000555756 0.000643541 0.000770346);
    }
    glass2
    {
        type            compressible::alphatWallFunction;
        Prt             0.85;
        value           nonuniform List<scalar> 2(0.000245726 0.000255996);
    }
    sun
    {
        type            compressible::alphatWallFunction;
        Prt             0.85;
        value           nonuniform List<scalar> 
14
(
0.000129477
0.000137045
0.0001289
0.000134063
0.000139293
0.000144188
0.000148899
0.000153703
0.000157532
0.000160267
0.000161773
0.000161676
0.000159211
0.000152819
)
;
    }
    heatsource1
    {
        type            compressible::alphatWallFunction;
        Prt             0.85;
        value           nonuniform List<scalar> 3(0.000187957 0.000183779 0.000180703);
    }
    heatsource2
    {
        type            compressible::alphatWallFunction;
        Prt             0.85;
        value           nonuniform List<scalar> 4(0.00014024 0.000103558 0.000103557 0.000125984);
    }
    Table_master
    {
        type            compressible::alphatWallFunction;
        Prt             0.85;
        value           nonuniform List<scalar> 9(4.96398e-05 5.59286e-05 6.40878e-05 7.36816e-05 8.52988e-05 0.000100003 0.000117483 0.000136824 0.000157245);
    }
    Table_slave
    {
        type            compressible::alphatWallFunction;
        Prt             0.85;
        value           nonuniform List<scalar> 9(0.000134995 0.000138599 0.000142079 0.000145837 0.00014986 0.000154745 0.000161129 0.000169748 0.00018141);
    }
    inlet
    {
        type            fixedValue;
        value           uniform 1.94e-05;
    }
    outlet
    {
        type            zeroGradient;
    }
}


// ************************************************************************* //
