/*--------------------------------*- C++ -*----------------------------------*\
  =========                 |
  \\      /  F ield         | OpenFOAM: The Open Source CFD Toolbox
   \\    /   O peration     | Website:  https://openfoam.org
    \\  /    A nd           | Version:  6
     \\/     M anipulation  |
\*---------------------------------------------------------------------------*/
FoamFile
{
    version     2.0;
    format      ascii;
    class       volScalarField;
    location    "720";
    object      alphat;
}
// * * * * * * * * * * * * * * * * * * * * * * * * * * * * * * * * * * * * * //

dimensions      [1 -1 -1 0 0 0 0];

internalField   nonuniform List<scalar> 
459
(
0.000881943
0.000972016
0.00100642
0.00105995
0.00111025
0.00115968
0.0012121
0.00125937
0.0012956
0.00131386
0.00130663
0.00126517
0.00113523
0.000959413
0.000805183
0.000489021
0.000716378
0.000733506
0.000740389
0.000736035
0.000719585
0.000684475
0.00064525
0.000608344
0.000574888
0.000544857
0.000517956
0.000493535
0.000470928
0.000449312
0.000427472
0.000403287
0.000365788
0.000322826
0.0011496
0.00276564
0.00264061
0.00304736
0.00348074
0.00390827
0.00423978
0.0045719
0.00491083
0.00522555
0.0054732
0.00559744
0.0055159
0.0050231
0.00337216
0.000998731
0.000774197
0.000736545
0.00230101
0.00241401
0.00274278
0.00295254
0.0028714
0.00211129
0.00178882
0.00157614
0.00141845
0.00129407
0.00118523
0.00108662
0.000992086
0.000898302
0.000816844
0.000765472
0.000620962
0.000389977
0.00137417
0.00371484
0.0032797
0.00384004
0.00412731
0.00434116
0.00451581
0.00474956
0.00507361
0.00548774
0.0059521
0.00636956
0.00661335
0.00645508
0.00562882
0.00371259
0.000980493
0.000871742
0.00194127
0.00278398
0.00344513
0.00383026
0.00352054
0.000921588
0.000813097
0.000725782
0.000655943
0.000599723
0.000554318
0.000517487
0.000488004
0.000466085
0.000529553
0.000644578
0.000659357
0.00042403
0.00158861
0.00454114
0.00325749
0.00392402
0.00399705
0.00397615
0.00401905
0.00417813
0.0044871
0.00497352
0.00559356
0.00618803
0.00661211
0.0067571
0.00652205
0.00550055
0.00304416
0.00113913
0.00170047
0.00260312
0.00360794
0.0043892
0.00477927
0.00427866
0.00100772
0.000927186
0.000876117
0.000841618
0.000814842
0.000788785
0.000759037
0.000727866
0.000690369
0.000655677
0.00066724
0.000728081
0.000478742
0.00180889
0.00561373
0.00329904
0.00376856
0.00379076
0.00363302
0.00362478
0.00375522
0.00405757
0.00459334
0.00530541
0.00592921
0.00636444
0.00658482
0.00660399
0.00630283
0.00547118
0.00509203
0.00528793
0.00564091
0.00593641
0.00607481
0.00602414
0.00569135
0.00469873
0.00429852
0.00411836
0.00401531
0.0039203
0.00378768
0.00354911
0.00312891
0.00257239
0.00196755
0.00147077
0.00121177
0.000813399
0.000558735
0.000570242
0.00064031
0.00204757
0.00688733
0.00414571
0.00358644
0.00373389
0.00365151
0.00352972
0.00361864
0.00391287
0.00447669
0.00519609
0.00584282
0.00625629
0.00643839
0.00651706
0.00660742
0.00668846
0.00693586
0.00716612
0.00724983
0.00715864
0.00691726
0.0065745
0.00617773
0.00576514
0.00550903
0.00536236
0.00525892
0.0051526
0.00500888
0.0047981
0.0044463
0.00393037
0.00327321
0.00258585
0.0020541
0.00154727
0.00118766
0.0012412
0.000819325
0.002287
0.00791457
0.00590723
0.00413898
0.00386554
0.00386263
0.00370215
0.00367925
0.00394816
0.00454813
0.00531969
0.00599268
0.00638793
0.00653598
0.00664512
0.00693457
0.00735786
0.00770316
0.00781617
0.00767396
0.00733464
0.00687947
0.00639501
0.00596482
0.00565588
0.00548771
0.00540059
0.00533622
0.00525485
0.00513033
0.00495918
0.00475503
0.00445482
0.00399431
0.00342805
0.00287058
0.00231832
0.00188335
0.00168551
0.000961308
0.00235563
0.00760083
0.0063692
0.00536211
0.00479869
0.00430589
0.00386713
0.00376388
0.00410125
0.00482516
0.00568637
0.00637086
0.00672748
0.00685644
0.00698303
0.007249
0.00751618
0.00762865
0.00751493
0.00718714
0.00672767
0.00623585
0.00579806
0.00546747
0.00525562
0.00513374
0.00505518
0.00498336
0.00488995
0.0047579
0.0046047
0.0044851
0.00443483
0.0042774
0.00398192
0.00367123
0.00335758
0.00288674
0.00298098
0.00131114
0.00231711
0.00278633
0.0030697
0.00317671
0.0031481
0.00311174
0.00320305
0.00360502
0.00438175
0.00540428
0.00635043
0.0069357
0.00714577
0.00719455
0.00711058
0.00701506
0.00695067
0.00685176
0.00662895
0.00629498
0.00592678
0.0055892
0.00531647
0.00510945
0.00494844
0.00480796
0.00466794
0.0045153
0.00433216
0.00409317
0.00379822
0.00349349
0.00321684
0.00298591
0.00277055
0.00256057
0.00236307
0.00218077
0.00204949
0.00134739
0.00100694
0.00165078
0.00219421
0.00276548
0.00359691
0.00462704
0.0057256
0.00672415
0.00731774
0.0074049
0.0071786
0.00686318
0.00658562
0.00642965
0.00633973
0.00623972
0.0060916
0.00589774
0.0057031
0.00552943
0.00537879
0.00523668
0.0050809
0.0048896
0.0046483
0.00435498
0.00402082
0.00366354
0.00330091
0.00296581
0.00271746
0.00254921
0.00243157
0.00233649
0.00222948
0.00208331
0.00192847
0.00135595
0.00137045
0.00288872
0.00400828
0.00523893
0.00626979
0.00690579
0.00750495
0.00802606
0.00805169
0.0076058
0.00706265
0.00666953
0.00646117
0.00637509
0.00634605
0.00633206
0.00630892
0.00626223
0.00618782
0.00611735
0.0060618
0.0060141
0.00595553
0.00585787
0.00568824
0.0054192
0.00504261
0.0045797
0.00409553
0.00363662
0.00324506
0.00293963
0.00272162
0.00256686
0.00243348
0.00231951
0.00281999
0.00144719
0.00148595
0.00154918
0.00160481
0.00182705
0.00182482
0.00176708
0.00172123
0.00174597
0.00175919
0.00173781
0.00168039
0.0016191
0.00156136
0.00152397
0.0015054
0.001497
0.0014926
0.00148846
0.00148308
0.00147755
0.00147456
0.00147228
0.00146903
0.00146246
0.00144949
0.00142712
0.00139381
0.00135121
0.00130535
0.00126619
0.00123704
0.00122024
0.00121518
0.00122166
0.00123885
0.00126353
0.00128709
0.00127744
0.00123252
0.00118829
)
;

boundaryField
{
    floor
    {
        type            compressible::alphatWallFunction;
        Prt             0.85;
        value           nonuniform List<scalar> 
29
(
0.000114731
6.77433e-05
0.000101812
0.00010432
0.000105326
0.000104691
0.000102285
9.71265e-05
9.1325e-05
8.58269e-05
8.0807e-05
7.62701e-05
7.21795e-05
6.84429e-05
6.49629e-05
6.16154e-05
5.82125e-05
5.44178e-05
4.84746e-05
4.15652e-05
4.15646e-05
5.23161e-05
5.7674e-05
6.61688e-05
0.000114729
6.77425e-05
0.000104761
0.000124306
0.000161963
)
;
    }
    ceiling
    {
        type            compressible::alphatWallFunction;
        Prt             0.85;
        value           nonuniform List<scalar> 
43
(
0.000209281
0.000217771
0.000225211
0.000254673
0.00025439
0.000246789
0.000240734
0.000244015
0.000245767
0.000242942
0.000235334
0.000227179
0.000219466
0.000214453
0.000211959
0.00021083
0.000210239
0.000209682
0.000208958
0.000208212
0.000207811
0.000207503
0.000207064
0.000206179
0.000204429
0.000201406
0.000196896
0.000191109
0.000184856
0.000179498
0.000175497
0.000173186
0.00017249
0.000173382
0.000175746
0.000179135
0.000182362
0.000181041
0.000174877
0.000168785
0.000318363
0.000377929
0.000193639
)
;
    }
    sWall
    {
        type            compressible::alphatWallFunction;
        Prt             0.85;
        value           uniform 0.000208793;
    }
    nWall
    {
        type            compressible::alphatWallFunction;
        Prt             0.85;
        value           nonuniform List<scalar> 6(9.02639e-05 0.000116449 0.000136721 0.000191398 0.000203759 0.00016843);
    }
    sideWalls
    {
        type            empty;
    }
    glass1
    {
        type            compressible::alphatWallFunction;
        Prt             0.85;
        value           nonuniform List<scalar> 9(0.000124399 0.000161823 0.00019247 0.000221226 0.000250335 0.000281453 0.000312286 0.000321089 0.000316221);
    }
    glass2
    {
        type            compressible::alphatWallFunction;
        Prt             0.85;
        value           nonuniform List<scalar> 2(0.000184397 0.000189356);
    }
    sun
    {
        type            compressible::alphatWallFunction;
        Prt             0.85;
        value           nonuniform List<scalar> 
14
(
0.000125767
0.000138565
0.000143417
0.000150929
0.000157947
0.000164809
0.00017205
0.000178547
0.000183508
0.000186003
0.000185016
0.000179342
0.00016142
0.000136782
)
;
    }
    heatsource1
    {
        type            compressible::alphatWallFunction;
        Prt             0.85;
        value           nonuniform List<scalar> 3(7.82818e-05 8.00183e-05 9.0486e-05);
    }
    heatsource2
    {
        type            compressible::alphatWallFunction;
        Prt             0.85;
        value           nonuniform List<scalar> 4(0.000142242 0.000110154 0.000110153 0.000139668);
    }
    Table_master
    {
        type            compressible::alphatWallFunction;
        Prt             0.85;
        value           nonuniform List<scalar> 9(0.000131322 0.000115782 0.000103096 9.28161e-05 8.4444e-05 7.76117e-05 7.20184e-05 6.75051e-05 6.41275e-05);
    }
    Table_slave
    {
        type            compressible::alphatWallFunction;
        Prt             0.85;
        value           nonuniform List<scalar> 9(0.000143508 0.00013212 0.000124839 0.000119892 0.000116036 0.000112269 0.00010795 0.000103403 9.79011e-05);
    }
    inlet
    {
        type            fixedValue;
        value           uniform 1.94e-05;
    }
    outlet
    {
        type            zeroGradient;
    }
}


// ************************************************************************* //
