// -*- C++ -*-
// File generated by PyFoam - sorry for the ugliness

FoamFile
{
 version 2.0;
 format ascii;
 class volVectorField;
 location "100";
 object U;
}

dimensions [ 0 1 -1 0 0 0 0 ];

internalField nonuniform List<vector> 459
(
  (0.00272871 0.092828 0)
  (-0.189401 0.0277549 0)
  (-0.222005 0.00695204 0)
  (-0.239141 -0.00970443 0)
  (-0.227214 -0.0275145 0)
  (-0.186885 -0.0474369 0)
  (-0.124611 -0.0656006 0)
  (-0.0552906 -0.0768582 0)
  (0.0404638 -0.0611102 0)
  (0.0889559 -0.0433879 0)
  (0.126801 -0.0274049 0)
  (0.147288 -0.0131266 0)
  (0.147209 0.00143695 0)
  (0.123298 0.022679 0)
  (0.093691 0.0688502 0)
  (-0.0399456 0.0176246 0)
  (-0.0564999 -0.00982811 0)
  (-0.0367135 -0.0280016 0)
  (-0.0095743 -0.0357209 0)
  (0.0262081 -0.0302153 0)
  (0.0515437 -0.0219572 0)
  (0.0701471 -0.0127723 0)
  (0.0818244 -0.00772889 0)
  (0.0878048 -0.00577774 0)
  (0.0909308 -0.00497153 0)
  (0.0930596 -0.00445084 0)
  (0.0946787 -0.0040127 0)
  (0.0957101 -0.00353327 0)
  (0.0957718 -0.00273423 0)
  (0.0939168 -0.00101379 0)
  (0.0882519 0.00248236 0)
  (0.0765539 0.00718327 0)
  (0.0574866 0.0140556 0)
  (0.0254208 0.0284869 0)
  (0.165253 0.193972 0)
  (-0.163727 0.0857606 0)
  (-0.174079 0.0475409 0)
  (-0.193012 0.0115745 0)
  (-0.183813 -0.030189 0)
  (-0.14781 -0.0737623 0)
  (-0.0934344 -0.107086 0)
  (-0.0337952 -0.120128 0)
  (0.030472 -0.0998426 0)
  (0.0743018 -0.0696361 0)
  (0.10735 -0.0401875 0)
  (0.126496 -0.0122492 0)
  (0.133034 0.0152612 0)
  (0.130557 0.0450766 0)
  (0.12726 0.0846697 0)
  (0.121664 0.0792839 0)
  (0.077862 0.0732506 0)
  (0.00239173 0.0506631 0)
  (-0.00916066 -0.000188235 0)
  (0.0280515 -0.0432184 0)
  (0.0437169 -0.0496038 0)
  (0.0608695 -0.04363 0)
  (0.0757917 -0.0322129 0)
  (0.0829976 -0.0155814 0)
  (0.0853144 -0.00525471 0)
  (0.085756 -0.00122415 0)
  (0.0862081 0.000321329 0)
  (0.0867923 0.00116558 0)
  (0.0872539 0.00178787 0)
  (0.087539 0.00257358 0)
  (0.08758 0.00416 0)
  (0.0865735 0.00772725 0)
  (0.0812575 0.0166369 0)
  (0.0683461 0.0259222 0)
  (0.0491124 0.0370499 0)
  (0.00289966 0.0578457 0)
  (0.313107 0.288404 0)
  (-0.16523 0.131187 0)
  (-0.131212 0.0738146 0)
  (-0.150017 0.0145805 0)
  (-0.140305 -0.0525074 0)
  (-0.104522 -0.119477 0)
  (-0.0566845 -0.163843 0)
  (-0.00753949 -0.172705 0)
  (0.0367062 -0.145353 0)
  (0.0716849 -0.105293 0)
  (0.0978083 -0.0641507 0)
  (0.113609 -0.0255172 0)
  (0.121041 0.0108186 0)
  (0.122572 0.0459518 0)
  (0.121628 0.0793625 0)
  (0.110493 0.0895197 0)
  (0.08766 0.124424 0)
  (0.0552593 0.00866388 0)
  (0.0748182 -0.0404304 0)
  (0.0861325 -0.0606947 0)
  (0.0919405 -0.0629708 0)
  (0.0970748 -0.0550746 0)
  (0.102734 -0.0449675 0)
  (0.1004 -0.0349074 0)
  (0.0878379 -0.0227556 0)
  (0.0782538 -0.0160426 0)
  (0.0736237 -0.012204 0)
  (0.0712344 -0.00970728 0)
  (0.0694851 -0.00797051 0)
  (0.068204 -0.00656322 0)
  (0.0682138 -0.00469932 0)
  (0.0716501 0.000716082 0)
  (0.0695418 0.0231153 0)
  (0.0557914 0.0400411 0)
  (0.0413678 0.0577121 0)
  (-0.019448 0.0879026 0)
  (0.446145 0.363578 0)
  (-0.184292 0.170192 0)
  (-0.0905054 0.0983447 0)
  (-0.106393 0.0188644 0)
  (-0.0892157 -0.0740919 0)
  (-0.0509034 -0.162691 0)
  (-0.0114564 -0.211943 0)
  (0.0242642 -0.214139 0)
  (0.0527453 -0.181155 0)
  (0.0763689 -0.132673 0)
  (0.0931344 -0.0818862 0)
  (0.102905 -0.0351047 0)
  (0.107934 0.00643559 0)
  (0.110565 0.0434081 0)
  (0.115808 0.0759802 0)
  (0.126701 0.0987165 0)
  (0.146409 0.132808 0)
  (0.183096 0.103996 0)
  (0.163008 0.0311187 0)
  (0.151866 -0.0207951 0)
  (0.141016 -0.0492163 0)
  (0.129604 -0.0568582 0)
  (0.119556 -0.05161 0)
  (0.11102 -0.0394077 0)
  (0.110447 -0.022906 0)
  (0.118398 -0.0135784 0)
  (0.1219 -0.00798151 0)
  (0.119072 -0.00418981 0)
  (0.112509 -0.00125217 0)
  (0.10366 0.00130358 0)
  (0.0925304 0.00389876 0)
  (0.0781216 0.00716403 0)
  (0.0557075 0.0121643 0)
  (0.0419527 0.0357593 0)
  (0.0357792 0.0538962 0)
  (0.0360255 0.0743578 0)
  (-0.0372065 0.113751 0)
  (0.561597 0.420844 0)
  (-0.212238 0.20066 0)
  (-0.0536374 0.113458 0)
  (-0.0587662 0.0186999 0)
  (-0.0229477 -0.101299 0)
  (0.0154175 -0.202134 0)
  (0.0418025 -0.244658 0)
  (0.0604371 -0.239881 0)
  (0.0737085 -0.201817 0)
  (0.0826848 -0.147058 0)
  (0.0871628 -0.0899686 0)
  (0.0882554 -0.0389325 0)
  (0.088449 0.00397183 0)
  (0.0903093 0.0393127 0)
  (0.0980699 0.067137 0)
  (0.113181 0.0841817 0)
  (0.136917 0.088199 0)
  (0.156077 0.0387056 0)
  (0.157105 -0.00430122 0)
  (0.150848 -0.0300893 0)
  (0.138976 -0.0429775 0)
  (0.12414 -0.0454535 0)
  (0.109523 -0.0399821 0)
  (0.0971206 -0.0285739 0)
  (0.0898374 -0.0116613 0)
  (0.0864305 -0.000354945 0)
  (0.0816923 0.00608403 0)
  (0.075336 0.00999963 0)
  (0.0681439 0.0129211 0)
  (0.0606468 0.0156336 0)
  (0.052803 0.018786 0)
  (0.0445273 0.0231628 0)
  (0.0346015 0.0296935 0)
  (0.0276487 0.0437155 0)
  (0.027003 0.0590868 0)
  (0.0443042 0.0798697 0)
  (0.0155788 0.115861 0)
  (0.0713308 0.0778312 0)
  (-0.0176667 -0.0139184 0)
  (-0.253259 -0.0367675 0)
  (0.652634 0.46552 0)
  (-0.24197 0.217401 0)
  (-0.0184145 0.105697 0)
  (0.0154314 -0.0152189 0)
  (0.0606218 -0.142868 0)
  (0.0883913 -0.227634 0)
  (0.100211 -0.260702 0)
  (0.100706 -0.248411 0)
  (0.0944894 -0.204893 0)
  (0.0848854 -0.145584 0)
  (0.0739543 -0.0854952 0)
  (0.0640252 -0.0341464 0)
  (0.0571938 0.00609964 0)
  (0.0571432 0.0355924 0)
  (0.0648929 0.0553494 0)
  (0.079389 0.0638682 0)
  (0.0999715 0.0580567 0)
  (0.115744 0.0286572 0)
  (0.119634 0.00236511 0)
  (0.114359 -0.0162134 0)
  (0.102948 -0.0268 0)
  (0.0887858 -0.0294499 0)
  (0.0743273 -0.0254777 0)
  (0.0613547 -0.0165695 0)
  (0.0513769 -0.00441189 0)
  (0.0436811 0.00524598 0)
  (0.0378997 0.0111585 0)
  (0.0324612 0.0148331 0)
  (0.0273658 0.0176425 0)
  (0.0228261 0.0203706 0)
  (0.0190853 0.0236441 0)
  (0.01669 0.0281569 0)
  (0.0155739 0.0343419 0)
  (0.0178385 0.0428597 0)
  (0.0247344 0.0535672 0)
  (0.0472198 0.0709809 0)
  (0.0493801 0.0911914 0)
  (0.0855568 0.0678035 0)
  (0.101181 0.0445572 0)
  (-0.102233 0.018114 0)
  (0.739179 0.504229 0)
  (-0.252598 0.194215 0)
  (0.0358478 0.024256 0)
  (0.116764 -0.0917185 0)
  (0.158617 -0.18606 0)
  (0.170997 -0.244836 0)
  (0.162055 -0.259087 0)
  (0.138127 -0.234963 0)
  (0.106885 -0.185909 0)
  (0.074885 -0.12474 0)
  (0.0467276 -0.0659901 0)
  (0.025834 -0.0194777 0)
  (0.0139336 0.0126497 0)
  (0.0143288 0.0324726 0)
  (0.0227429 0.0439791 0)
  (0.036594 0.0472054 0)
  (0.0533775 0.0407642 0)
  (0.0650323 0.0229123 0)
  (0.0674781 0.0048783 0)
  (0.0628635 -0.00827471 0)
  (0.0528742 -0.0152376 0)
  (0.0403027 -0.0162376 0)
  (0.027191 -0.0123494 0)
  (0.0152203 -0.00492305 0)
  (0.00501474 0.00433456 0)
  (-0.00105269 0.0115754 0)
  (-0.00502281 0.0160497 0)
  (-0.00797088 0.0188527 0)
  (-0.0100644 0.0209026 0)
  (-0.0110773 0.0226863 0)
  (-0.0104603 0.0245432 0)
  (-0.00732042 0.0268406 0)
  (-0.00109477 0.0298948 0)
  (0.00942327 0.0337436 0)
  (0.0227841 0.0392564 0)
  (0.0452899 0.0515149 0)
  (0.0631098 0.0624255 0)
  (0.0916153 0.0487474 0)
  (0.132649 0.0422814 0)
  (-0.0628928 0.0896668 0)
  (0.856453 0.485137 0)
  (0.0024838 0.161575 0)
  (0.162719 -0.0628238 0)
  (0.270576 -0.159498 0)
  (0.28788 -0.211849 0)
  (0.263076 -0.235156 0)
  (0.216953 -0.22691 0)
  (0.158104 -0.191602 0)
  (0.0963172 -0.140483 0)
  (0.0404039 -0.0825465 0)
  (-0.0018146 -0.0317111 0)
  (-0.0262267 0.000646619 0)
  (-0.0340698 0.0175944 0)
  (-0.0317166 0.0273992 0)
  (-0.0234372 0.0328842 0)
  (-0.0116699 0.0336698 0)
  (0.000855892 0.0286824 0)
  (0.00853225 0.0177336 0)
  (0.00923492 0.00660596 0)
  (0.00477519 -0.00134326 0)
  (-0.00361407 -0.00495509 0)
  (-0.0140942 -0.00431727 0)
  (-0.0247662 -0.000555457 0)
  (-0.0338628 0.00496469 0)
  (-0.0395219 0.0105716 0)
  (-0.0424916 0.0149684 0)
  (-0.0437552 0.0179173 0)
  (-0.0439156 0.019723 0)
  (-0.0430763 0.0206651 0)
  (-0.040976 0.0208176 0)
  (-0.0369731 0.020093 0)
  (-0.0301072 0.0183694 0)
  (-0.019815 0.0156695 0)
  (-0.00631801 0.0123295 0)
  (0.0105974 0.0097366 0)
  (0.029657 0.0138134 0)
  (0.0479858 0.0158488 0)
  (0.0647134 0.00480783 0)
  (0.132535 0.0499758 0)
  (-0.419614 0.185496 0)
  (1.02274 0.414766 0)
  (0.48415 0.264878 0)
  (0.496235 0.135532 0)
  (0.48702 -0.00965198 0)
  (0.420683 -0.106846 0)
  (0.32505 -0.148384 0)
  (0.223675 -0.145224 0)
  (0.124864 -0.113263 0)
  (0.0366982 -0.0692519 0)
  (-0.0348111 -0.0221772 0)
  (-0.0673411 0.0013395 0)
  (-0.0808483 0.0124607 0)
  (-0.0826583 0.0183165 0)
  (-0.0787877 0.0220285 0)
  (-0.0715565 0.0240946 0)
  (-0.0628508 0.0239083 0)
  (-0.0548593 0.0209369 0)
  (-0.0504518 0.0154092 0)
  (-0.0506697 0.00970751 0)
  (-0.0545734 0.00571818 0)
  (-0.060623 0.00422627 0)
  (-0.0672094 0.00495572 0)
  (-0.0728906 0.00712792 0)
  (-0.0768582 0.00996859 0)
  (-0.0786972 0.0127843 0)
  (-0.0787343 0.0149954 0)
  (-0.0775148 0.0163374 0)
  (-0.0755321 0.0168024 0)
  (-0.0731896 0.0164415 0)
  (-0.0709461 0.0152876 0)
  (-0.0695042 0.0134453 0)
  (-0.0701951 0.0114492 0)
  (-0.0754761 0.0109889 0)
  (-0.0878524 0.0150042 0)
  (-0.107516 0.0257207 0)
  (-0.133726 0.0429317 0)
  (-0.170367 0.0634182 0)
  (-0.21925 0.0820617 0)
  (-0.289388 0.0927906 0)
  (-0.531368 0.0849217 0)
  (0.0499598 -0.0817324 0)
  (0.163015 -0.115309 0)
  (0.163837 -0.121182 0)
  (0.0979469 -0.0970547 0)
  (0.0205542 -0.0575879 0)
  (-0.0534377 -0.0166823 0)
  (-0.100783 0.00484365 0)
  (-0.125654 0.0145442 0)
  (-0.133055 0.0166446 0)
  (-0.134015 0.017417 0)
  (-0.131232 0.0180807 0)
  (-0.126355 0.0189979 0)
  (-0.120306 0.0198218 0)
  (-0.114061 0.0199926 0)
  (-0.108824 0.0191411 0)
  (-0.105876 0.0173674 0)
  (-0.105592 0.0155991 0)
  (-0.10735 0.0146919 0)
  (-0.110074 0.0150857 0)
  (-0.112677 0.0167124 0)
  (-0.11436 0.0192073 0)
  (-0.114723 0.0221789 0)
  (-0.11368 0.0252982 0)
  (-0.111429 0.0283151 0)
  (-0.1083 0.0310656 0)
  (-0.104664 0.033472 0)
  (-0.10094 0.0354797 0)
  (-0.0976558 0.037027 0)
  (-0.0954567 0.0380746 0)
  (-0.0949543 0.0387178 0)
  (-0.0964209 0.0395518 0)
  (-0.099448 0.042352 0)
  (-0.102747 0.0500097 0)
  (-0.104551 0.0643001 0)
  (-0.103442 0.0815664 0)
  (-0.0946757 0.0870989 0)
  (-0.0751345 0.0468473 0)
  (-0.138519 -0.179823 0)
  (0.137676 0.0852214 0)
  (-0.0391884 0.0040015 0)
  (-0.0713857 -0.0320578 0)
  (-0.124973 -0.0292076 0)
  (-0.164707 -0.0186258 0)
  (-0.185444 -0.0129128 0)
  (-0.191191 -0.0127063 0)
  (-0.191032 -0.0141731 0)
  (-0.187694 -0.0168928 0)
  (-0.183356 -0.0187886 0)
  (-0.178359 -0.0196234 0)
  (-0.172838 -0.0197309 0)
  (-0.166923 -0.0197675 0)
  (-0.160957 -0.0204314 0)
  (-0.155499 -0.0222754 0)
  (-0.151156 -0.0255289 0)
  (-0.148162 -0.0299038 0)
  (-0.146276 -0.0348998 0)
  (-0.144977 -0.0400211 0)
  (-0.143698 -0.0449499 0)
  (-0.142011 -0.0495928 0)
  (-0.13969 -0.0540292 0)
  (-0.136704 -0.0584439 0)
  (-0.133176 -0.0630053 0)
  (-0.12931 -0.0676963 0)
  (-0.125302 -0.0721676 0)
  (-0.121267 -0.0756956 0)
  (-0.117191 -0.077244 0)
  (-0.112912 -0.0756444 0)
  (-0.108098 -0.0698769 0)
  (-0.102087 -0.0592721 0)
  (-0.0935113 -0.0435195 0)
  (-0.0800933 -0.0229292 0)
  (-0.059547 0.000131302 0)
  (-0.0329209 0.0185902 0)
  (0.0076887 0.0101086 0)
  (0.103439 -0.0698585 0)
  (-0.0882787 -0.12505 0)
  (-0.0633406 -0.29453 0)
  (-0.374401 -0.100483 0)
  (-0.312494 0.0729079 0)
  (-0.305643 0.0670181 0)
  (-0.287685 0.0729744 0)
  (-0.285661 0.0813724 0)
  (-0.281207 0.0897438 0)
  (-0.272686 0.0965929 0)
  (-0.262437 0.101355 0)
  (-0.252716 0.105034 0)
  (-0.244415 0.107909 0)
  (-0.237467 0.110359 0)
  (-0.231171 0.112761 0)
  (-0.224853 0.115593 0)
  (-0.218071 0.11931 0)
  (-0.210724 0.124267 0)
  (-0.203034 0.13066 0)
  (-0.195404 0.138491 0)
  (-0.188172 0.147532 0)
  (-0.181473 0.157368 0)
  (-0.175248 0.167519 0)
  (-0.169311 0.177617 0)
  (-0.163433 0.187517 0)
  (-0.1574 0.197287 0)
  (-0.151059 0.207095 0)
  (-0.144348 0.217049 0)
  (-0.137279 0.227039 0)
  (-0.129886 0.236642 0)
  (-0.12216 0.245122 0)
  (-0.113994 0.251521 0)
  (-0.105138 0.254875 0)
  (-0.0951012 0.254508 0)
  (-0.082955 0.250315 0)
  (-0.0673329 0.243011 0)
  (-0.0473778 0.234565 0)
  (-0.0242467 0.228531 0)
  (0.00537149 0.227428 0)
  (0.0337187 0.234234 0)
  (0.114793 0.270094 0)
  (-0.257411 0.291061 0)
)
;

boundaryField
{
  floor
  {
    type noSlip;
  }
  ceiling
  {
    type noSlip;
  }
  sWall
  {
    type noSlip;
  }
  nWall
  {
    type noSlip;
  }
  sideWalls
  {
    type empty;
  }
  glass1
  {
    type noSlip;
  }
  glass2
  {
    type noSlip;
  }
  sun
  {
    type noSlip;
  }
  heatsource1
  {
    type noSlip;
  }
  heatsource2
  {
    type noSlip;
  }
  Table_master
  {
    type noSlip;
  }
  Table_slave
  {
    type noSlip;
  }
  inlet
  {
    type fixedValue;
    value uniform (0.277164 -0.114805 0);
  }
  outlet
  {
    type zeroGradient;
  }
} 	// ************************************************************************* //

