/*--------------------------------*- C++ -*----------------------------------*\
  =========                 |
  \\      /  F ield         | OpenFOAM: The Open Source CFD Toolbox
   \\    /   O peration     | Website:  https://openfoam.org
    \\  /    A nd           | Version:  6
     \\/     M anipulation  |
\*---------------------------------------------------------------------------*/
FoamFile
{
    version     2.0;
    format      ascii;
    class       volScalarField;
    location    "300";
    object      epsilon;
}
// * * * * * * * * * * * * * * * * * * * * * * * * * * * * * * * * * * * * * //

dimensions      [0 2 -3 0 0 0 0];

internalField   nonuniform List<scalar> 
459
(
0.000879103
0.00120352
0.00134524
0.00159652
0.00189
0.00221836
0.00248249
0.00261563
0.00257191
0.00215783
0.00172941
0.00134013
0.000968547
0.000703536
0.000474947
9.46558e-05
0.000150935
0.000243524
0.000322933
0.000343688
0.000324632
0.000270041
0.000217859
0.000176919
0.000145704
0.000121734
0.000103095
8.83317e-05
7.64447e-05
6.65832e-05
5.79616e-05
4.98151e-05
4.20289e-05
3.1159e-05
0.00191756
0.00244851
0.00111124
0.00114148
0.00131238
0.00157163
0.00179986
0.00190065
0.0018471
0.00158072
0.00126827
0.000994706
0.00077237
0.000617604
0.000478683
0.000730545
0.000426235
8.65299e-05
0.000118236
0.00020826
0.000247232
0.000254669
0.000249798
0.00026343
0.000216038
0.000170175
0.000133953
0.000106419
8.56592e-05
6.98656e-05
5.76883e-05
4.82879e-05
4.23392e-05
3.96413e-05
5.3395e-05
4.43632e-05
0.00321798
0.0051967
0.0013194
0.00118026
0.00142107
0.00176707
0.00199681
0.00205664
0.00196452
0.00170979
0.00140032
0.0011037
0.000860586
0.000671011
0.000521546
0.000504578
0.00063424
0.000127105
0.000208651
0.0002537
0.000276037
0.000276545
0.000284535
0.000649342
0.000430162
0.000292933
0.000206439
0.000150539
0.000113338
8.78897e-05
7.05302e-05
5.95448e-05
4.48845e-05
3.79758e-05
6.97939e-05
5.42676e-05
0.0049033
0.0101206
0.0019902
0.00140052
0.00175058
0.00218847
0.00234493
0.00233228
0.00218948
0.00191938
0.00156417
0.00121195
0.000927205
0.000715381
0.00056064
0.000487865
0.000513835
0.000844825
0.000588039
0.000456712
0.000398547
0.000368197
0.000342293
0.000343856
0.000934641
0.000696321
0.000541433
0.000433967
0.000351938
0.000284659
0.000226854
0.000175709
0.000128623
6.9259e-05
4.38183e-05
9.3218e-05
6.30223e-05
0.00712854
0.0174933
0.00372588
0.00202325
0.00261144
0.0029491
0.00290828
0.00278779
0.00257614
0.00222306
0.00175986
0.00130558
0.000950405
0.000707668
0.000554072
0.000480161
0.00049937
0.000602025
0.000566272
0.000527553
0.00049896
0.000463935
0.000416742
0.000369102
0.000364013
0.000336612
0.00030701
0.000276206
0.000242091
0.000205565
0.000168484
0.000132948
9.99523e-05
6.63901e-05
4.52475e-05
7.45518e-05
5.91142e-05
8.2155e-05
0.00013912
0.00019715
0.0100664
0.0258015
0.00802118
0.00398207
0.00442031
0.00410391
0.00375069
0.00346321
0.00312663
0.00262809
0.00199347
0.00138843
0.000940226
0.000663813
0.000525694
0.000487011
0.000530823
0.000603717
0.000637932
0.000639336
0.000606989
0.00054585
0.000468382
0.000391019
0.000333985
0.000296203
0.000266664
0.000236877
0.000204385
0.000170459
0.000137229
0.000107217
8.17639e-05
6.04082e-05
4.86078e-05
6.02316e-05
5.99023e-05
6.7429e-05
0.000264927
0.000226996
0.0128837
0.0306798
0.0156508
0.00971326
0.00715534
0.00569421
0.00486632
0.00434961
0.00383725
0.00312498
0.00223625
0.00142922
0.000886258
0.000606034
0.000513993
0.000524409
0.000596561
0.000677573
0.000717807
0.000699195
0.000635505
0.000546
0.000449458
0.000362499
0.000298551
0.000259617
0.000232163
0.00020607
0.000179256
0.000152531
0.000126907
0.000105099
8.71843e-05
7.3091e-05
6.93178e-05
7.88819e-05
9.68281e-05
0.000149132
0.000345917
0.000323128
0.0132543
0.0288773
0.0181278
0.0124339
0.00904813
0.00710925
0.00605999
0.00539948
0.00468139
0.0036466
0.00235841
0.00130132
0.000740586
0.000566176
0.000535436
0.00057154
0.000640319
0.000695742
0.000697381
0.000643179
0.000552723
0.000453096
0.000362825
0.000292405
0.000245498
0.000218357
0.000200739
0.000187215
0.000177104
0.00017109
0.000169724
0.000173316
0.000182029
0.000199322
0.000237684
0.000359162
0.000667859
0.00137705
0.00454305
0.00123678
0.0120774
0.0188249
0.0148642
0.0112816
0.00894548
0.00777605
0.00717959
0.00655736
0.00547645
0.00382186
0.0017986
0.000939525
0.000634052
0.000544355
0.000536081
0.000560271
0.000587742
0.000588949
0.000548786
0.000477292
0.000394475
0.000316443
0.000253716
0.000210216
0.000184011
0.000169827
0.00016321
0.000163167
0.000171208
0.000190075
0.000223506
0.000276985
0.000359191
0.000483034
0.000662543
0.000906568
0.00119499
0.00146056
0.00165521
0.000985675
0.00242647
0.00496273
0.00730205
0.00805225
0.00766411
0.00568637
0.00337035
0.00183373
0.00100523
0.000660233
0.000526822
0.000480662
0.00046696
0.000460114
0.000443645
0.00040691
0.00035107
0.000287725
0.000229382
0.000183046
0.000150404
0.000129772
0.000118281
0.000113575
0.000114807
0.000122418
0.000137554
0.000162007
0.000198649
0.000252073
0.000329019
0.000437383
0.000580761
0.000746019
0.000891006
0.00095393
0.000874215
0.000511569
0.00479384
0.0116912
0.00828979
0.00531548
0.00345217
0.00218816
0.00137167
0.000875349
0.000615546
0.00049128
0.000429545
0.000393621
0.000365073
0.000334437
0.00029706
0.000252839
0.000206443
0.000164384
0.000131148
0.000107882
9.34805e-05
8.60884e-05
8.41317e-05
8.67234e-05
9.3675e-05
0.000105372
0.000122746
0.000147417
0.000181974
0.00023035
0.000298001
0.000390781
0.000510151
0.000647018
0.000752056
0.000864933
0.000718541
0.000532158
0.00281275
0.0033736
0.00383666
0.00435427
0.00285299
0.00216727
0.00172819
0.00135424
0.00105861
0.000859418
0.000734065
0.000652013
0.000591999
0.000539964
0.000486633
0.000427094
0.000361232
0.000293739
0.000232
0.00018204
0.000146026
0.000122687
0.000109215
0.000102847
0.0001016
0.000104371
0.000110766
0.000120896
0.000135268
0.000154763
0.000180664
0.000214774
0.000259644
0.000318756
0.000395983
0.000508909
0.000553658
0.000513537
0.000415944
0.000331878
)
;

boundaryField
{
    floor
    {
        Cmu             0.09;
        kappa           0.41;
        E               9.8;
        type            epsilonWallFunction;
        value           nonuniform List<scalar> 
29
(
0.000474947
9.46558e-05
0.000150935
0.000243524
0.000322933
0.000343688
0.000324632
0.000270041
0.000217859
0.000176919
0.000145704
0.000121734
0.000103095
8.83317e-05
7.64447e-05
6.65832e-05
5.79616e-05
4.98151e-05
4.20289e-05
3.1159e-05
3.1159e-05
4.43632e-05
5.42676e-05
6.30223e-05
0.000474947
9.46558e-05
8.65299e-05
0.000127105
0.000844825
)
;
    }
    ceiling
    {
        Cmu             0.09;
        kappa           0.41;
        E               9.8;
        type            epsilonWallFunction;
        value           nonuniform List<scalar> 
43
(
0.00281275
0.0033736
0.00383666
0.00435427
0.00285299
0.00216727
0.00172819
0.00135424
0.00105861
0.000859418
0.000734065
0.000652013
0.000591999
0.000539964
0.000486633
0.000427094
0.000361232
0.000293739
0.000232
0.00018204
0.000146026
0.000122687
0.000109215
0.000102847
0.0001016
0.000104371
0.000110766
0.000120896
0.000135268
0.000154763
0.000180664
0.000214774
0.000259644
0.000318756
0.000395983
0.000508909
0.000553658
0.000513537
0.000415944
0.000331878
0.0120774
0.0188249
0.00479384
)
;
    }
    sWall
    {
        Cmu             0.09;
        kappa           0.41;
        E               9.8;
        type            epsilonWallFunction;
        value           uniform 0.00281275;
    }
    nWall
    {
        Cmu             0.09;
        kappa           0.41;
        E               9.8;
        type            epsilonWallFunction;
        value           nonuniform List<scalar> 6(0.00019715 0.000226996 0.000323128 0.000511569 0.000532158 0.000331878);
    }
    sideWalls
    {
        type            empty;
    }
    glass1
    {
        Cmu             0.09;
        kappa           0.41;
        E               9.8;
        type            epsilonWallFunction;
        value           nonuniform List<scalar> 9(0.000879103 0.00191756 0.00321798 0.0049033 0.00712854 0.0100664 0.0128837 0.0132543 0.0120774);
    }
    glass2
    {
        Cmu             0.09;
        kappa           0.41;
        E               9.8;
        type            epsilonWallFunction;
        value           nonuniform List<scalar> 2(0.00123678 0.000985675);
    }
    sun
    {
        Cmu             0.09;
        kappa           0.41;
        E               9.8;
        type            epsilonWallFunction;
        value           nonuniform List<scalar> 
14
(
0.000879103
0.00120352
0.00134524
0.00159652
0.00189
0.00221836
0.00248249
0.00261563
0.00257191
0.00215783
0.00172941
0.00134013
0.000968547
0.000703536
)
;
    }
    heatsource1
    {
        Cmu             0.09;
        kappa           0.41;
        E               9.8;
        type            epsilonWallFunction;
        value           nonuniform List<scalar> 3(8.2155e-05 0.00013912 0.00019715);
    }
    heatsource2
    {
        Cmu             0.09;
        kappa           0.41;
        E               9.8;
        type            epsilonWallFunction;
        value           nonuniform List<scalar> 4(0.000730545 0.000426235 0.000426235 0.00063424);
    }
    Table_master
    {
        Cmu             0.09;
        kappa           0.41;
        E               9.8;
        type            epsilonWallFunction;
        value           nonuniform List<scalar> 9(0.000649342 0.000430162 0.000292933 0.000206439 0.000150539 0.000113338 8.78897e-05 7.05302e-05 5.95448e-05);
    }
    Table_slave
    {
        Cmu             0.09;
        kappa           0.41;
        E               9.8;
        type            epsilonWallFunction;
        value           nonuniform List<scalar> 9(0.000934641 0.000696321 0.000541433 0.000433967 0.000351938 0.000284659 0.000226854 0.000175709 0.000128623);
    }
    inlet
    {
        type            turbulentMixingLengthDissipationRateInlet;
        mixingLength    0.01;
        phi             phi;
        k               k;
        value           uniform 0.000101881;
    }
    outlet
    {
        type            zeroGradient;
    }
}


// ************************************************************************* //
