/*--------------------------------*- C++ -*----------------------------------*\
  =========                 |
  \\      /  F ield         | OpenFOAM: The Open Source CFD Toolbox
   \\    /   O peration     | Website:  https://openfoam.org
    \\  /    A nd           | Version:  6
     \\/     M anipulation  |
\*---------------------------------------------------------------------------*/
FoamFile
{
    version     2.0;
    format      ascii;
    class       volVectorField;
    location    "300";
    object      U;
}
// * * * * * * * * * * * * * * * * * * * * * * * * * * * * * * * * * * * * * //

dimensions      [0 1 -1 0 0 0 0];

internalField   nonuniform List<vector> 
459
(
(0.0129721 0.0952822 0)
(-0.191081 0.0290889 0)
(-0.223916 0.0118111 0)
(-0.248196 -0.00167776 0)
(-0.250061 -0.0159944 0)
(-0.22721 -0.0315227 0)
(-0.182334 -0.0468385 0)
(-0.122283 -0.0585473 0)
(-0.0583418 -0.0636997 0)
(0.0172753 -0.0519977 0)
(0.0619518 -0.0358615 0)
(0.0920432 -0.020763 0)
(0.105039 -0.00578196 0)
(0.0950535 0.0143325 0)
(0.068947 0.0545662 0)
(-0.030147 0.0180691 0)
(-0.0563944 -0.0147269 0)
(-0.029395 -0.0331308 0)
(0.00120033 -0.0364266 0)
(0.0341446 -0.029059 0)
(0.0597547 -0.0208379 0)
(0.0777953 -0.012127 0)
(0.0884187 -0.00737383 0)
(0.0935564 -0.00553471 0)
(0.0961805 -0.00476285 0)
(0.0980019 -0.00424856 0)
(0.0993881 -0.00380185 0)
(0.100221 -0.00330394 0)
(0.100105 -0.00247915 0)
(0.098118 -0.000774921 0)
(0.092424 0.00258285 0)
(0.0808632 0.00698499 0)
(0.0631765 0.0132174 0)
(0.0141796 0.0313694 0)
(0.185879 0.197544 0)
(-0.168786 0.0851511 0)
(-0.177634 0.0532848 0)
(-0.203685 0.0243314 0)
(-0.207131 -0.00893931 0)
(-0.186598 -0.0452017 0)
(-0.146439 -0.0774838 0)
(-0.094655 -0.0978904 0)
(-0.0410827 -0.102552 0)
(0.0127394 -0.0851802 0)
(0.0515325 -0.0584064 0)
(0.0790065 -0.0307752 0)
(0.0948477 -0.00221277 0)
(0.1018 0.0279941 0)
(0.102603 0.064826 0)
(0.100902 0.0626947 0)
(0.0661641 0.0610452 0)
(0.0356817 0.0552191 0)
(0.00279191 -0.0155331 0)
(0.0309367 -0.0484702 0)
(0.0482364 -0.0506015 0)
(0.0655185 -0.0427344 0)
(0.0804207 -0.0310363 0)
(0.0880239 -0.0143515 0)
(0.0900808 -0.00435104 0)
(0.0901863 -0.000571301 0)
(0.0904464 0.000791366 0)
(0.0909347 0.00149463 0)
(0.0913235 0.00200992 0)
(0.0915338 0.00271765 0)
(0.0914622 0.00421384 0)
(0.090349 0.00770028 0)
(0.0849952 0.0164995 0)
(0.0719429 0.0256596 0)
(0.056116 0.0362026 0)
(-0.02362 0.0647832 0)
(0.344009 0.294352 0)
(-0.174445 0.131776 0)
(-0.13367 0.0841476 0)
(-0.159421 0.0358221 0)
(-0.161958 -0.0188215 0)
(-0.139855 -0.0761402 0)
(-0.10165 -0.123596 0)
(-0.0574442 -0.148793 0)
(-0.0145856 -0.148866 0)
(0.024292 -0.12374 0)
(0.0540486 -0.0885863 0)
(0.0764004 -0.0511131 0)
(0.0906524 -0.01401 0)
(0.09885 0.0225209 0)
(0.102217 0.0564666 0)
(0.0954106 0.0713171 0)
(0.0776192 0.107522 0)
(0.112204 0.00396642 0)
(0.0860546 -0.0408445 0)
(0.0867908 -0.0599136 0)
(0.0912474 -0.0614355 0)
(0.0958315 -0.0535326 0)
(0.101274 -0.0439188 0)
(0.101219 -0.0329496 0)
(0.0897532 -0.0212914 0)
(0.0807532 -0.014943 0)
(0.0765917 -0.011341 0)
(0.0746106 -0.00899615 0)
(0.0732005 -0.00735389 0)
(0.072202 -0.00600052 0)
(0.0724941 -0.0041767 0)
(0.0761056 0.000962712 0)
(0.0741108 0.0232702 0)
(0.0593173 0.0406039 0)
(0.0522628 0.0573517 0)
(-0.0614774 0.0976842 0)
(0.487276 0.371652 0)
(-0.19868 0.171955 0)
(-0.0896262 0.112036 0)
(-0.11296 0.0475194 0)
(-0.108821 -0.0280023 0)
(-0.0804804 -0.106721 0)
(-0.0443331 -0.165496 0)
(-0.00998387 -0.190917 0)
(0.0205283 -0.184465 0)
(0.0446051 -0.154344 0)
(0.0643926 -0.112168 0)
(0.0789781 -0.0671124 0)
(0.0886515 -0.0240398 0)
(0.0956032 0.015669 0)
(0.102937 0.0507046 0)
(0.114469 0.0768621 0)
(0.134316 0.111917 0)
(0.169955 0.0984264 0)
(0.156866 0.0218043 0)
(0.140675 -0.0263238 0)
(0.129075 -0.0495292 0)
(0.118614 -0.0550913 0)
(0.109026 -0.0498883 0)
(0.100359 -0.0386738 0)
(0.099067 -0.0222091 0)
(0.107271 -0.0135177 0)
(0.112102 -0.00861585 0)
(0.111521 -0.0053806 0)
(0.107824 -0.00280039 0)
(0.102061 -0.000411841 0)
(0.0938616 0.00218608 0)
(0.0819712 0.00557842 0)
(0.0618403 0.0107956 0)
(0.048245 0.0360374 0)
(0.038402 0.0567787 0)
(0.0504679 0.076866 0)
(-0.100208 0.123838 0)
(0.611921 0.430625 0)
(-0.232584 0.203335 0)
(-0.0482297 0.128694 0)
(-0.0635323 0.0525349 0)
(-0.0406579 -0.0438896 0)
(-0.00500402 -0.139054 0)
(0.0252529 -0.199359 0)
(0.0455547 -0.217632 0)
(0.0599208 -0.205527 0)
(0.069769 -0.171091 0)
(0.0763642 -0.124363 0)
(0.0801201 -0.0750414 0)
(0.0822856 -0.0296088 0)
(0.0852396 0.00967288 0)
(0.091624 0.0415894 0)
(0.10421 0.0624779 0)
(0.125092 0.0692419 0)
(0.141297 0.0272521 0)
(0.140989 -0.0121937 0)
(0.13345 -0.0330481 0)
(0.121502 -0.0425968 0)
(0.107609 -0.0439586 0)
(0.0941532 -0.0387507 0)
(0.0828593 -0.0281747 0)
(0.0768464 -0.012068 0)
(0.0756123 -0.00216073 0)
(0.0737829 0.00281446 0)
(0.0707735 0.00572061 0)
(0.0672925 0.00817767 0)
(0.0635197 0.010971 0)
(0.0590249 0.0147126 0)
(0.0532752 0.0201008 0)
(0.0448496 0.0281388 0)
(0.0372948 0.0453863 0)
(0.0300609 0.0661294 0)
(0.0581334 0.0907103 0)
(-0.0220992 0.132897 0)
(0.0517237 0.0440124 0)
(-0.0656978 -0.0373005 0)
(-0.283744 -0.0600384 0)
(0.707767 0.477459 0)
(-0.268124 0.221823 0)
(-0.0133904 0.122858 0)
(-0.00440306 0.0377851 0)
(0.0499604 -0.0829978 0)
(0.0824754 -0.169263 0)
(0.100431 -0.217186 0)
(0.105512 -0.228 0)
(0.101929 -0.209854 0)
(0.0935598 -0.171589 0)
(0.0832642 -0.122223 0)
(0.0730446 -0.0716492 0)
(0.0649084 -0.0271652 0)
(0.0605976 0.0083554 0)
(0.0631618 0.0336048 0)
(0.0728601 0.046549 0)
(0.0889766 0.0446514 0)
(0.10119 0.02068 0)
(0.10314 -0.00190139 0)
(0.0967131 -0.0179394 0)
(0.0852241 -0.0269355 0)
(0.0718984 -0.0291404 0)
(0.0588231 -0.0256529 0)
(0.0475982 -0.0177957 0)
(0.0399539 -0.00719351 0)
(0.0357296 0.000274517 0)
(0.0332072 0.00429918 0)
(0.0315752 0.00666497 0)
(0.0305673 0.00888853 0)
(0.0301383 0.0118864 0)
(0.0301264 0.0163693 0)
(0.0304142 0.0230058 0)
(0.0305496 0.0323531 0)
(0.0321993 0.0462979 0)
(0.0333781 0.0646571 0)
(0.0647852 0.090267 0)
(0.0450702 0.116737 0)
(0.0954699 0.0764305 0)
(0.120799 0.0473068 0)
(-0.137582 -0.00813888 0)
(0.787863 0.518943 0)
(-0.283038 0.200497 0)
(0.0382839 0.0458288 0)
(0.109341 -0.045038 0)
(0.159055 -0.131617 0)
(0.180876 -0.193694 0)
(0.181451 -0.22249 0)
(0.165081 -0.219512 0)
(0.137788 -0.193265 0)
(0.106463 -0.151969 0)
(0.0760005 -0.102482 0)
(0.0500037 -0.0541531 0)
(0.0310024 -0.014504 0)
(0.0205166 0.0131659 0)
(0.0217767 0.0291705 0)
(0.0302386 0.035517 0)
(0.0426498 0.0319821 0)
(0.0512279 0.0174485 0)
(0.0519718 0.00190323 0)
(0.0468881 -0.0097276 0)
(0.0371682 -0.0159599 0)
(0.0256109 -0.017112 0)
(0.0141336 -0.0142331 0)
(0.00431731 -0.00853817 0)
(-0.00243051 -0.00158291 0)
(-0.00589679 0.00317934 0)
(-0.00659474 0.00547915 0)
(-0.00597241 0.00668236 0)
(-0.00419855 0.00794967 0)
(-0.00122251 0.010088 0)
(0.00320209 0.0138428 0)
(0.00911462 0.0196785 0)
(0.0164527 0.0279325 0)
(0.0262343 0.0388861 0)
(0.0361997 0.0524697 0)
(0.0648901 0.0728491 0)
(0.0798769 0.0854278 0)
(0.119157 0.0569101 0)
(0.164264 0.0443517 0)
(-0.0419893 0.0966114 0)
(0.904394 0.504796 0)
(-0.0121825 0.171319 0)
(0.156199 -0.051053 0)
(0.276523 -0.134849 0)
(0.306101 -0.176965 0)
(0.293983 -0.19996 0)
(0.259546 -0.202099 0)
(0.209394 -0.183301 0)
(0.15078 -0.150242 0)
(0.0928862 -0.109038 0)
(0.0415462 -0.0635387 0)
(0.00266124 -0.0224781 0)
(-0.0212206 0.00472586 0)
(-0.027593 0.0176992 0)
(-0.0251441 0.0244062 0)
(-0.017793 0.0264027 0)
(-0.00875444 0.0230918 0)
(-0.00312547 0.0141103 0)
(-0.00339718 0.0042809 0)
(-0.00780306 -0.00295352 0)
(-0.0157183 -0.00644659 0)
(-0.0248867 -0.00671155 0)
(-0.0335813 -0.00464304 0)
(-0.0405677 -0.00130161 0)
(-0.0448813 0.00199291 0)
(-0.0459699 0.00382891 0)
(-0.045257 0.00430576 0)
(-0.0432915 0.00411874 0)
(-0.0401445 0.00386621 0)
(-0.0356827 0.00403078 0)
(-0.0295946 0.00501426 0)
(-0.0215326 0.00709521 0)
(-0.011309 0.0104307 0)
(0.00244495 0.0151277 0)
(0.0162973 0.0203784 0)
(0.0396685 0.0295439 0)
(0.0615605 0.0261177 0)
(0.0848386 -0.00500077 0)
(0.150473 0.0405772 0)
(-0.450015 0.215515 0)
(1.06943 0.429583 0)
(0.507526 0.274584 0)
(0.527512 0.150401 0)
(0.529619 0.0211751 0)
(0.472578 -0.0671022 0)
(0.384945 -0.112475 0)
(0.29078 -0.123086 0)
(0.196375 -0.107765 0)
(0.106253 -0.0789249 0)
(0.0275541 -0.0437083 0)
(-0.0372962 -0.00785621 0)
(-0.0649369 0.00780358 0)
(-0.0753724 0.014398 0)
(-0.0764516 0.017597 0)
(-0.0730004 0.0193332 0)
(-0.0672461 0.0193537 0)
(-0.0614498 0.0170055 0)
(-0.0583232 0.01228 0)
(-0.0590441 0.00709606 0)
(-0.062822 0.0031274 0)
(-0.0681338 0.00103301 0)
(-0.0740497 0.00060506 0)
(-0.0794037 0.00127877 0)
(-0.0832982 0.00236426 0)
(-0.0854222 0.00318858 0)
(-0.0863874 0.00330706 0)
(-0.0870071 0.00284654 0)
(-0.0879117 0.00215329 0)
(-0.0896227 0.00170015 0)
(-0.0926051 0.0021279 0)
(-0.09731 0.0042195 0)
(-0.104398 0.00882023 0)
(-0.115125 0.016835 0)
(-0.131581 0.0291119 0)
(-0.156913 0.0457747 0)
(-0.192836 0.0652161 0)
(-0.243789 0.0822666 0)
(-0.30444 0.0931053 0)
(-0.376525 0.0976756 0)
(-0.648101 0.0963714 0)
(-0.0540333 -0.0631603 0)
(0.125419 -0.100717 0)
(0.157536 -0.107442 0)
(0.105577 -0.0847628 0)
(0.0453319 -0.0529733 0)
(-0.0237779 -0.015755 0)
(-0.0773354 0.0056235 0)
(-0.109939 0.0155303 0)
(-0.123689 0.0180231 0)
(-0.127063 0.0168284 0)
(-0.126453 0.0158955 0)
(-0.123562 0.0155511 0)
(-0.119412 0.0156569 0)
(-0.114823 0.0155864 0)
(-0.11087 0.0147417 0)
(-0.108741 0.0129645 0)
(-0.108895 0.0109033 0)
(-0.110879 0.00928679 0)
(-0.113795 0.00853448 0)
(-0.116819 0.00856885 0)
(-0.119369 0.00900917 0)
(-0.121226 0.00946608 0)
(-0.122495 0.00964862 0)
(-0.123508 0.00944171 0)
(-0.12457 0.00900517 0)
(-0.125839 0.00869063 0)
(-0.127364 0.00899317 0)
(-0.129138 0.0105119 0)
(-0.131127 0.0139394 0)
(-0.133257 0.0201024 0)
(-0.135474 0.0300102 0)
(-0.137923 0.0446273 0)
(-0.141092 0.0637838 0)
(-0.144984 0.0839758 0)
(-0.146409 0.0944885 0)
(-0.128353 0.0730336 0)
(-0.077604 -0.0218679 0)
(-0.278842 -0.212944 0)
(0.0925418 0.149013 0)
(-0.0441515 0.0369103 0)
(-0.0845402 -0.00473049 0)
(-0.131876 -0.00148878 0)
(-0.166066 0.00973199 0)
(-0.18296 0.0165949 0)
(-0.187265 0.0169433 0)
(-0.186449 0.0152086 0)
(-0.181952 0.012602 0)
(-0.176383 0.00932238 0)
(-0.170987 0.0067981 0)
(-0.165793 0.00523248 0)
(-0.160708 0.00432307 0)
(-0.155814 0.00349553 0)
(-0.151488 0.00218594 0)
(-0.148248 7.744e-05 0)
(-0.146365 -0.00270045 0)
(-0.145699 -0.00576312 0)
(-0.145808 -0.0086394 0)
(-0.146153 -0.0109334 0)
(-0.146272 -0.0123925 0)
(-0.145888 -0.0129133 0)
(-0.144925 -0.0125533 0)
(-0.143455 -0.0114603 0)
(-0.141595 -0.00974643 0)
(-0.139435 -0.00743302 0)
(-0.136983 -0.00442133 0)
(-0.134088 -0.000475057 0)
(-0.130315 0.00480043 0)
(-0.12476 0.0120266 0)
(-0.116052 0.0221754 0)
(-0.102837 0.0364512 0)
(-0.0846182 0.0551074 0)
(-0.0620062 0.0744368 0)
(-0.0377127 0.0867617 0)
(0.00327603 0.0709766 0)
(0.149584 -0.00390856 0)
(-0.207101 -0.117166 0)
(-0.112061 -0.342601 0)
(-0.440311 -0.132762 0)
(-0.346825 0.0422261 0)
(-0.326711 -0.00637103 0)
(-0.294108 -0.0104884 0)
(-0.28773 -0.00364835 0)
(-0.280735 0.00359806 0)
(-0.269582 0.00868741 0)
(-0.256341 0.0111548 0)
(-0.243388 0.0128066 0)
(-0.23182 0.0144073 0)
(-0.222078 0.0162391 0)
(-0.213748 0.0186672 0)
(-0.206077 0.0217299 0)
(-0.198442 0.0253684 0)
(-0.190514 0.0295012 0)
(-0.182328 0.0340353 0)
(-0.174171 0.0388486 0)
(-0.166368 0.0437535 0)
(-0.159133 0.0484111 0)
(-0.152545 0.0523246 0)
(-0.1466 0.0549505 0)
(-0.141255 0.055885 0)
(-0.136457 0.055 0)
(-0.132168 0.0524248 0)
(-0.128364 0.048444 0)
(-0.125005 0.0434365 0)
(-0.121965 0.0378777 0)
(-0.118941 0.0323468 0)
(-0.115352 0.0275016 0)
(-0.110146 0.0240266 0)
(-0.101509 0.0226215 0)
(-0.0868566 0.0240999 0)
(-0.0639905 0.0294711 0)
(-0.0332558 0.0394431 0)
(0.0158833 0.0542482 0)
(0.0617158 0.0568002 0)
(0.105515 0.0408017 0)
(0.168781 0.0102581 0)
(-0.225116 -0.0418738 0)
)
;

boundaryField
{
    floor
    {
        type            noSlip;
    }
    ceiling
    {
        type            noSlip;
    }
    sWall
    {
        type            noSlip;
    }
    nWall
    {
        type            noSlip;
    }
    sideWalls
    {
        type            empty;
    }
    glass1
    {
        type            noSlip;
    }
    glass2
    {
        type            noSlip;
    }
    sun
    {
        type            noSlip;
    }
    heatsource1
    {
        type            noSlip;
    }
    heatsource2
    {
        type            noSlip;
    }
    Table_master
    {
        type            noSlip;
    }
    Table_slave
    {
        type            noSlip;
    }
    inlet
    {
        type            fixedValue;
        value           uniform (0.277164 -0.114805 0);
    }
    outlet
    {
        type            zeroGradient;
    }
}


// ************************************************************************* //
