// -*- C++ -*-
// File generated by PyFoam - sorry for the ugliness

FoamFile
{
 version 2.0;
 format ascii;
 class volVectorField;
 location "1100";
 object U;
}

dimensions [ 0 1 -1 0 0 0 0 ];

internalField nonuniform List<vector> 459
(
  (0.0229117 0.25716 0)
  (0.189091 -0.226382 0)
  (0.296669 -0.150383 0)
  (0.400448 -0.0903766 0)
  (0.452725 -0.0542749 0)
  (0.459247 -0.0314261 0)
  (0.438126 -0.0134425 0)
  (0.400231 0.00198118 0)
  (0.349105 0.0156417 0)
  (0.28628 0.0286161 0)
  (0.212626 0.0430662 0)
  (0.129687 0.0621304 0)
  (0.00668496 0.0536667 0)
  (-0.0400414 -0.0053031 0)
  (-0.0469183 -0.0176469 0)
  (0.0210401 0.00668242 0)
  (-0.0177024 -0.00726527 0)
  (-0.00598413 -0.0117132 0)
  (0.0103718 -0.0126976 0)
  (0.0209129 -0.011644 0)
  (0.029235 -0.00710525 0)
  (0.0320303 -0.00248397 0)
  (0.0275878 0.00021472 0)
  (0.0210212 0.00206456 0)
  (0.0147684 0.00317269 0)
  (0.0093606 0.00335013 0)
  (0.00500223 0.00268971 0)
  (0.00192279 0.00152891 0)
  (0.000349116 0.000136996 0)
  (0.000484854 -0.00130393 0)
  (0.00334856 -0.00351034 0)
  (0.00867634 -0.00764958 0)
  (0.0294764 -0.00904421 0)
  (-0.0264799 0.010537 0)
  (0.551055 -0.220757 0)
  (0.307077 -0.259646 0)
  (0.353368 -0.16229 0)
  (0.411345 -0.0718765 0)
  (0.43186 -0.0142494 0)
  (0.422554 0.0243774 0)
  (0.393449 0.0532066 0)
  (0.350289 0.0754208 0)
  (0.295441 0.0922159 0)
  (0.23152 0.105363 0)
  (0.162011 0.117212 0)
  (0.0958878 0.127782 0)
  (0.0155579 0.104073 0)
  (0.00384813 0.0219187 0)
  (0.00144998 -0.0199465 0)
  (0.00547904 -0.0131884 0)
  (0.0109111 -0.000462445 0)
  (0.0904992 0.0114995 0)
  (0.00954021 0.00168614 0)
  (-0.00314405 -0.00769636 0)
  (-0.00163266 -0.0130676 0)
  (0.000830196 -0.0149097 0)
  (0.00593973 -0.00800151 0)
  (0.0154569 0.00402776 0)
  (0.0116629 0.00624543 0)
  (0.00945215 0.00711965 0)
  (0.00923522 0.0069731 0)
  (0.00984796 0.00621739 0)
  (0.010592 0.00520198 0)
  (0.0111755 0.00403068 0)
  (0.0116229 0.00254644 0)
  (0.0113887 0.000382251 0)
  (0.0115682 -0.00361259 0)
  (0.0127971 -0.010919 0)
  (0.0330792 -0.00982321 0)
  (-0.0758785 0.0265242 0)
  (0.6143 -0.44761 0)
  (0.142787 -0.345298 0)
  (0.241733 -0.190828 0)
  (0.290523 -0.089015 0)
  (0.294394 -0.0250902 0)
  (0.284323 0.0260229 0)
  (0.264897 0.0713174 0)
  (0.23425 0.109233 0)
  (0.19276 0.13879 0)
  (0.143373 0.160817 0)
  (0.0902176 0.17665 0)
  (0.0453589 0.182642 0)
  (-0.00279554 0.133991 0)
  (0.00914594 0.0304962 0)
  (0.00885621 -0.0143312 0)
  (0.00527755 -0.0144575 0)
  (0.00746254 -0.000797807 0)
  (0.0662265 0.00708439 0)
  (-0.0264834 0.00462226 0)
  (-0.0249874 -0.0019992 0)
  (-0.0284258 -0.0115715 0)
  (-0.0315107 -0.0185321 0)
  (-0.0326289 -0.0199888 0)
  (0.00682166 0.00230024 0)
  (-0.0027143 0.00111353 0)
  (0.000947797 0.00106457 0)
  (0.00612501 0.000237581 0)
  (0.0109807 -0.000826364 0)
  (0.0149405 -0.00197756 0)
  (0.0176784 -0.00324739 0)
  (0.0190396 -0.00469945 0)
  (0.0169404 -0.0041271 0)
  (0.0191459 0.00308056 0)
  (0.0149996 0.00424469 0)
  (0.00364749 0.00505565 0)
  (-0.143052 0.0255861 0)
  (0.643379 -0.58821 0)
  (-0.0561334 -0.368648 0)
  (0.139337 -0.181516 0)
  (0.165672 -0.0851343 0)
  (0.151783 -0.0192717 0)
  (0.142508 0.0407842 0)
  (0.130852 0.0953651 0)
  (0.110016 0.141466 0)
  (0.0811659 0.178068 0)
  (0.0474621 0.20492 0)
  (0.0125606 0.220922 0)
  (-0.00954442 0.212878 0)
  (-0.0257584 0.135529 0)
  (-0.00620261 0.0235125 0)
  (-0.0158885 -0.00122928 0)
  (-0.0291183 0.00973302 0)
  (-0.0346816 0.028319 0)
  (-0.0516869 0.0634434 0)
  (-0.0427073 0.0158762 0)
  (-0.0575874 0.0114794 0)
  (-0.0589927 0.00202201 0)
  (-0.0646111 -0.00829338 0)
  (-0.0729006 -0.0162705 0)
  (-0.0806919 -0.0196873 0)
  (-0.078076 -0.0141184 0)
  (-0.0638784 -0.0146609 0)
  (-0.0474295 -0.0177159 0)
  (-0.0280333 -0.0215487 0)
  (-0.00180399 -0.0248154 0)
  (0.0261757 -0.0248769 0)
  (0.0521848 -0.0226655 0)
  (0.0761503 -0.0181185 0)
  (0.0937549 -0.0110429 0)
  (0.0980484 0.00125328 0)
  (0.0841058 0.0177227 0)
  (0.0753479 0.0279305 0)
  (-0.0698835 0.0341175 0)
  (0.644944 -0.656209 0)
  (-0.196981 -0.381194 0)
  (0.0920055 -0.182798 0)
  (0.0627811 -0.0832035 0)
  (0.0266232 -0.0174463 0)
  (0.0137346 0.0537661 0)
  (0.00801604 0.114793 0)
  (-0.00580463 0.166356 0)
  (-0.0225219 0.205869 0)
  (-0.0398285 0.232525 0)
  (-0.0532485 0.240784 0)
  (-0.0525093 0.213974 0)
  (-0.0440398 0.118367 0)
  (-0.0319346 0.0282039 0)
  (-0.0450511 0.010217 0)
  (-0.0536405 0.00950506 0)
  (-0.0568095 0.0141612 0)
  (-0.0608847 0.0180557 0)
  (-0.0614207 0.0154958 0)
  (-0.0643245 0.0142769 0)
  (-0.0650987 0.00674764 0)
  (-0.0678179 -0.0022237 0)
  (-0.0711706 -0.0102656 0)
  (-0.0733231 -0.0150845 0)
  (-0.0705119 -0.015993 0)
  (-0.0621767 -0.0200426 0)
  (-0.0501997 -0.0260151 0)
  (-0.0351295 -0.0329397 0)
  (-0.0173138 -0.0389979 0)
  (0.00524453 -0.041859 0)
  (0.0279366 -0.0398923 0)
  (0.0500409 -0.0323271 0)
  (0.0694384 -0.0164138 0)
  (0.0834721 0.00747248 0)
  (0.0833957 0.0316027 0)
  (0.0854334 0.0508723 0)
  (0.0370715 0.0595556 0)
  (0.0688886 0.0507959 0)
  (-0.0202762 -0.0103353 0)
  (-0.278966 -0.0395135 0)
  (0.598752 -0.669416 0)
  (-0.244033 -0.387868 0)
  (0.047375 -0.168936 0)
  (-0.0425727 -0.0409021 0)
  (-0.0893485 0.0166058 0)
  (-0.0941634 0.0690306 0)
  (-0.0974204 0.12436 0)
  (-0.100917 0.175209 0)
  (-0.103691 0.214913 0)
  (-0.104005 0.238385 0)
  (-0.0976721 0.23715 0)
  (-0.0790881 0.19555 0)
  (-0.0559734 0.098337 0)
  (-0.0452383 0.0344951 0)
  (-0.0511582 0.0196958 0)
  (-0.0554644 0.0165488 0)
  (-0.0568724 0.0173254 0)
  (-0.0564789 0.0177505 0)
  (-0.055675 0.0167797 0)
  (-0.0558597 0.0141971 0)
  (-0.0561005 0.00754636 0)
  (-0.0578666 -0.000885445 0)
  (-0.0601116 -0.00908454 0)
  (-0.0618179 -0.0157408 0)
  (-0.0610407 -0.0213981 0)
  (-0.0571522 -0.0285814 0)
  (-0.0504895 -0.0373322 0)
  (-0.0413314 -0.0467466 0)
  (-0.030036 -0.0552455 0)
  (-0.0167372 -0.0607947 0)
  (-0.000896315 -0.0617264 0)
  (0.0167484 -0.0552446 0)
  (0.0349622 -0.0378609 0)
  (0.0567884 -0.00557102 0)
  (0.0708627 0.02902 0)
  (0.0816817 0.0553133 0)
  (0.0763603 0.064767 0)
  (0.0955779 0.0616914 0)
  (0.10989 0.0490727 0)
  (-0.0970249 0.0218612 0)
  (0.484358 -0.619844 0)
  (-0.223084 -0.361728 0)
  (-0.0481368 -0.135318 0)
  (-0.123112 0.00465867 0)
  (-0.172185 0.0316544 0)
  (-0.176746 0.0730397 0)
  (-0.174105 0.123484 0)
  (-0.167125 0.171609 0)
  (-0.156683 0.208403 0)
  (-0.141753 0.226345 0)
  (-0.11965 0.21591 0)
  (-0.0888526 0.165462 0)
  (-0.0591707 0.0783203 0)
  (-0.0473101 0.03453 0)
  (-0.046082 0.0221127 0)
  (-0.045065 0.0181562 0)
  (-0.0433439 0.0175682 0)
  (-0.0407838 0.0173986 0)
  (-0.0381522 0.0161699 0)
  (-0.0363293 0.0135523 0)
  (-0.0355888 0.0083465 0)
  (-0.03684 0.00129775 0)
  (-0.039783 -0.00639529 0)
  (-0.0429282 -0.0138514 0)
  (-0.0454605 -0.0217643 0)
  (-0.0467013 -0.0312199 0)
  (-0.0464979 -0.042172 0)
  (-0.0448551 -0.0536332 0)
  (-0.0419578 -0.0639461 0)
  (-0.0378812 -0.0713184 0)
  (-0.0324876 -0.0746155 0)
  (-0.0252235 -0.0721318 0)
  (-0.0155371 -0.0609322 0)
  (0.00348598 -0.0315969 0)
  (0.0374474 0.0128138 0)
  (0.057616 0.0425598 0)
  (0.0725103 0.0509355 0)
  (0.0980061 0.0448309 0)
  (0.140661 0.0478581 0)
  (-0.0428149 0.0993221 0)
  (0.302325 -0.487373 0)
  (-0.29813 -0.283494 0)
  (-0.225926 -0.110669 0)
  (-0.191456 0.0568905 0)
  (-0.246979 0.0380171 0)
  (-0.234378 0.068517 0)
  (-0.220018 0.113132 0)
  (-0.20219 0.156655 0)
  (-0.180214 0.188709 0)
  (-0.153306 0.200539 0)
  (-0.120475 0.182938 0)
  (-0.0830009 0.129537 0)
  (-0.0518988 0.0583201 0)
  (-0.0392463 0.0282755 0)
  (-0.0330967 0.0185491 0)
  (-0.028009 0.0150922 0)
  (-0.0234171 0.0141965 0)
  (-0.0189307 0.0139639 0)
  (-0.014677 0.0132687 0)
  (-0.0111131 0.0116401 0)
  (-0.00879026 0.00843194 0)
  (-0.00855259 0.00372291 0)
  (-0.0113775 -0.00227934 0)
  (-0.0156677 -0.00900814 0)
  (-0.0211618 -0.0168921 0)
  (-0.0274027 -0.0266865 0)
  (-0.0341147 -0.0381869 0)
  (-0.0410685 -0.0502115 0)
  (-0.0484567 -0.0609521 0)
  (-0.0562742 -0.0686394 0)
  (-0.064622 -0.0729709 0)
  (-0.0726694 -0.0731861 0)
  (-0.0784555 -0.0678372 0)
  (-0.0766839 -0.054962 0)
  (-0.0594954 -0.0341928 0)
  (-0.0143527 -0.00656727 0)
  (0.00177338 0.00483675 0)
  (0.0241702 6.76442e-05 0)
  (0.105995 0.0610941 0)
  (-0.457194 0.217592 0)
  (0.029964 -0.326722 0)
  (-0.603897 -0.246152 0)
  (-0.774233 -0.203923 0)
  (-0.221537 -0.0127938 0)
  (-0.316382 0.00572663 0)
  (-0.262612 0.0469599 0)
  (-0.233897 0.0914821 0)
  (-0.206427 0.131287 0)
  (-0.175575 0.158513 0)
  (-0.140545 0.165234 0)
  (-0.10183 0.143709 0)
  (-0.0622619 0.0930091 0)
  (-0.0329909 0.0396581 0)
  (-0.0210348 0.0189894 0)
  (-0.0128954 0.0122559 0)
  (-0.0060164 0.0101909 0)
  (5.85432e-05 0.00986326 0)
  (0.00551613 0.00995696 0)
  (0.010465 0.00977532 0)
  (0.0147326 0.00901566 0)
  (0.017929 0.00747596 0)
  (0.0195724 0.00521706 0)
  (0.0190126 0.00208743 0)
  (0.0159518 -0.002057 0)
  (0.0106485 -0.0074332 0)
  (0.00241634 -0.0151161 0)
  (-0.00923232 -0.0253765 0)
  (-0.0233574 -0.0362025 0)
  (-0.0406606 -0.0454522 0)
  (-0.0608765 -0.0505418 0)
  (-0.0855484 -0.0514663 0)
  (-0.115559 -0.0475632 0)
  (-0.150912 -0.0373145 0)
  (-0.189598 -0.0192535 0)
  (-0.227038 0.00525153 0)
  (-0.260568 0.0304398 0)
  (-0.292877 0.0477695 0)
  (-0.332537 0.0541766 0)
  (-0.38127 0.0505779 0)
  (-0.607425 0.0394473 0)
  (-1.79214 -0.221635 0)
  (-0.0448898 -0.148818 0)
  (-0.286187 -0.048979 0)
  (-0.242994 0.0181035 0)
  (-0.213282 0.0639053 0)
  (-0.182369 0.099296 0)
  (-0.146406 0.121556 0)
  (-0.10649 0.124844 0)
  (-0.0645879 0.103287 0)
  (-0.0245431 0.059669 0)
  (0.00123153 0.0213171 0)
  (0.00987739 0.00827736 0)
  (0.0160387 0.00513744 0)
  (0.0215454 0.00502538 0)
  (0.0265369 0.00592727 0)
  (0.0311711 0.00696385 0)
  (0.0355004 0.00771255 0)
  (0.0393709 0.00800441 0)
  (0.0425325 0.00780223 0)
  (0.0447247 0.00718914 0)
  (0.0456886 0.00609791 0)
  (0.0449354 0.00412505 0)
  (0.0422531 0.000860159 0)
  (0.0369313 -0.00399483 0)
  (0.0278804 -0.0108448 0)
  (0.0144235 -0.0193653 0)
  (-0.00547861 -0.0280776 0)
  (-0.0257329 -0.0313099 0)
  (-0.0459272 -0.0297897 0)
  (-0.0647969 -0.0241495 0)
  (-0.0813785 -0.014966 0)
  (-0.0948419 -0.00168283 0)
  (-0.106533 0.0164595 0)
  (-0.118813 0.0380303 0)
  (-0.121636 0.0532571 0)
  (-0.0982232 0.0449056 0)
  (0.0339558 -0.0315046 0)
  (-0.27753 -0.216646 0)
  (-0.513411 0.0718398 0)
  (0.067631 -0.153419 0)
  (-0.193855 -0.0782305 0)
  (-0.189026 -0.0318079 0)
  (-0.173421 0.013878 0)
  (-0.142602 0.047108 0)
  (-0.102596 0.0679986 0)
  (-0.0574879 0.0703909 0)
  (-0.00811909 0.0462116 0)
  (0.0322078 0.00565899 0)
  (0.0497008 -0.0229542 0)
  (0.053995 -0.0375456 0)
  (0.0552783 -0.0424223 0)
  (0.0563674 -0.0431683 0)
  (0.0577995 -0.0423945 0)
  (0.0595991 -0.0413093 0)
  (0.0616772 -0.0403991 0)
  (0.0638673 -0.0397314 0)
  (0.0659019 -0.0396008 0)
  (0.0675371 -0.0400154 0)
  (0.0685708 -0.0409109 0)
  (0.0686772 -0.0421268 0)
  (0.0673215 -0.0432673 0)
  (0.0640165 -0.0441402 0)
  (0.0581469 -0.0447218 0)
  (0.0492801 -0.0448421 0)
  (0.0368354 -0.0445394 0)
  (0.0216531 -0.0432594 0)
  (0.00540244 -0.0405443 0)
  (-0.00795926 -0.0358948 0)
  (-0.0153779 -0.0290961 0)
  (-0.0160185 -0.0172788 0)
  (-0.0127508 0.00209592 0)
  (-0.00476927 0.0208892 0)
  (0.0102637 0.0281563 0)
  (0.0414258 0.00628948 0)
  (0.134479 -0.0392316 0)
  (-0.204961 -0.111021 0)
  (0.734717 0.159981 0)
  (0.0320865 -0.293132 0)
  (-0.320004 0.157285 0)
  (0.0613209 0.0333273 0)
  (-0.135912 0.0974608 0)
  (-0.134028 0.113658 0)
  (-0.121009 0.111893 0)
  (-0.0881284 0.118172 0)
  (-0.0457399 0.126572 0)
  (0.0177246 0.127168 0)
  (0.0624066 0.122408 0)
  (0.0921243 0.123336 0)
  (0.103463 0.129025 0)
  (0.103974 0.134991 0)
  (0.100977 0.13683 0)
  (0.0983074 0.136517 0)
  (0.0963931 0.135508 0)
  (0.0950275 0.134476 0)
  (0.0941039 0.13359 0)
  (0.0935173 0.132782 0)
  (0.0931732 0.132482 0)
  (0.0929153 0.132811 0)
  (0.0926416 0.133713 0)
  (0.092262 0.134926 0)
  (0.091697 0.135912 0)
  (0.090852 0.13616 0)
  (0.0895642 0.135521 0)
  (0.0876127 0.133835 0)
  (0.0846512 0.131022 0)
  (0.0804633 0.127489 0)
  (0.0750931 0.122331 0)
  (0.0693423 0.113732 0)
  (0.0650455 0.102805 0)
  (0.0653385 0.0913241 0)
  (0.0714518 0.0786647 0)
  (0.0867674 0.0719685 0)
  (0.105979 0.0670982 0)
  (0.123216 0.0602893 0)
  (0.160583 0.0399088 0)
  (-0.21647 -0.00381472 0)
)
;

boundaryField
{
  floor
  {
    type noSlip;
  }
  ceiling
  {
    type noSlip;
  }
  sWall
  {
    type noSlip;
  }
  nWall
  {
    type noSlip;
  }
  sideWalls
  {
    type empty;
  }
  glass1
  {
    type noSlip;
  }
  glass2
  {
    type noSlip;
  }
  sun
  {
    type noSlip;
  }
  heatsource1
  {
    type noSlip;
  }
  heatsource2
  {
    type noSlip;
  }
  Table_master
  {
    type noSlip;
  }
  Table_slave
  {
    type noSlip;
  }
  inlet
  {
    type fixedValue;
    value uniform (0.1 0 0);
  }
  outlet
  {
    type zeroGradient;
  }
} 	// ************************************************************************* //

