// -*- C++ -*-
// File generated by PyFoam - sorry for the ugliness

FoamFile
{
 version 2.0;
 format ascii;
 class volScalarField;
 location "300";
 object T;
}

dimensions [ 0 0 0 1 0 0 0 ];

internalField nonuniform List<scalar> 459
(
  305.395
  305.145
  305.143
  305.15
  305.156
  305.16
  305.164
  305.166
  305.168
  305.169
  305.167
  305.16
  305.15
  305.137
  305.119
  304.079
  304.111
  304.124
  304.104
  304.091
  304.095
  304.104
  304.106
  304.106
  304.109
  304.113
  304.114
  304.114
  304.123
  304.148
  304.196
  304.253
  304.255
  304.244
  305.59
  305.219
  305.202
  305.215
  305.229
  305.241
  305.251
  305.258
  305.263
  305.264
  305.258
  305.243
  305.219
  305.183
  305.134
  305.086
  304.958
  304.217
  304.242
  304.269
  304.275
  304.277
  304.268
  304.256
  304.256
  304.262
  304.276
  304.301
  304.341
  304.383
  304.43
  304.491
  304.554
  304.545
  304.505
  304.453
  305.771
  305.291
  305.254
  305.274
  305.297
  305.319
  305.338
  305.353
  305.364
  305.369
  305.364
  305.346
  305.311
  305.258
  305.185
  305.101
  305.028
  304.533
  304.528
  304.559
  304.597
  304.613
  304.575
  304.435
  304.463
  304.5
  304.539
  304.58
  304.624
  304.678
  304.748
  304.841
  304.944
  304.935
  304.917
  304.903
  305.937
  305.37
  305.304
  305.326
  305.359
  305.391
  305.422
  305.449
  305.471
  305.483
  305.484
  305.468
  305.431
  305.371
  305.285
  305.173
  305.038
  304.916
  304.83
  304.894
  304.957
  305.015
  305.051
  305.074
  305.093
  305.097
  305.102
  305.107
  305.114
  305.122
  305.13
  305.138
  305.141
  305.129
  305.134
  305.136
  305.112
  306.088
  305.456
  305.358
  305.37
  305.409
  305.45
  305.492
  305.532
  305.567
  305.592
  305.603
  305.596
  305.568
  305.519
  305.449
  305.366
  305.278
  305.201
  305.147
  305.131
  305.139
  305.149
  305.153
  305.154
  305.153
  305.152
  305.153
  305.156
  305.162
  305.171
  305.182
  305.195
  305.208
  305.219
  305.233
  305.246
  305.259
  305.27
  305.257
  305.253
  306.218
  305.555
  305.435
  305.417
  305.449
  305.494
  305.542
  305.59
  305.637
  305.675
  305.699
  305.704
  305.689
  305.653
  305.597
  305.527
  305.45
  305.38
  305.324
  305.287
  305.265
  305.249
  305.237
  305.225
  305.215
  305.207
  305.201
  305.199
  305.2
  305.206
  305.217
  305.231
  305.247
  305.264
  305.281
  305.294
  305.304
  305.307
  305.282
  305.26
  306.329
  305.702
  305.593
  305.533
  305.518
  305.543
  305.584
  305.63
  305.683
  305.731
  305.764
  305.78
  305.78
  305.76
  305.721
  305.667
  305.603
  305.537
  305.477
  305.428
  305.39
  305.359
  305.334
  305.312
  305.293
  305.276
  305.262
  305.251
  305.243
  305.241
  305.245
  305.255
  305.27
  305.288
  305.304
  305.318
  305.326
  305.327
  305.314
  305.266
  306.505
  306.026
  305.927
  305.826
  305.739
  305.702
  305.701
  305.72
  305.757
  305.792
  305.818
  305.832
  305.836
  305.829
  305.809
  305.775
  305.729
  305.675
  305.619
  305.566
  305.52
  305.481
  305.446
  305.416
  305.389
  305.364
  305.341
  305.32
  305.302
  305.288
  305.28
  305.279
  305.286
  305.299
  305.314
  305.331
  305.346
  305.36
  305.373
  305.395
  306.747
  306.544
  306.39
  306.256
  306.118
  306.024
  305.966
  305.934
  305.915
  305.902
  305.895
  305.889
  305.883
  305.874
  305.86
  305.84
  305.811
  305.774
  305.732
  305.687
  305.643
  305.602
  305.564
  305.529
  305.497
  305.467
  305.438
  305.41
  305.383
  305.359
  305.338
  305.323
  305.314
  305.312
  305.314
  305.318
  305.324
  305.329
  305.338
  305.385
  305.222
  306.003
  306.04
  306.021
  305.997
  305.977
  305.962
  305.949
  305.936
  305.924
  305.912
  305.899
  305.886
  305.871
  305.852
  305.828
  305.8
  305.768
  305.734
  305.699
  305.664
  305.631
  305.598
  305.567
  305.536
  305.506
  305.475
  305.446
  305.418
  305.392
  305.37
  305.354
  305.345
  305.341
  305.339
  305.337
  305.335
  305.34
  305.346
  305.827
  305.92
  305.951
  305.956
  305.952
  305.945
  305.937
  305.928
  305.919
  305.909
  305.898
  305.887
  305.874
  305.86
  305.844
  305.825
  305.803
  305.779
  305.753
  305.725
  305.697
  305.669
  305.64
  305.611
  305.582
  305.553
  305.523
  305.493
  305.464
  305.437
  305.414
  305.396
  305.383
  305.371
  305.36
  305.345
  305.341
  306.991
  306.39
  305.449
  305.649
  305.837
  305.889
  305.901
  305.902
  305.899
  305.893
  305.886
  305.879
  305.871
  305.863
  305.854
  305.844
  305.834
  305.822
  305.81
  305.796
  305.78
  305.763
  305.745
  305.725
  305.703
  305.681
  305.657
  305.633
  305.607
  305.581
  305.554
  305.526
  305.499
  305.473
  305.448
  305.424
  305.401
  305.375
  305.336
  305.297
)
;

boundaryField
{
  floor
  {
    type wallHeatTransfer;
    Tinf uniform 305.2;
    alphaWall uniform 0.24;
    value nonuniform List<scalar> 29
(
  305.129
  304.367
  304.365
  304.389
  304.406
  304.419
  304.432
  304.439
  304.428
  304.416
  304.408
  304.405
  304.406
  304.409
  304.414
  304.427
  304.453
  304.491
  304.503
  304.511
  304.511
  304.624
  304.955
  305.124
  305.129
  304.367
  304.418
  304.636
  304.948
)
;
  }
  ceiling
  {
    type wallHeatTransfer;
    Tinf uniform 303.2;
    alphaWall uniform 0.24;
    value nonuniform List<scalar> 43
(
  306.713
  306.204
  305.355
  305.533
  305.704
  305.743
  305.741
  305.728
  305.711
  305.692
  305.673
  305.657
  305.643
  305.63
  305.62
  305.611
  305.602
  305.594
  305.584
  305.573
  305.559
  305.543
  305.526
  305.507
  305.487
  305.466
  305.445
  305.422
  305.398
  305.374
  305.349
  305.323
  305.297
  305.272
  305.247
  305.223
  305.198
  305.168
  305.128
  305.1
  306.581
  306.406
  305.275
)
;
  }
  sWall
  {
    type wallHeatTransfer;
    Tinf uniform 315.2;
    alphaWall uniform 0.36;
    value uniform 307.865;
  }
  nWall
  {
    type wallHeatTransfer;
    Tinf uniform 307.2;
    alphaWall uniform 0.36;
    value nonuniform List<scalar> 6
(
  305.61
  305.605
  305.606
  305.553
  305.549
  305.553
)
;
  }
  sideWalls
  {
    type empty;
  }
  glass1
  {
    type wallHeatTransfer;
    Tinf uniform 315.2;
    alphaWall uniform 4.3;
    value nonuniform List<scalar> 9
(
  312.825
  312.032
  311.519
  311.142
  310.862
  310.643
  310.479
  310.538
  310.734
)
;
  }
  glass2
  {
    type wallHeatTransfer;
    Tinf uniform 307.2;
    alphaWall uniform 4.3;
    value nonuniform List<scalar> 2
(
  306.531
  306.49
)
;
  }
  sun
  {
    type wallHeatTransfer;
    Tinf uniform 305.2;
    alphaWall uniform 0.24;
    value nonuniform List<scalar> 14
(
  305.366
  305.153
  305.151
  305.157
  305.162
  305.166
  305.169
  305.171
  305.172
  305.173
  305.171
  305.165
  305.156
  305.144
)
;
  }
  heatsource1
  {
    type fixedGradient;
    gradient uniform 0;
  }
  heatsource2
  {
    type fixedGradient;
    gradient uniform 0;
  }
  Table_master
  {
    type zeroGradient;
  }
  Table_slave
  {
    type zeroGradient;
  }
  inlet
  {
    type fixedValue;
    value uniform 299.15;
  }
  outlet
  {
    type zeroGradient;
  }
} 	// ************************************************************************* //

