// -*- C++ -*-
// File generated by PyFoam - sorry for the ugliness

FoamFile
{
 version 2.0;
 format ascii;
 class volVectorField;
 location "300";
 object U;
}

dimensions [ 0 1 -1 0 0 0 0 ];

internalField nonuniform List<vector> 459
(
  (0.0837623 0.0620917 0)
  (-0.125639 0.00322941 0)
  (-0.110858 0.00506364 0)
  (-0.122666 0.00570052 0)
  (-0.134016 0.00474698 0)
  (-0.143881 0.00314065 0)
  (-0.151432 0.00108188 0)
  (-0.156013 -0.0014153 0)
  (-0.156944 -0.00440044 0)
  (-0.153456 -0.00802482 0)
  (-0.144531 -0.0125042 0)
  (-0.128495 -0.0181077 0)
  (-0.104128 -0.0257651 0)
  (-0.075836 -0.0372195 0)
  (-0.0628419 -0.0520522 0)
  (0.0371662 0.00331116 0)
  (-0.0157874 -0.00155484 0)
  (-0.00837146 -0.00225095 0)
  (-0.00336595 -0.00171604 0)
  (-0.000856994 -0.00133157 0)
  (0.00184684 -0.00193582 0)
  (0.00484407 -0.00383278 0)
  (0.00873759 -0.00352259 0)
  (0.0122827 -0.00305651 0)
  (0.0150201 -0.00279784 0)
  (0.0170645 -0.00268488 0)
  (0.0186471 -0.00242003 0)
  (0.0191064 -0.00181778 0)
  (0.0177613 -0.000353996 0)
  (0.0152763 0.00153991 0)
  (0.0132165 0.00190938 0)
  (0.013028 -0.000450556 0)
  (0.0192638 -0.00121264 0)
  (-0.021905 0.00854117 0)
  (0.266374 0.134552 0)
  (-0.143716 0.018937 0)
  (-0.0977823 0.0178096 0)
  (-0.113784 0.018296 0)
  (-0.125747 0.0167458 0)
  (-0.135893 0.0139626 0)
  (-0.143777 0.0101978 0)
  (-0.14896 0.00545047 0)
  (-0.15088 -0.000371882 0)
  (-0.148887 -0.00738949 0)
  (-0.142594 -0.0155567 0)
  (-0.13128 -0.0249281 0)
  (-0.114781 -0.0363198 0)
  (-0.0950366 -0.0512736 0)
  (-0.0766485 -0.0683136 0)
  (-0.0619662 -0.0751212 0)
  (0.0401202 0.0159861 0)
  (0.0727168 0.000325081 0)
  (0.0101721 0.00505798 0)
  (-0.00993987 0.00517751 0)
  (-0.0110617 0.00236383 0)
  (-0.0125857 -0.000109348 0)
  (-0.0128697 -0.00292019 0)
  (-0.0126442 -0.0054306 0)
  (-0.01201 -0.00406643 0)
  (-0.0117529 -0.00251989 0)
  (-0.0125055 -0.00100158 0)
  (-0.0139351 0.000825816 0)
  (-0.0164649 0.00293147 0)
  (-0.018742 0.00496377 0)
  (-0.0208151 0.00664239 0)
  (-0.0222374 0.00649254 0)
  (-0.020834 0.00322842 0)
  (-0.017686 0.0028056 0)
  (-0.0250537 0.00399295 0)
  (-0.0651273 0.00548729 0)
  (0.419741 0.204721 0)
  (-0.183403 0.042907 0)
  (-0.079371 0.0336908 0)
  (-0.100779 0.0303729 0)
  (-0.112436 0.0267842 0)
  (-0.122216 0.0218667 0)
  (-0.130043 0.0155684 0)
  (-0.135647 0.00782247 0)
  (-0.138582 -0.00141695 0)
  (-0.138132 -0.0120508 0)
  (-0.134512 -0.0239676 0)
  (-0.127894 -0.0369021 0)
  (-0.119021 -0.0508942 0)
  (-0.109331 -0.0656904 0)
  (-0.100608 -0.0785222 0)
  (-0.0961017 -0.0835581 0)
  (-0.105053 -0.0797464 0)
  (-0.0176349 0.0263242 0)
  (-0.0428368 0.0136019 0)
  (-0.0450526 0.00904345 0)
  (-0.0435367 0.00282688 0)
  (-0.0416446 -0.00256541 0)
  (-0.0384096 -0.00685124 0)
  (-0.0328596 -0.00621845 0)
  (-0.0405988 -0.00594335 0)
  (-0.0439064 -0.00493124 0)
  (-0.0458243 -0.00414852 0)
  (-0.0463996 -0.00348673 0)
  (-0.0454572 -0.00293133 0)
  (-0.0437798 -0.00276031 0)
  (-0.0413357 -0.0033963 0)
  (-0.0361427 -0.00625409 0)
  (-0.02464 -0.0107289 0)
  (-0.0113204 -0.005703 0)
  (0.00244088 -0.00272681 0)
  (-0.0353071 -0.0041379 0)
  (0.543583 0.262612 0)
  (-0.224776 0.0708405 0)
  (-0.0577119 0.0496345 0)
  (-0.0851652 0.0422843 0)
  (-0.095998 0.0369458 0)
  (-0.104386 0.0304514 0)
  (-0.111209 0.0224139 0)
  (-0.116311 0.0125786 0)
  (-0.119319 0.000821224 0)
  (-0.119617 -0.012588 0)
  (-0.117706 -0.0268544 0)
  (-0.11473 -0.0411902 0)
  (-0.112143 -0.0550874 0)
  (-0.111611 -0.0675936 0)
  (-0.115243 -0.0760662 0)
  (-0.127162 -0.0754751 0)
  (-0.148246 -0.0561577 0)
  (-0.145985 -0.0041465 0)
  (-0.10585 0.018392 0)
  (-0.0930933 0.0103907 0)
  (-0.0846704 0.00521901 0)
  (-0.0819183 -5.52622e-05 0)
  (-0.0812651 -0.00489786 0)
  (-0.0822488 -0.00831442 0)
  (-0.0806346 -0.00657076 0)
  (-0.0749983 -0.00588996 0)
  (-0.0695494 -0.00614038 0)
  (-0.0640115 -0.00644613 0)
  (-0.058319 -0.00684188 0)
  (-0.0523136 -0.0074194 0)
  (-0.0453984 -0.00837214 0)
  (-0.0365497 -0.0101314 0)
  (-0.0259799 -0.013443 0)
  (-0.0205714 -0.0183843 0)
  (-0.013833 -0.0166009 0)
  (-0.00231356 -0.0122762 0)
  (-0.00431005 0.00754745 0)
  (0.640102 0.310064 0)
  (-0.259602 0.100081 0)
  (-0.0366844 0.0625656 0)
  (-0.0669635 0.0523212 0)
  (-0.0770715 0.0451797 0)
  (-0.0831262 0.0371107 0)
  (-0.0876705 0.0275706 0)
  (-0.0908106 0.0160848 0)
  (-0.0922196 0.00237508 0)
  (-0.0910969 -0.0130326 0)
  (-0.0887524 -0.028376 0)
  (-0.0867179 -0.0422454 0)
  (-0.0864716 -0.0541433 0)
  (-0.0891547 -0.0635692 0)
  (-0.0955987 -0.0693238 0)
  (-0.10603 -0.069105 0)
  (-0.116354 -0.0580965 0)
  (-0.117258 -0.0316427 0)
  (-0.106956 -0.0097455 0)
  (-0.0941234 -0.00147139 0)
  (-0.0845355 -0.000837296 0)
  (-0.0786523 -0.00280582 0)
  (-0.0754144 -0.00549971 0)
  (-0.0737645 -0.00725023 0)
  (-0.0717799 -0.00692065 0)
  (-0.0688159 -0.00702925 0)
  (-0.0656397 -0.00724147 0)
  (-0.0624215 -0.00751492 0)
  (-0.0591585 -0.00790522 0)
  (-0.0557811 -0.00857743 0)
  (-0.0520358 -0.00986011 0)
  (-0.0475584 -0.0123489 0)
  (-0.0424551 -0.0168426 0)
  (-0.0371884 -0.0233313 0)
  (-0.0301236 -0.0277423 0)
  (-0.0167658 -0.0308293 0)
  (0.0100721 -0.0295839 0)
  (0.0425848 -0.0375631 0)
  (0.0833764 -0.0181716 0)
  (-0.0458908 0.028016 0)
  (0.700547 0.352371 0)
  (-0.2865 0.125841 0)
  (-0.022342 0.0667315 0)
  (-0.0433272 0.0604436 0)
  (-0.0536608 0.0518993 0)
  (-0.0575893 0.0412142 0)
  (-0.0588948 0.0298516 0)
  (-0.0587432 0.0169249 0)
  (-0.0568438 0.0015143 0)
  (-0.05224 -0.01549 0)
  (-0.0484664 -0.0308447 0)
  (-0.0464775 -0.043029 0)
  (-0.0472692 -0.0520783 0)
  (-0.051415 -0.0581755 0)
  (-0.0588923 -0.0607853 0)
  (-0.0686715 -0.0582941 0)
  (-0.0772212 -0.0483208 0)
  (-0.0799646 -0.0318986 0)
  (-0.0762566 -0.0177238 0)
  (-0.0697196 -0.0102159 0)
  (-0.0639739 -0.00734842 0)
  (-0.0600333 -0.00711424 0)
  (-0.0577884 -0.00811665 0)
  (-0.0566804 -0.00901981 0)
  (-0.0558121 -0.00918247 0)
  (-0.0547868 -0.00934763 0)
  (-0.0537604 -0.00956465 0)
  (-0.0528789 -0.00978867 0)
  (-0.0522694 -0.0100708 0)
  (-0.0520638 -0.0106118 0)
  (-0.0523413 -0.0118467 0)
  (-0.0531307 -0.0145056 0)
  (-0.0544932 -0.0193885 0)
  (-0.0560433 -0.0265682 0)
  (-0.0558927 -0.0350244 0)
  (-0.050976 -0.0451767 0)
  (-0.0391475 -0.0560727 0)
  (-0.0249463 -0.0637038 0)
  (0.0464683 -0.016852 0)
  (-0.0935313 0.0753165 0)
  (0.718515 0.391059 0)
  (-0.296592 0.123723 0)
  (-0.00613838 0.0377445 0)
  (0.00170928 0.0643413 0)
  (-0.013178 0.0616789 0)
  (-0.0195541 0.0428521 0)
  (-0.0180972 0.0275864 0)
  (-0.0143276 0.013151 0)
  (-0.00662821 -0.00405358 0)
  (7.15062e-05 -0.0214551 0)
  (0.00373728 -0.0350281 0)
  (0.004344 -0.044047 0)
  (0.00193077 -0.0495693 0)
  (-0.00377549 -0.0523882 0)
  (-0.0122214 -0.0525822 0)
  (-0.0221505 -0.0493876 0)
  (-0.0309586 -0.0416917 0)
  (-0.0359509 -0.0307553 0)
  (-0.0367109 -0.0206928 0)
  (-0.0351698 -0.0140522 0)
  (-0.0333534 -0.0105206 0)
  (-0.0321663 -0.0091617 0)
  (-0.0318311 -0.00905595 0)
  (-0.0321605 -0.00931288 0)
  (-0.0327444 -0.00945589 0)
  (-0.0333706 -0.00956419 0)
  (-0.0340978 -0.00959279 0)
  (-0.0350664 -0.00945528 0)
  (-0.0365106 -0.00912688 0)
  (-0.0388122 -0.00874549 0)
  (-0.0425257 -0.00876426 0)
  (-0.0483216 -0.0100485 0)
  (-0.0567856 -0.0136103 0)
  (-0.0678667 -0.0199458 0)
  (-0.080625 -0.0291164 0)
  (-0.0931764 -0.0413331 0)
  (-0.101637 -0.0544764 0)
  (-0.101797 -0.0570818 0)
  (-0.0987002 -0.0156543 0)
  (-0.154883 0.13032 0)
  (0.811406 0.40944 0)
  (-0.115293 0.0983309 0)
  (0.0687659 -0.0345397 0)
  (0.109758 0.0254496 0)
  (0.0805513 0.0437747 0)
  (0.0608459 0.0273247 0)
  (0.0585722 0.0109674 0)
  (0.06075 -0.00293109 0)
  (0.0661912 -0.016577 0)
  (0.0687952 -0.0283224 0)
  (0.0676725 -0.037082 0)
  (0.0636951 -0.042506 0)
  (0.0574998 -0.0449809 0)
  (0.0493879 -0.0451156 0)
  (0.0396799 -0.0433743 0)
  (0.0290796 -0.0397736 0)
  (0.0191087 -0.033984 0)
  (0.0115822 -0.0265164 0)
  (0.00711802 -0.0193074 0)
  (0.00475917 -0.0139058 0)
  (0.003257 -0.0105234 0)
  (0.00187586 -0.00878643 0)
  (0.000285359 -0.00815759 0)
  (-0.00155136 -0.00806295 0)
  (-0.00347275 -0.00809855 0)
  (-0.00539128 -0.00811809 0)
  (-0.00733212 -0.00797078 0)
  (-0.00936513 -0.00747972 0)
  (-0.0116237 -0.00647265 0)
  (-0.0143837 -0.00485786 0)
  (-0.0181537 -0.00276139 0)
  (-0.0236926 -0.000603518 0)
  (-0.0328258 0.000470008 0)
  (-0.0480533 -0.00167598 0)
  (-0.0714818 -0.00966164 0)
  (-0.102566 -0.0248823 0)
  (-0.135748 -0.0457289 0)
  (-0.169469 -0.0702336 0)
  (-0.219799 -0.0934124 0)
  (-0.414982 -0.112005 0)
  (0.939572 0.395604 0)
  (0.444542 0.253753 0)
  (0.396833 0.164378 0)
  (0.387177 0.157345 0)
  (0.294682 0.125727 0)
  (0.235006 0.0842134 0)
  (0.207591 0.0504939 0)
  (0.190762 0.0246432 0)
  (0.174282 0.00341998 0)
  (0.157202 -0.0131422 0)
  (0.141651 -0.0242068 0)
  (0.127456 -0.0303724 0)
  (0.114202 -0.0327738 0)
  (0.101611 -0.0324712 0)
  (0.0895054 -0.0302759 0)
  (0.0778992 -0.0267587 0)
  (0.0672397 -0.0223008 0)
  (0.0582679 -0.0173398 0)
  (0.0513673 -0.0126604 0)
  (0.0462112 -0.00894614 0)
  (0.0421731 -0.00640746 0)
  (0.0387516 -0.00492717 0)
  (0.0356316 -0.00423413 0)
  (0.0326594 -0.0040052 0)
  (0.0298049 -0.00396312 0)
  (0.0270653 -0.00392761 0)
  (0.024423 -0.00374204 0)
  (0.0218791 -0.00323641 0)
  (0.0194688 -0.00221576 0)
  (0.0172495 -0.000491493 0)
  (0.0154645 0.00204144 0)
  (0.0141862 0.00542559 0)
  (0.0132439 0.00928315 0)
  (0.0126364 0.0124928 0)
  (0.0120658 0.0134872 0)
  (0.0121439 0.0109446 0)
  (0.0116807 0.00499323 0)
  (0.0158774 -0.00466449 0)
  (0.0473344 -0.0568007 0)
  (-0.289972 -0.172775 0)
  (-0.96948 0.0572316 0)
  (0.249316 0.150828 0)
  (0.181257 0.120586 0)
  (0.178805 0.0875118 0)
  (0.190918 0.058054 0)
  (0.195048 0.0342603 0)
  (0.191474 0.0169214 0)
  (0.18393 0.00523594 0)
  (0.174111 -0.00318774 0)
  (0.162853 -0.0086489 0)
  (0.150636 -0.0113967 0)
  (0.138086 -0.0117826 0)
  (0.125796 -0.0102886 0)
  (0.114242 -0.00750549 0)
  (0.103855 -0.00407166 0)
  (0.0949519 -0.000492543 0)
  (0.0876187 0.00266862 0)
  (0.0816978 0.00497293 0)
  (0.0768767 0.00629388 0)
  (0.0728246 0.00673995 0)
  (0.0692655 0.00654254 0)
  (0.0660033 0.00597569 0)
  (0.0629263 0.00528955 0)
  (0.0599846 0.0046731 0)
  (0.0571713 0.0042773 0)
  (0.0545337 0.0042415 0)
  (0.0521902 0.00470386 0)
  (0.050331 0.00575891 0)
  (0.0493113 0.00717339 0)
  (0.0492381 0.00903796 0)
  (0.0506911 0.0108367 0)
  (0.0540378 0.0110846 0)
  (0.059011 0.00777053 0)
  (0.0656791 -0.00151911 0)
  (0.0716782 -0.0144329 0)
  (0.0767926 -0.0291651 0)
  (0.0923377 -0.0589197 0)
  (-0.0329333 -0.121688 0)
  (-0.505024 0.109976 0)
  (0.220905 0.0446084 0)
  (0.1151 0.0452059 0)
  (0.127889 0.0439788 0)
  (0.156919 0.0247805 0)
  (0.175067 0.000962995 0)
  (0.182749 -0.0211895 0)
  (0.184001 -0.040697 0)
  (0.180417 -0.0552421 0)
  (0.172838 -0.0652269 0)
  (0.162601 -0.0719317 0)
  (0.151016 -0.0761874 0)
  (0.139199 -0.0785328 0)
  (0.128037 -0.0793485 0)
  (0.118172 -0.0789596 0)
  (0.110032 -0.077076 0)
  (0.103835 -0.0744288 0)
  (0.0994202 -0.0719367 0)
  (0.0963188 -0.0700388 0)
  (0.0939866 -0.0688207 0)
  (0.0919784 -0.06817 0)
  (0.0900069 -0.0678951 0)
  (0.0879378 -0.0678017 0)
  (0.0857549 -0.0677304 0)
  (0.0835249 -0.0675592 0)
  (0.0813787 -0.0671953 0)
  (0.0795144 -0.0665633 0)
  (0.0782208 -0.0655727 0)
  (0.0776554 -0.063888 0)
  (0.0780615 -0.0618415 0)
  (0.07962 -0.0603942 0)
  (0.0822497 -0.0610826 0)
  (0.0855905 -0.0627231 0)
  (0.0880389 -0.0650757 0)
  (0.0887917 -0.0679404 0)
  (0.0864147 -0.0697621 0)
  (0.108454 -0.0775793 0)
  (-0.0154731 -0.117144 0)
  (0.687447 0.180959 0)
  (0.0936025 -0.281105 0)
  (-0.334627 0.145504 0)
  (0.143386 0.0577411 0)
  (0.0286947 0.0973421 0)
  (0.0609836 0.117822 0)
  (0.099298 0.122802 0)
  (0.125743 0.129829 0)
  (0.13895 0.142683 0)
  (0.142305 0.160572 0)
  (0.140146 0.178363 0)
  (0.135391 0.19407 0)
  (0.129679 0.207834 0)
  (0.124068 0.219363 0)
  (0.119222 0.228204 0)
  (0.115464 0.23412 0)
  (0.112852 0.237286 0)
  (0.111299 0.237079 0)
  (0.11061 0.234685 0)
  (0.110519 0.231664 0)
  (0.110735 0.22887 0)
  (0.111009 0.226624 0)
  (0.111165 0.224942 0)
  (0.111102 0.223704 0)
  (0.110782 0.222753 0)
  (0.110221 0.221942 0)
  (0.109471 0.22115 0)
  (0.108613 0.220277 0)
  (0.107747 0.21923 0)
  (0.106987 0.217886 0)
  (0.10645 0.21587 0)
  (0.106232 0.213311 0)
  (0.106155 0.210774 0)
  (0.105551 0.209364 0)
  (0.102843 0.205764 0)
  (0.0962045 0.19984 0)
  (0.0829695 0.191656 0)
  (0.0592008 0.179858 0)
  (0.117702 0.17013 0)
  (-0.369816 0.304264 0)
)
;

boundaryField
{
  floor
  {
    type noSlip;
  }
  ceiling
  {
    type noSlip;
  }
  sWall
  {
    type noSlip;
  }
  nWall
  {
    type noSlip;
  }
  sideWalls
  {
    type empty;
  }
  glass1
  {
    type noSlip;
  }
  glass2
  {
    type noSlip;
  }
  sun
  {
    type noSlip;
  }
  heatsource1
  {
    type noSlip;
  }
  heatsource2
  {
    type noSlip;
  }
  Table_master
  {
    type noSlip;
  }
  Table_slave
  {
    type noSlip;
  }
  inlet
  {
    type fixedValue;
    value uniform (0.0707107 -0.0707107 0);
  }
  outlet
  {
    type zeroGradient;
  }
} 	// ************************************************************************* //

