/*--------------------------------*- C++ -*----------------------------------*\
  =========                 |
  \\      /  F ield         | OpenFOAM: The Open Source CFD Toolbox
   \\    /   O peration     | Website:  https://openfoam.org
    \\  /    A nd           | Version:  6
     \\/     M anipulation  |
\*---------------------------------------------------------------------------*/
FoamFile
{
    version     2.0;
    format      ascii;
    class       volScalarField;
    location    "600";
    object      epsilon;
}
// * * * * * * * * * * * * * * * * * * * * * * * * * * * * * * * * * * * * * //

dimensions      [0 2 -3 0 0 0 0];

internalField   nonuniform List<scalar> 
459
(
0.000441755
0.000575699
0.000607939
0.00069965
0.000792304
0.000885992
0.000984541
0.00108852
0.0011667
0.00120175
0.00117892
0.00109326
0.000953938
0.000786787
0.000627972
3.73844e-05
6.8653e-05
9.71661e-05
9.4644e-05
8.48429e-05
7.32568e-05
6.04955e-05
4.94601e-05
4.06942e-05
3.38361e-05
2.84443e-05
2.41607e-05
2.07322e-05
1.79426e-05
1.56014e-05
1.35412e-05
1.15961e-05
1.03337e-05
7.81131e-06
0.00112066
0.00161253
0.000545483
0.000529046
0.000554396
0.000595055
0.000654211
0.000733272
0.000809418
0.00085954
0.000864127
0.000815837
0.000720753
0.000601883
0.000521544
0.000662354
0.000140466
4.77659e-05
0.000117458
0.000121916
0.000109405
9.2207e-05
7.65362e-05
6.8156e-05
5.51449e-05
4.37586e-05
3.47464e-05
2.77913e-05
2.24439e-05
1.83364e-05
1.51886e-05
1.28808e-05
1.1492e-05
1.08964e-05
2.4972e-05
1.75334e-05
0.00204518
0.00395324
0.000682047
0.000507369
0.000531116
0.000595526
0.000690275
0.000810014
0.000922444
0.000994527
0.00100749
0.0009602
0.000862665
0.000736043
0.00062625
0.000565062
0.000641509
0.000383042
0.000267209
0.000198794
0.000151968
0.000118709
9.89291e-05
0.000177559
0.000122451
8.75211e-05
6.47472e-05
4.94202e-05
3.87862e-05
3.12168e-05
2.5743e-05
2.18033e-05
1.65538e-05
1.3774e-05
4.4452e-05
2.71359e-05
0.00331304
0.00820036
0.00109517
0.000521247
0.000524562
0.000616767
0.000763973
0.000948037
0.00109691
0.00117554
0.00117849
0.00111575
0.000999967
0.000849472
0.00071142
0.000610159
0.000581392
0.00111133
0.00061298
0.000365562
0.000243533
0.000174555
0.000132224
0.000112456
0.00025459
0.000192297
0.000154578
0.000129412
0.000110329
9.45618e-05
8.0928e-05
6.81212e-05
5.50645e-05
3.24692e-05
2.11094e-05
6.91625e-05
3.65895e-05
0.00505827
0.0145895
0.00219062
0.00064374
0.000555562
0.000677646
0.000940639
0.00121762
0.00137871
0.0014327
0.00140199
0.00130477
0.00115314
0.00096653
0.00077526
0.000605318
0.000476504
0.000414161
0.000331563
0.000258203
0.000200201
0.000156456
0.00012451
0.000103805
0.00010004
9.28099e-05
8.55995e-05
7.85639e-05
7.1282e-05
6.36683e-05
5.61922e-05
4.91635e-05
4.27314e-05
3.39484e-05
2.5811e-05
5.11809e-05
4.04453e-05
6.85513e-05
0.000121748
0.000172036
0.00748299
0.021622
0.00493586
0.0012963
0.000884461
0.00102015
0.00150662
0.00176373
0.00183758
0.00180951
0.00171774
0.0015685
0.00136317
0.00111764
0.000863485
0.000635651
0.00046192
0.000351185
0.000279033
0.000223559
0.000177853
0.000142046
0.000115914
9.90317e-05
9.1025e-05
8.74141e-05
8.50373e-05
8.21925e-05
7.78523e-05
7.11794e-05
6.21999e-05
5.29186e-05
4.44457e-05
3.68627e-05
3.17939e-05
4.02604e-05
4.18419e-05
5.22779e-05
0.000224242
0.000195215
0.0102736
0.025818
0.0101017
0.00422378
0.00291853
0.00284085
0.0028768
0.00274923
0.00256022
0.00236409
0.00215983
0.00192159
0.00163161
0.00130232
0.000970793
0.000680214
0.000465704
0.000330998
0.000250053
0.000195702
0.000155063
0.000125631
0.000106308
9.58331e-05
9.25967e-05
9.35779e-05
9.59661e-05
9.83276e-05
9.96227e-05
9.83097e-05
9.13281e-05
8.06465e-05
7.00644e-05
6.10195e-05
5.72855e-05
6.33145e-05
7.98365e-05
0.000126878
0.000294878
0.000287121
0.0108853
0.0279811
0.0156528
0.0107523
0.0081392
0.00633627
0.00499956
0.00409161
0.00349352
0.00307786
0.00273022
0.00236522
0.00194421
0.00148987
0.00105353
0.000685353
0.000433064
0.000286578
0.00020433
0.00015848
0.000128386
0.000109264
9.88944e-05
9.55111e-05
9.74565e-05
0.000102998
0.000110935
0.000120999
0.000133325
0.000147827
0.000163498
0.000172981
0.000181446
0.000199849
0.000238643
0.000355733
0.000653001
0.00123525
0.00366698
0.00109732
0.0100421
0.0167487
0.013341
0.0101305
0.00781853
0.00627747
0.00528656
0.0046628
0.00423737
0.00385748
0.00341576
0.00286017
0.00220291
0.0015499
0.000984043
0.000538014
0.000315194
0.000210743
0.00015636
0.000125315
0.000106668
9.64701e-05
9.25974e-05
9.36028e-05
9.84803e-05
0.000106637
0.000118063
0.000133453
0.000154119
0.00018194
0.000219408
0.000270226
0.000340226
0.000446033
0.000602449
0.000816417
0.00106425
0.00128429
0.00145399
0.000914511
0.00367148
0.00566008
0.00655414
0.00666238
0.00648501
0.00610987
0.0054993
0.00467086
0.0037034
0.00264455
0.00156053
0.000883984
0.000495661
0.000285118
0.000185796
0.000137502
0.000112089
9.77272e-05
8.95561e-05
8.55715e-05
8.45203e-05
8.57372e-05
8.90024e-05
9.4508e-05
0.000102764
0.000114685
0.000131669
0.000155756
0.000189923
0.000238479
0.000306408
0.000400516
0.00052452
0.000668184
0.000795451
0.000856396
0.000818925
0.000526013
0.00278002
0.00638157
0.00711083
0.00591482
0.0052928
0.00460288
0.00368611
0.00273016
0.00189252
0.00123794
0.000741964
0.000436396
0.000269939
0.000186851
0.00014871
0.000131388
0.000123312
0.000119221
0.000116792
0.000115089
0.000113866
0.000113226
0.000113647
0.000115874
0.000120507
0.000128357
0.00014064
0.000159173
0.000186666
0.000226509
0.000283181
0.000361252
0.000461365
0.000575728
0.000662186
0.000755611
0.000756553
0.00055744
0.00198705
0.00236395
0.00265806
0.00331652
0.00299881
0.00263666
0.00241937
0.00213833
0.00177531
0.00138357
0.0010157
0.000708152
0.000475413
0.000320843
0.00022893
0.000175622
0.000143485
0.000123064
0.00010966
0.000100884
9.54103e-05
9.2475e-05
9.16862e-05
9.30783e-05
9.68914e-05
0.00010298
0.000111649
0.000123457
0.000139274
0.000160477
0.000187588
0.000221959
0.000265669
0.000321336
0.000391298
0.000486639
0.000521313
0.000482693
0.000400179
0.000323793
)
;

boundaryField
{
    floor
    {
        Cmu             0.09;
        kappa           0.41;
        E               9.8;
        type            epsilonWallFunction;
        value           nonuniform List<scalar> 
29
(
0.000627972
3.73844e-05
6.8653e-05
9.71661e-05
9.4644e-05
8.48429e-05
7.32568e-05
6.04955e-05
4.94601e-05
4.06942e-05
3.38361e-05
2.84443e-05
2.41607e-05
2.07322e-05
1.79426e-05
1.56014e-05
1.35412e-05
1.15961e-05
1.03337e-05
7.81131e-06
7.81131e-06
1.75334e-05
2.71359e-05
3.65895e-05
0.000627972
3.73844e-05
4.77659e-05
0.000383042
0.00111133
)
;
    }
    ceiling
    {
        Cmu             0.09;
        kappa           0.41;
        E               9.8;
        type            epsilonWallFunction;
        value           nonuniform List<scalar> 
43
(
0.00198705
0.00236395
0.00265806
0.00331652
0.00299881
0.00263666
0.00241937
0.00213833
0.00177531
0.00138357
0.0010157
0.000708152
0.000475413
0.000320843
0.00022893
0.000175622
0.000143485
0.000123064
0.00010966
0.000100884
9.54103e-05
9.2475e-05
9.16862e-05
9.30783e-05
9.68914e-05
0.00010298
0.000111649
0.000123457
0.000139274
0.000160477
0.000187588
0.000221959
0.000265669
0.000321336
0.000391298
0.000486639
0.000521313
0.000482693
0.000400179
0.000323793
0.0100421
0.0167487
0.00278002
)
;
    }
    sWall
    {
        Cmu             0.09;
        kappa           0.41;
        E               9.8;
        type            epsilonWallFunction;
        value           uniform 0.00198705;
    }
    nWall
    {
        Cmu             0.09;
        kappa           0.41;
        E               9.8;
        type            epsilonWallFunction;
        value           nonuniform List<scalar> 6(0.000172036 0.000195215 0.000287121 0.000526013 0.00055744 0.000323793);
    }
    sideWalls
    {
        type            empty;
    }
    glass1
    {
        Cmu             0.09;
        kappa           0.41;
        E               9.8;
        type            epsilonWallFunction;
        value           nonuniform List<scalar> 9(0.000441755 0.00112066 0.00204518 0.00331304 0.00505827 0.00748299 0.0102736 0.0108853 0.0100421);
    }
    glass2
    {
        Cmu             0.09;
        kappa           0.41;
        E               9.8;
        type            epsilonWallFunction;
        value           nonuniform List<scalar> 2(0.00109732 0.000914511);
    }
    sun
    {
        Cmu             0.09;
        kappa           0.41;
        E               9.8;
        type            epsilonWallFunction;
        value           nonuniform List<scalar> 
14
(
0.000441755
0.000575699
0.000607939
0.00069965
0.000792304
0.000885992
0.000984541
0.00108852
0.0011667
0.00120175
0.00117892
0.00109326
0.000953938
0.000786787
)
;
    }
    heatsource1
    {
        Cmu             0.09;
        kappa           0.41;
        E               9.8;
        type            epsilonWallFunction;
        value           nonuniform List<scalar> 3(6.85513e-05 0.000121748 0.000172036);
    }
    heatsource2
    {
        Cmu             0.09;
        kappa           0.41;
        E               9.8;
        type            epsilonWallFunction;
        value           nonuniform List<scalar> 4(0.000662354 0.000140466 0.000140466 0.000641509);
    }
    Table_master
    {
        Cmu             0.09;
        kappa           0.41;
        E               9.8;
        type            epsilonWallFunction;
        value           nonuniform List<scalar> 9(0.000177559 0.000122451 8.75211e-05 6.47472e-05 4.94202e-05 3.87862e-05 3.12168e-05 2.5743e-05 2.18033e-05);
    }
    Table_slave
    {
        Cmu             0.09;
        kappa           0.41;
        E               9.8;
        type            epsilonWallFunction;
        value           nonuniform List<scalar> 9(0.00025459 0.000192297 0.000154578 0.000129412 0.000110329 9.45618e-05 8.0928e-05 6.81212e-05 5.50645e-05);
    }
    inlet
    {
        type            turbulentMixingLengthDissipationRateInlet;
        mixingLength    0.01;
        phi             phi;
        k               k;
        value           uniform 0.000101881;
    }
    outlet
    {
        type            zeroGradient;
    }
}


// ************************************************************************* //
