/*--------------------------------*- C++ -*----------------------------------*\
  =========                 |
  \\      /  F ield         | OpenFOAM: The Open Source CFD Toolbox
   \\    /   O peration     | Website:  https://openfoam.org
    \\  /    A nd           | Version:  6
     \\/     M anipulation  |
\*---------------------------------------------------------------------------*/
FoamFile
{
    version     2.0;
    format      ascii;
    class       volScalarField;
    location    "1400";
    object      alphat;
}
// * * * * * * * * * * * * * * * * * * * * * * * * * * * * * * * * * * * * * //

dimensions      [1 -1 -1 0 0 0 0];

internalField   nonuniform List<scalar> 
459
(
0.00198216
0.00225931
0.00256737
0.00253901
0.00242472
0.00230669
0.00219333
0.00208671
0.00198583
0.00189299
0.00180617
0.00172024
0.00162967
0.00152513
0.00139914
0.000600807
0.000695093
0.000780002
0.000875112
0.000945485
0.00098129
0.00090382
0.000822646
0.000751352
0.000687009
0.000626034
0.00056596
0.000505204
0.000446302
0.000394856
0.000356684
0.0003362
0.000328024
0.000363222
0.00215745
0.00414287
0.00495175
0.00516041
0.00513166
0.00497405
0.00477282
0.00457185
0.00438189
0.00416083
0.0038891
0.00357249
0.00319974
0.00273849
0.00212703
0.00142543
0.00127186
0.000597528
0.00125039
0.00179786
0.00229908
0.00282618
0.00304582
0.00199062
0.00158526
0.00134236
0.00119491
0.00108324
0.000961548
0.000846751
0.000749723
0.000678227
0.000654683
0.000702341
0.000642023
0.00043303
0.00209928
0.00411532
0.00472493
0.00497314
0.0049921
0.00491203
0.00481468
0.00472889
0.0046553
0.00458725
0.00448298
0.00429954
0.00399634
0.00354047
0.00291926
0.00221544
0.00132009
0.000628385
0.00177527
0.00181391
0.00221087
0.00292751
0.00336321
0.00114329
0.000972544
0.00080674
0.00066429
0.000560746
0.000496906
0.000454052
0.000423636
0.000404333
0.000467993
0.000625923
0.00071004
0.000475144
0.00214579
0.00421914
0.00481269
0.00490924
0.00487628
0.00484493
0.00485324
0.0048972
0.00496688
0.00500473
0.00496005
0.00480145
0.00450893
0.00406858
0.003479
0.00277477
0.00183907
0.00129852
0.00109845
0.00115492
0.00157581
0.00242908
0.0035237
0.00420289
0.00137848
0.00130305
0.00123889
0.00118292
0.00113543
0.00108898
0.00103844
0.000979654
0.000906887
0.000748732
0.00067168
0.00072405
0.000530713
0.00304742
0.0055483
0.00547033
0.00508489
0.0049968
0.00515309
0.00542062
0.0057166
0.0059019
0.0058612
0.00566484
0.005368
0.00498591
0.00451583
0.0039613
0.00333355
0.00260022
0.00216254
0.0019643
0.00210651
0.0028205
0.00401914
0.00532323
0.00630171
0.00634271
0.00619976
0.00608288
0.00595983
0.00562337
0.0051127
0.00446246
0.00369137
0.00281527
0.00191809
0.0013039
0.0010563
0.000775834
0.000603714
0.00057616
0.000518186
0.00353813
0.00765647
0.00576647
0.00491959
0.00543932
0.00666812
0.00741561
0.00738345
0.00696735
0.00661192
0.00625904
0.00588185
0.00546621
0.00500541
0.00451636
0.00402034
0.003517
0.00329107
0.00348091
0.00429285
0.00565484
0.00710554
0.00825912
0.00892356
0.00910897
0.00909459
0.00896192
0.00860294
0.0080193
0.00722956
0.00626906
0.00517175
0.00398172
0.00282463
0.00197065
0.00153209
0.00120327
0.00100976
0.000931832
0.000567356
0.00357153
0.00804342
0.00508414
0.00582469
0.00730797
0.00803148
0.00822304
0.00800468
0.00758126
0.00719973
0.00685256
0.00650852
0.00615102
0.0057652
0.00539884
0.00512531
0.00502158
0.00545407
0.00655953
0.00813522
0.00953372
0.0105477
0.0110823
0.0111671
0.0109635
0.0106467
0.0102056
0.00961754
0.00885285
0.00791386
0.0068467
0.00568933
0.00450323
0.0034078
0.0025496
0.00200989
0.00157549
0.00132836
0.00130288
0.00064902
0.00331808
0.00586937
0.00418828
0.00607471
0.00757596
0.00835853
0.00854324
0.00848158
0.00828269
0.00801006
0.00775367
0.00752046
0.00731055
0.00713946
0.00706115
0.00718821
0.00771297
0.00882043
0.0102563
0.0115748
0.012345
0.012622
0.0124925
0.0120475
0.0114213
0.0107592
0.0100852
0.00934804
0.00851497
0.00758507
0.00658708
0.0055623
0.00456903
0.00368534
0.00297133
0.00242434
0.00197692
0.00166632
0.00208709
0.00100734
0.00291388
0.00309819
0.00357277
0.00706812
0.00753632
0.0081303
0.00844481
0.0086482
0.00876496
0.00878944
0.00875619
0.00874264
0.00877961
0.00890401
0.00917306
0.00966209
0.0104348
0.0114181
0.0123231
0.0128675
0.0129228
0.0125481
0.0118775
0.0110613
0.0102267
0.00943957
0.00869006
0.0079399
0.0071684
0.00638012
0.00559938
0.00485989
0.00419714
0.00363858
0.00318512
0.0028117
0.00250898
0.00243575
0.00351983
0.00132698
0.00288867
0.00799269
0.00802036
0.00815544
0.00839695
0.00868372
0.00896481
0.00920575
0.0093805
0.00956099
0.00978977
0.0100874
0.0104665
0.0109194
0.0113953
0.0117695
0.0119014
0.0117132
0.0112316
0.0105653
0.00983566
0.00913217
0.00849904
0.00793694
0.00742403
0.00694196
0.00648627
0.00606326
0.00568328
0.00535411
0.00507591
0.00483859
0.00462274
0.00440783
0.0041907
0.00410941
0.00478365
0.00140051
0.0028432
0.00871914
0.00885139
0.00843653
0.00826347
0.00824739
0.00829257
0.00835363
0.00841307
0.00850698
0.00866312
0.00887485
0.0091252
0.00938222
0.00959413
0.00969583
0.0096431
0.0094378
0.00912521
0.00876723
0.00841418
0.00809308
0.00781065
0.00756195
0.00734022
0.00714244
0.00696973
0.00682482
0.00670878
0.00661796
0.00654152
0.00646015
0.00634732
0.00617614
0.0059421
0.00568859
0.00505887
0.00145469
0.00109294
0.00165211
0.002077
0.00204472
0.00194699
0.0019067
0.00189673
0.00190108
0.00191385
0.00193402
0.00196247
0.00199418
0.00202555
0.00205525
0.00208132
0.00210098
0.0021111
0.00210928
0.00209563
0.00207297
0.00204588
0.00201897
0.00199523
0.00197573
0.00196029
0.00194822
0.00193889
0.00193188
0.00192699
0.00192399
0.00192252
0.00192185
0.00192082
0.00191792
0.0019123
0.00190587
0.00190276
0.00189561
0.00181916
0.00148851
)
;

boundaryField
{
    floor
    {
        type            compressible::alphatWallFunction;
        Prt             0.85;
        value           nonuniform List<scalar> 
29
(
0.000197497
8.46597e-05
9.86377e-05
0.000111028
0.000124714
0.000134729
0.000139793
0.000128803
0.000117169
0.000106835
9.74037e-05
8.83629e-05
7.93455e-05
7.01057e-05
6.10233e-05
5.29816e-05
4.69479e-05
4.36987e-05
4.24138e-05
4.81015e-05
4.81008e-05
5.91412e-05
6.56819e-05
7.41903e-05
0.000197495
8.46587e-05
8.4181e-05
8.8798e-05
0.000183802
)
;
    }
    ceiling
    {
        type            compressible::alphatWallFunction;
        Prt             0.85;
        value           nonuniform List<scalar> 
43
(
0.0001564
0.000232089
0.000287539
0.00028335
0.000270617
0.000265344
0.000264036
0.000264604
0.000266275
0.000268915
0.000272633
0.000276772
0.000280859
0.000284725
0.000288114
0.00029067
0.00029199
0.000291762
0.00029
0.000287065
0.000283551
0.000280054
0.000276964
0.000274422
0.000272407
0.000270831
0.000269611
0.000268695
0.000268055
0.000267664
0.000267472
0.000267387
0.000267254
0.000266877
0.000266145
0.000265305
0.000264901
0.000263966
0.000253925
0.000209919
0.000393801
0.000416737
0.000385174
)
;
    }
    sWall
    {
        type            compressible::alphatWallFunction;
        Prt             0.85;
        value           uniform 0.000155861;
    }
    nWall
    {
        type            compressible::alphatWallFunction;
        Prt             0.85;
        value           nonuniform List<scalar> 6(7.2171e-05 7.96378e-05 9.18847e-05 0.000197865 0.000205166 0.000209703);
    }
    sideWalls
    {
        type            empty;
    }
    glass1
    {
        type            compressible::alphatWallFunction;
        Prt             0.85;
        value           nonuniform List<scalar> 9(0.000269769 0.00029231 0.000284928 0.000291108 0.000404226 0.000463615 0.000467432 0.000436314 0.000386238);
    }
    glass2
    {
        type            compressible::alphatWallFunction;
        Prt             0.85;
        value           nonuniform List<scalar> 2(0.000143739 0.000188041);
    }
    sun
    {
        type            compressible::alphatWallFunction;
        Prt             0.85;
        value           nonuniform List<scalar> 
14
(
0.000274951
0.00031085
0.000350212
0.000346577
0.000332021
0.00031691
0.00030232
0.000288524
0.000275401
0.000263262
0.000251852
0.0002405
0.000228469
0.000214489
)
;
    }
    heatsource1
    {
        type            compressible::alphatWallFunction;
        Prt             0.85;
        value           nonuniform List<scalar> 3(8.50998e-05 8.09516e-05 7.21616e-05);
    }
    heatsource2
    {
        type            compressible::alphatWallFunction;
        Prt             0.85;
        value           nonuniform List<scalar> 4(0.000201084 0.00018018 0.000180178 0.00018677);
    }
    Table_master
    {
        type            compressible::alphatWallFunction;
        Prt             0.85;
        value           nonuniform List<scalar> 9(0.000162382 0.000138483 0.000114801 9.39967e-05 7.85476e-05 6.88447e-05 6.22411e-05 5.75075e-05 5.44843e-05);
    }
    Table_slave
    {
        type            compressible::alphatWallFunction;
        Prt             0.85;
        value           nonuniform List<scalar> 9(0.000194645 0.000184382 0.000175598 0.000167893 0.000161322 0.000154866 0.000147804 0.000139537 0.000129223);
    }
    inlet
    {
        type            fixedValue;
        value           uniform 1.94e-05;
    }
    outlet
    {
        type            zeroGradient;
    }
}


// ************************************************************************* //
