/*--------------------------------*- C++ -*----------------------------------*\
  =========                 |
  \\      /  F ield         | OpenFOAM: The Open Source CFD Toolbox
   \\    /   O peration     | Website:  https://openfoam.org
    \\  /    A nd           | Version:  6
     \\/     M anipulation  |
\*---------------------------------------------------------------------------*/
FoamFile
{
    version     2.0;
    format      ascii;
    class       volScalarField;
    location    "700";
    object      epsilon;
}
// * * * * * * * * * * * * * * * * * * * * * * * * * * * * * * * * * * * * * //

dimensions      [0 2 -3 0 0 0 0];

internalField   nonuniform List<scalar> 
459
(
0.000417644
0.000541595
0.000569644
0.00065443
0.000739552
0.000824821
0.000913285
0.00101077
0.00108767
0.00112821
0.00111764
0.00104886
0.000929261
0.000783044
0.000643241
3.51771e-05
6.61545e-05
9.13182e-05
8.6477e-05
7.63595e-05
6.53057e-05
5.39485e-05
4.43011e-05
3.66318e-05
3.06018e-05
2.58357e-05
2.2028e-05
1.89729e-05
1.64711e-05
1.43595e-05
1.24905e-05
1.07137e-05
9.58974e-06
7.28188e-06
0.00107243
0.00156705
0.000514333
0.00049757
0.000519892
0.000554949
0.000605403
0.000676136
0.000748298
0.0008013
0.000815219
0.00077922
0.000696955
0.000590608
0.000525345
0.000674038
0.000166573
4.73076e-05
0.000115759
0.000116587
0.000102449
8.49208e-05
6.9467e-05
6.0742e-05
4.91529e-05
3.91577e-05
3.12405e-05
2.51061e-05
2.03651e-05
1.67167e-05
1.39098e-05
1.18614e-05
1.06567e-05
1.01727e-05
2.42718e-05
1.67905e-05
0.00197463
0.00390119
0.000648698
0.000476452
0.000495607
0.000550801
0.000632279
0.000739358
0.000847844
0.000926081
0.000952535
0.000920192
0.000837513
0.000722809
0.00062198
0.00056418
0.000616025
0.000400118
0.000266178
0.00019179
0.000143152
0.000109893
9.00361e-05
0.000157261
0.000109523
7.90439e-05
5.90069e-05
4.54108e-05
3.59042e-05
2.90881e-05
2.41217e-05
2.05117e-05
1.56316e-05
1.30425e-05
4.33321e-05
2.61979e-05
0.00322493
0.00815638
0.00105522
0.000487886
0.000484878
0.000561587
0.000684285
0.000850888
0.00100151
0.00109309
0.0011149
0.00107001
0.00097295
0.000835803
0.000703421
0.00060154
0.000568067
0.00107765
0.000584933
0.000342595
0.000224821
0.000159072
0.00011925
0.000100377
0.00022305
0.000169927
0.000137765
0.000116317
9.99773e-05
8.62631e-05
7.43511e-05
6.30667e-05
5.14193e-05
3.0648e-05
2.00715e-05
6.71195e-05
3.54437e-05
0.00495827
0.0145642
0.00213584
0.000601423
0.000505702
0.00059845
0.000804019
0.00107566
0.0012581
0.00133603
0.00132897
0.00125357
0.00112267
0.00095269
0.000771027
0.00060295
0.000469483
0.000399313
0.000313198
0.000238773
0.000181285
0.000139267
0.000109728
9.13414e-05
8.80944e-05
8.22927e-05
7.65561e-05
7.09081e-05
6.4874e-05
5.83066e-05
5.18013e-05
4.56591e-05
4.00327e-05
3.21202e-05
2.46e-05
4.95817e-05
3.92652e-05
6.77872e-05
0.0001206
0.000169765
0.00737644
0.0216019
0.00484453
0.00121761
0.000795573
0.000865553
0.00126805
0.00157648
0.00169593
0.00169954
0.00163272
0.00150899
0.00132958
0.00110616
0.000865545
0.000640856
0.000461692
0.000342076
0.000263282
0.000204457
0.000158249
0.000124053
0.000100709
8.68298e-05
8.11372e-05
7.92579e-05
7.82687e-05
7.66183e-05
7.32764e-05
6.73826e-05
5.897e-05
5.01978e-05
4.21714e-05
3.50296e-05
3.02833e-05
3.8795e-05
4.0372e-05
5.10269e-05
0.000222173
0.000191727
0.0101866
0.0257974
0.00995808
0.00402127
0.00266437
0.00241728
0.00258933
0.00255318
0.00241316
0.00224522
0.00206477
0.0018545
0.00159626
0.00129477
0.000980455
0.000693671
0.000471164
0.000324648
0.000234836
0.000176493
0.000135777
0.000108672
9.27006e-05
8.55217e-05
8.48368e-05
8.75775e-05
9.12527e-05
9.46171e-05
9.66288e-05
9.56888e-05
8.86812e-05
7.79256e-05
6.72959e-05
5.82454e-05
5.43855e-05
6.00246e-05
7.54365e-05
0.000120057
0.000283507
0.000274759
0.0108173
0.028173
0.0156721
0.0106586
0.00793413
0.00621002
0.0048896
0.00397614
0.00336987
0.00295498
0.00262284
0.00228995
0.00191088
0.00149143
0.00107566
0.000710982
0.000444214
0.000281514
0.000189062
0.000140486
0.000111915
9.58105e-05
8.86558e-05
8.80176e-05
9.19907e-05
9.89325e-05
0.000107856
0.000118588
0.000131251
0.000145714
0.000160916
0.000168998
0.000176196
0.000192881
0.000228666
0.000339408
0.000623404
0.00118842
0.00358677
0.00107392
0.00998718
0.0167278
0.0133513
0.010124
0.0077771
0.00619149
0.00515318
0.00449111
0.00404859
0.00367878
0.00327303
0.00277915
0.00219346
0.00158114
0.0010329
0.000586031
0.000322852
0.000202275
0.00014247
0.000111308
9.47442e-05
8.71839e-05
8.5734e-05
8.86465e-05
9.48887e-05
0.000103965
0.000115972
0.000131629
0.000152208
0.000179527
0.000215993
0.00026518
0.000332754
0.000436018
0.000589565
0.000800989
0.00104736
0.00126718
0.00143524
0.000900077
0.0038091
0.00586851
0.00652018
0.00653551
0.00628383
0.00588082
0.00529893
0.00453824
0.00365422
0.00272545
0.00175061
0.000970396
0.000531421
0.000293647
0.000178909
0.000126858
0.000101603
8.87084e-05
8.24211e-05
8.00554e-05
8.02598e-05
8.24331e-05
8.64566e-05
9.24923e-05
0.000101063
0.000113078
0.000129906
0.000153544
0.000186913
0.000234263
0.000300488
0.000392477
0.000514155
0.000655798
0.000781945
0.00084258
0.000807956
0.000519928
0.00283342
0.00631246
0.00699923
0.00580995
0.00524115
0.00465236
0.00380437
0.00286636
0.00200803
0.00131635
0.000810847
0.000469409
0.000279379
0.000184651
0.000142233
0.000124649
0.000117424
0.000114204
0.000112325
0.000110917
0.000109818
0.00010941
0.000110318
0.000112947
0.000117857
0.000125859
0.000138157
0.000156539
0.000183663
0.000222866
0.000278549
0.000355294
0.000453921
0.000566622
0.000653379
0.000748468
0.000746653
0.000550754
0.00198923
0.00236675
0.00266253
0.00329405
0.00296203
0.00258145
0.00234888
0.00208101
0.00174568
0.00137674
0.00101979
0.000713412
0.000478373
0.000316009
0.000216905
0.000160754
0.000128915
0.000110226
9.8948e-05
9.21851e-05
8.84784e-05
8.70241e-05
8.76643e-05
9.04218e-05
9.49889e-05
0.000101612
0.000110666
0.000122698
0.000138545
0.000159579
0.000186397
0.000220167
0.000262914
0.000317226
0.000385524
0.000478065
0.000514305
0.000477845
0.000396139
0.000321197
)
;

boundaryField
{
    floor
    {
        Cmu             0.09;
        kappa           0.41;
        E               9.8;
        type            epsilonWallFunction;
        value           nonuniform List<scalar> 
29
(
0.000643241
3.51771e-05
6.61545e-05
9.13182e-05
8.6477e-05
7.63595e-05
6.53057e-05
5.39485e-05
4.43011e-05
3.66318e-05
3.06018e-05
2.58357e-05
2.2028e-05
1.89729e-05
1.64711e-05
1.43595e-05
1.24905e-05
1.07137e-05
9.58974e-06
7.28188e-06
7.28188e-06
1.67905e-05
2.61979e-05
3.54437e-05
0.000643241
3.51771e-05
4.73076e-05
0.000400118
0.00107765
)
;
    }
    ceiling
    {
        Cmu             0.09;
        kappa           0.41;
        E               9.8;
        type            epsilonWallFunction;
        value           nonuniform List<scalar> 
43
(
0.00198923
0.00236675
0.00266253
0.00329405
0.00296203
0.00258145
0.00234888
0.00208101
0.00174568
0.00137674
0.00101979
0.000713412
0.000478373
0.000316009
0.000216905
0.000160754
0.000128915
0.000110226
9.8948e-05
9.21851e-05
8.84784e-05
8.70241e-05
8.76643e-05
9.04218e-05
9.49889e-05
0.000101612
0.000110666
0.000122698
0.000138545
0.000159579
0.000186397
0.000220167
0.000262914
0.000317226
0.000385524
0.000478065
0.000514305
0.000477845
0.000396139
0.000321197
0.00998718
0.0167278
0.00283342
)
;
    }
    sWall
    {
        Cmu             0.09;
        kappa           0.41;
        E               9.8;
        type            epsilonWallFunction;
        value           uniform 0.00198923;
    }
    nWall
    {
        Cmu             0.09;
        kappa           0.41;
        E               9.8;
        type            epsilonWallFunction;
        value           nonuniform List<scalar> 6(0.000169765 0.000191727 0.000274759 0.000519928 0.000550754 0.000321197);
    }
    sideWalls
    {
        type            empty;
    }
    glass1
    {
        Cmu             0.09;
        kappa           0.41;
        E               9.8;
        type            epsilonWallFunction;
        value           nonuniform List<scalar> 9(0.000417644 0.00107243 0.00197463 0.00322493 0.00495827 0.00737644 0.0101866 0.0108173 0.00998718);
    }
    glass2
    {
        Cmu             0.09;
        kappa           0.41;
        E               9.8;
        type            epsilonWallFunction;
        value           nonuniform List<scalar> 2(0.00107392 0.000900077);
    }
    sun
    {
        Cmu             0.09;
        kappa           0.41;
        E               9.8;
        type            epsilonWallFunction;
        value           nonuniform List<scalar> 
14
(
0.000417644
0.000541595
0.000569644
0.00065443
0.000739552
0.000824821
0.000913285
0.00101077
0.00108767
0.00112821
0.00111764
0.00104886
0.000929261
0.000783044
)
;
    }
    heatsource1
    {
        Cmu             0.09;
        kappa           0.41;
        E               9.8;
        type            epsilonWallFunction;
        value           nonuniform List<scalar> 3(6.77872e-05 0.0001206 0.000169765);
    }
    heatsource2
    {
        Cmu             0.09;
        kappa           0.41;
        E               9.8;
        type            epsilonWallFunction;
        value           nonuniform List<scalar> 4(0.000674038 0.000166573 0.000166573 0.000616025);
    }
    Table_master
    {
        Cmu             0.09;
        kappa           0.41;
        E               9.8;
        type            epsilonWallFunction;
        value           nonuniform List<scalar> 9(0.000157261 0.000109523 7.90439e-05 5.90069e-05 4.54108e-05 3.59042e-05 2.90881e-05 2.41217e-05 2.05117e-05);
    }
    Table_slave
    {
        Cmu             0.09;
        kappa           0.41;
        E               9.8;
        type            epsilonWallFunction;
        value           nonuniform List<scalar> 9(0.00022305 0.000169927 0.000137765 0.000116317 9.99773e-05 8.62631e-05 7.43511e-05 6.30667e-05 5.14193e-05);
    }
    inlet
    {
        type            turbulentMixingLengthDissipationRateInlet;
        mixingLength    0.01;
        phi             phi;
        k               k;
        value           uniform 0.000101881;
    }
    outlet
    {
        type            zeroGradient;
    }
}


// ************************************************************************* //
