// -*- C++ -*-
// File generated by PyFoam - sorry for the ugliness

FoamFile
{
 version 2.0;
 format ascii;
 class volScalarField;
 location "100";
 object T;
}

dimensions [ 0 0 0 1 0 0 0 ];

internalField nonuniform List<scalar> 459
(
  304.614
  304.491
  304.486
  304.487
  304.493
  304.516
  304.628
  304.698
  304.745
  304.775
  304.792
  304.802
  304.809
  304.813
  304.805
  305.55
  305.49
  305.451
  305.444
  305.479
  305.509
  305.531
  305.551
  305.57
  305.59
  305.61
  305.63
  305.65
  305.671
  305.693
  305.716
  305.742
  305.779
  305.85
  304.681
  304.5
  304.474
  304.463
  304.459
  304.488
  304.628
  304.751
  304.84
  304.896
  304.924
  304.932
  304.927
  304.907
  304.87
  304.878
  304.889
  305.586
  305.487
  305.399
  305.413
  305.459
  305.507
  305.537
  305.566
  305.594
  305.622
  305.651
  305.68
  305.709
  305.738
  305.764
  305.786
  305.805
  305.827
  305.894
  304.749
  304.513
  304.468
  304.442
  304.419
  304.447
  304.621
  304.799
  304.937
  305.021
  305.058
  305.062
  305.045
  305.011
  304.963
  304.937
  304.921
  305.523
  305.316
  305.314
  305.373
  305.454
  305.529
  305.549
  305.575
  305.604
  305.636
  305.67
  305.707
  305.744
  305.781
  305.813
  305.841
  305.857
  305.869
  305.923
  304.82
  304.54
  304.48
  304.444
  304.386
  304.411
  304.61
  304.852
  305.048
  305.167
  305.216
  305.214
  305.181
  305.128
  305.064
  305.011
  304.969
  304.981
  305.084
  305.148
  305.255
  305.385
  305.515
  305.625
  305.715
  305.784
  305.841
  305.897
  305.95
  306.002
  306.053
  306.104
  306.152
  306.067
  305.993
  305.946
  305.961
  304.892
  304.582
  304.517
  304.47
  304.358
  304.378
  304.607
  304.917
  305.178
  305.335
  305.394
  305.384
  305.331
  305.258
  305.179
  305.112
  305.064
  305.069
  305.122
  305.23
  305.379
  305.542
  305.694
  305.823
  305.932
  306.015
  306.085
  306.142
  306.188
  306.226
  306.255
  306.277
  306.285
  306.224
  306.126
  306.044
  306.009
  306.04
  306.24
  307.289
  304.964
  304.642
  304.581
  304.493
  304.331
  304.345
  304.619
  305.005
  305.334
  305.526
  305.589
  305.566
  305.491
  305.401
  305.316
  305.251
  305.218
  305.252
  305.35
  305.493
  305.658
  305.823
  305.97
  306.09
  306.185
  306.26
  306.315
  306.355
  306.384
  306.405
  306.418
  306.42
  306.405
  306.345
  306.251
  306.17
  306.094
  306.108
  306.406
  307.037
  305.052
  304.733
  304.689
  304.502
  304.274
  304.309
  304.662
  305.137
  305.532
  305.747
  305.799
  305.754
  305.665
  305.575
  305.501
  305.46
  305.469
  305.551
  305.69
  305.851
  306.014
  306.164
  306.289
  306.384
  306.455
  306.502
  306.529
  306.547
  306.558
  306.562
  306.558
  306.543
  306.513
  306.451
  306.364
  306.287
  306.176
  306.182
  306.474
  306.928
  305.167
  304.931
  304.816
  304.427
  304.144
  304.276
  304.773
  305.355
  305.798
  306.003
  306.021
  305.963
  305.886
  305.819
  305.776
  305.776
  305.835
  305.957
  306.113
  306.264
  306.402
  306.518
  306.609
  306.671
  306.703
  306.715
  306.719
  306.717
  306.712
  306.701
  306.684
  306.658
  306.62
  306.564
  306.493
  306.412
  306.275
  306.268
  306.488
  306.922
  305.336
  305.213
  304.755
  304.029
  303.856
  304.303
  305.065
  305.739
  306.159
  306.272
  306.272
  306.23
  306.187
  306.161
  306.162
  306.202
  306.289
  306.418
  306.559
  306.68
  306.775
  306.845
  306.889
  306.908
  306.911
  306.904
  306.893
  306.88
  306.864
  306.844
  306.821
  306.792
  306.757
  306.713
  306.661
  306.592
  306.447
  306.412
  306.563
  306.938
  300.77
  301.891
  303.414
  304.777
  305.885
  306.349
  306.525
  306.572
  306.571
  306.561
  306.557
  306.569
  306.602
  306.662
  306.747
  306.847
  306.941
  307.016
  307.066
  307.094
  307.104
  307.101
  307.09
  307.074
  307.056
  307.037
  307.016
  306.994
  306.97
  306.944
  306.915
  306.881
  306.838
  306.778
  306.69
  306.638
  306.732
  306.931
  305.19
  305.463
  305.864
  306.275
  306.596
  306.764
  306.831
  306.858
  306.872
  306.887
  306.908
  306.939
  306.981
  307.034
  307.095
  307.155
  307.205
  307.239
  307.257
  307.261
  307.255
  307.242
  307.224
  307.205
  307.184
  307.163
  307.141
  307.118
  307.094
  307.069
  307.041
  307.01
  306.972
  306.927
  306.877
  306.848
  306.903
  306.978
  306.672
  306.617
  306.575
  306.675
  306.832
  306.965
  307.054
  307.101
  307.133
  307.16
  307.186
  307.212
  307.24
  307.27
  307.3
  307.331
  307.358
  307.38
  307.393
  307.397
  307.393
  307.383
  307.368
  307.351
  307.332
  307.312
  307.291
  307.27
  307.248
  307.226
  307.203
  307.179
  307.155
  307.128
  307.101
  307.073
  307.046
  307.033
  307.057
  307.09
)
;

boundaryField
{
  floor
  {
    type wallHeatTransfer;
    Tinf uniform 298.85;
    alphaWall uniform 0.24;
    value nonuniform List<scalar> 29
(
  304.186
  304.577
  304.657
  304.687
  304.729
  304.771
  304.785
  304.768
  304.741
  304.714
  304.689
  304.666
  304.646
  304.629
  304.613
  304.598
  304.583
  304.566
  304.533
  304.529
  304.529
  304.701
  304.812
  304.94
  304.186
  304.577
  304.782
  304.788
  304.349
)
;
  }
  ceiling
  {
    type wallHeatTransfer;
    Tinf uniform 298.85;
    alphaWall uniform 0.24;
    value nonuniform List<scalar> 43
(
  306.047
  306.051
  306.077
  306.216
  306.378
  306.496
  306.565
  306.6
  306.623
  306.645
  306.668
  306.694
  306.722
  306.752
  306.784
  306.815
  306.842
  306.863
  306.874
  306.875
  306.867
  306.854
  306.836
  306.817
  306.796
  306.775
  306.755
  306.735
  306.715
  306.696
  306.677
  306.658
  306.636
  306.611
  306.583
  306.555
  306.542
  306.555
  306.597
  306.595
  304.994
  304.903
  304.837
)
;
  }
  sWall
  {
    type wallHeatTransfer;
    Tinf uniform 311.144;
    alphaWall uniform 0.36;
    value uniform 307.19;
  }
  nWall
  {
    type wallHeatTransfer;
    Tinf uniform 299.15;
    alphaWall uniform 0.36;
    value nonuniform List<scalar> 6
(
  306.23
  306.199
  306.28
  306.423
  306.391
  306.396
)
;
  }
  sideWalls
  {
    type empty;
  }
  glass1
  {
    type wallHeatTransfer;
    Tinf uniform 311.144;
    alphaWall uniform 4.3;
    value nonuniform List<scalar> 9
(
  308.889
  308.62
  308.429
  308.275
  308.147
  308.049
  308.037
  308.109
  308.25
)
;
  }
  glass2
  {
    type wallHeatTransfer;
    Tinf uniform 299.15;
    alphaWall uniform 4.3;
    value nonuniform List<scalar> 2
(
  303.45
  303.66
)
;
  }
  sun
  {
    type wallHeatTransfer;
    Tinf uniform 298.85;
    alphaWall uniform 0.24;
    value nonuniform List<scalar> 14
(
  304.069
  304.009
  304.026
  304.055
  304.085
  304.12
  304.224
  304.277
  304.304
  304.312
  304.305
  304.288
  304.268
  304.238
)
;
  }
  heatsource1
  {
    type fixedGradient;
    gradient uniform 0;
  }
  heatsource2
  {
    type fixedGradient;
    gradient uniform 0;
  }
  Table_master
  {
    type zeroGradient;
  }
  Table_slave
  {
    type zeroGradient;
  }
  inlet
  {
    type fixedValue;
    value uniform 300.15;
  }
  outlet
  {
    type zeroGradient;
  }
} 	// ************************************************************************* //

