// -*- C++ -*-
// File generated by PyFoam - sorry for the ugliness

FoamFile
{
 version 2.0;
 format ascii;
 class volScalarField;
 location "1500";
 object T;
}

dimensions [ 0 0 0 1 0 0 0 ];

internalField nonuniform List<scalar> 459
(
  302.728
  302.468
  302.458
  302.458
  302.458
  302.457
  302.454
  302.452
  302.454
  302.469
  302.496
  302.51
  302.517
  302.523
  302.534
  302.951
  302.911
  302.883
  302.887
  302.909
  302.93
  302.947
  302.963
  302.979
  302.995
  303.011
  303.027
  303.044
  303.062
  303.08
  303.1
  303.122
  303.151
  303.202
  302.891
  302.498
  302.473
  302.475
  302.476
  302.474
  302.463
  302.447
  302.444
  302.463
  302.498
  302.521
  302.532
  302.534
  302.535
  302.535
  302.533
  302.96
  302.872
  302.84
  302.854
  302.885
  302.915
  302.932
  302.947
  302.961
  302.976
  302.991
  303.007
  303.024
  303.042
  303.06
  303.081
  303.107
  303.14
  303.199
  303.067
  302.545
  302.505
  302.513
  302.522
  302.52
  302.49
  302.451
  302.435
  302.46
  302.505
  302.541
  302.56
  302.562
  302.557
  302.552
  302.544
  302.912
  302.82
  302.805
  302.839
  302.892
  302.94
  302.948
  302.958
  302.97
  302.984
  302.999
  303.016
  303.034
  303.054
  303.073
  303.096
  303.119
  303.15
  303.205
  303.248
  302.609
  302.549
  302.571
  302.598
  302.594
  302.529
  302.456
  302.426
  302.454
  302.513
  302.568
  302.6
  302.605
  302.598
  302.586
  302.57
  302.581
  302.612
  302.673
  302.759
  302.856
  302.947
  303.02
  303.078
  303.122
  303.16
  303.195
  303.228
  303.26
  303.29
  303.32
  303.346
  303.262
  303.205
  303.187
  303.22
  303.429
  302.693
  302.61
  302.644
  302.7
  302.678
  302.563
  302.456
  302.416
  302.449
  302.527
  302.608
  302.66
  302.674
  302.666
  302.651
  302.639
  302.657
  302.705
  302.787
  302.887
  302.992
  303.089
  303.17
  303.239
  303.291
  303.335
  303.371
  303.398
  303.419
  303.433
  303.439
  303.434
  303.37
  303.284
  303.232
  303.239
  303.49
  303.605
  303.584
  303.598
  302.806
  302.706
  302.74
  302.809
  302.729
  302.573
  302.443
  302.399
  302.447
  302.555
  302.669
  302.747
  302.777
  302.775
  302.763
  302.764
  302.803
  302.879
  302.976
  303.082
  303.185
  303.275
  303.349
  303.409
  303.457
  303.492
  303.519
  303.538
  303.548
  303.55
  303.54
  303.517
  303.456
  303.366
  303.292
  303.27
  303.386
  303.448
  303.509
  303.768
  302.983
  302.893
  302.939
  302.91
  302.736
  302.526
  302.386
  302.366
  302.455
  302.612
  302.77
  302.879
  302.931
  302.934
  302.931
  302.953
  303.016
  303.11
  303.211
  303.31
  303.4
  303.475
  303.534
  303.58
  303.612
  303.634
  303.65
  303.659
  303.66
  303.652
  303.632
  303.599
  303.541
  303.461
  303.382
  303.34
  303.375
  303.412
  303.461
  303.998
  303.418
  303.308
  303.225
  302.954
  302.617
  302.359
  302.262
  302.327
  302.5
  302.732
  302.941
  303.075
  303.126
  303.135
  303.15
  303.192
  303.271
  303.369
  303.463
  303.543
  303.611
  303.663
  303.702
  303.728
  303.744
  303.754
  303.759
  303.758
  303.75
  303.735
  303.711
  303.678
  303.625
  303.563
  303.499
  303.466
  303.491
  303.521
  303.632
  304.337
  304.052
  303.831
  303.24
  302.526
  302.078
  301.953
  302.085
  302.365
  302.672
  302.994
  303.221
  303.309
  303.342
  303.366
  303.401
  303.458
  303.534
  303.617
  303.69
  303.749
  303.791
  303.82
  303.838
  303.847
  303.851
  303.849
  303.841
  303.827
  303.807
  303.786
  303.764
  303.744
  303.73
  303.726
  303.737
  303.766
  303.801
  303.821
  303.886
  295.407
  296.47
  298.534
  300.207
  301.402
  302.288
  302.932
  303.229
  303.394
  303.484
  303.534
  303.57
  303.606
  303.651
  303.706
  303.767
  303.826
  303.874
  303.908
  303.93
  303.941
  303.944
  303.94
  303.932
  303.919
  303.903
  303.883
  303.863
  303.843
  303.825
  303.811
  303.803
  303.804
  303.817
  303.844
  303.886
  303.95
  304.072
  296.723
  299.236
  301.156
  302.211
  302.845
  303.234
  303.459
  303.588
  303.666
  303.719
  303.758
  303.795
  303.832
  303.872
  303.914
  303.955
  303.989
  304.014
  304.029
  304.035
  304.033
  304.026
  304.015
  304.001
  303.984
  303.965
  303.946
  303.925
  303.906
  303.888
  303.872
  303.861
  303.856
  303.861
  303.877
  303.92
  303.971
  304.05
  303.854
  301.292
  300.656
  302.513
  303.242
  303.526
  303.677
  303.778
  303.85
  303.902
  303.942
  303.975
  304.004
  304.029
  304.053
  304.074
  304.093
  304.109
  304.119
  304.123
  304.122
  304.117
  304.108
  304.097
  304.083
  304.069
  304.053
  304.036
  304.018
  304
  303.981
  303.963
  303.945
  303.929
  303.916
  303.91
  303.92
  303.945
  303.978
  304.077
)
;

boundaryField
{
  floor
  {
    type wallHeatTransfer;
    Tinf uniform 305.2;
    alphaWall uniform 0.24;
    value nonuniform List<scalar> 29
(
  302.827
  303.325
  303.252
  303.19
  303.174
  303.19
  303.213
  303.241
  303.271
  303.3
  303.329
  303.357
  303.385
  303.412
  303.439
  303.465
  303.493
  303.525
  303.563
  303.63
  303.63
  303.595
  303.583
  303.583
  302.827
  303.325
  303.338
  303.254
  302.826
)
;
  }
  ceiling
  {
    type wallHeatTransfer;
    Tinf uniform 303.2;
    alphaWall uniform 0.24;
    value nonuniform List<scalar> 43
(
  303.81
  301.416
  300.815
  302.553
  303.239
  303.504
  303.642
  303.734
  303.796
  303.841
  303.874
  303.902
  303.927
  303.949
  303.969
  303.988
  304.003
  304.015
  304.021
  304.022
  304.018
  304.011
  304.001
  303.989
  303.975
  303.96
  303.945
  303.929
  303.913
  303.898
  303.882
  303.868
  303.855
  303.844
  303.836
  303.834
  303.844
  303.863
  303.889
  303.973
  304.285
  304.018
  297.122
)
;
  }
  sWall
  {
    type wallHeatTransfer;
    Tinf uniform 315.2;
    alphaWall uniform 0.36;
    value uniform 304.989;
  }
  nWall
  {
    type wallHeatTransfer;
    Tinf uniform 307.2;
    alphaWall uniform 0.36;
    value nonuniform List<scalar> 6
(
  304.275
  304.194
  304.092
  304.528
  304.5
  304.6
)
;
  }
  sideWalls
  {
    type empty;
  }
  glass1
  {
    type wallHeatTransfer;
    Tinf uniform 315.2;
    alphaWall uniform 4.3;
    value nonuniform List<scalar> 9
(
  310.864
  310.252
  309.869
  309.581
  309.342
  309.129
  309
  309.096
  309.351
)
;
  }
  glass2
  {
    type wallHeatTransfer;
    Tinf uniform 307.2;
    alphaWall uniform 4.3;
    value nonuniform List<scalar> 2
(
  305.875
  306.011
)
;
  }
  sun
  {
    type wallHeatTransfer;
    Tinf uniform 305.2;
    alphaWall uniform 0.24;
    value nonuniform List<scalar> 14
(
  302.957
  302.703
  302.688
  302.678
  302.668
  302.659
  302.65
  302.645
  302.648
  302.666
  302.705
  302.733
  302.76
  302.788
)
;
  }
  heatsource1
  {
    type fixedGradient;
    gradient uniform 0;
  }
  heatsource2
  {
    type fixedGradient;
    gradient uniform 0;
  }
  Table_master
  {
    type zeroGradient;
  }
  Table_slave
  {
    type zeroGradient;
  }
  inlet
  {
    type fixedValue;
    value uniform 293.15;
  }
  outlet
  {
    type zeroGradient;
  }
} 	// ************************************************************************* //

