// -*- C++ -*-
// File generated by PyFoam - sorry for the ugliness

FoamFile
{
 version 2.0;
 format ascii;
 class volVectorField;
 location "1500";
 object U;
}

dimensions [ 0 1 -1 0 0 0 0 ];

internalField nonuniform List<vector> 459
(
  (0.0174055 0.0908199 0)
  (-0.181142 0.0275886 0)
  (-0.211524 0.0126173 0)
  (-0.236607 0.00100532 0)
  (-0.242764 -0.0114313 0)
  (-0.227136 -0.0247596 0)
  (-0.191456 -0.0383439 0)
  (-0.140086 -0.0492163 0)
  (-0.0812775 -0.0548905 0)
  (-0.0214012 -0.0526935 0)
  (0.0348704 -0.0367531 0)
  (0.0644849 -0.0223763 0)
  (0.0805794 -0.00786241 0)
  (0.0765372 0.0104394 0)
  (0.0567252 0.0450909 0)
  (-0.0255044 0.0156516 0)
  (-0.0483821 -0.0131244 0)
  (-0.024287 -0.0290547 0)
  (0.00250247 -0.0311402 0)
  (0.0300987 -0.024406 0)
  (0.0516329 -0.0172771 0)
  (0.0666186 -0.0100476 0)
  (0.0753901 -0.0061159 0)
  (0.0796385 -0.00459197 0)
  (0.0818331 -0.00395843 0)
  (0.083378 -0.00354695 0)
  (0.0845771 -0.00319526 0)
  (0.0853308 -0.00279931 0)
  (0.0853035 -0.00212561 0)
  (0.0836951 -0.000688943 0)
  (0.078908 0.00219024 0)
  (0.0690919 0.00590946 0)
  (0.0542117 0.0111234 0)
  (0.0109319 0.0269476 0)
  (0.185261 0.188064 0)
  (-0.162446 0.0797164 0)
  (-0.169613 0.0520352 0)
  (-0.196603 0.0272247 0)
  (-0.204219 -0.00137947 0)
  (-0.190445 -0.0331657 0)
  (-0.158265 -0.063006 0)
  (-0.113407 -0.0838203 0)
  (-0.0639292 -0.09169 0)
  (-0.0163858 -0.0845994 0)
  (0.0261559 -0.0615151 0)
  (0.0540052 -0.0358203 0)
  (0.0721513 -0.00906649 0)
  (0.0820387 0.0192301 0)
  (0.0853284 0.0520448 0)
  (0.0847812 0.0517421 0)
  (0.0561532 0.0517008 0)
  (0.0330106 0.0481017 0)
  (0.00455528 -0.0154088 0)
  (0.0274098 -0.0421928 0)
  (0.0425381 -0.04327 0)
  (0.0571996 -0.0358726 0)
  (0.0695845 -0.0255567 0)
  (0.0757371 -0.0118049 0)
  (0.0774219 -0.0035828 0)
  (0.0775381 -0.000446173 0)
  (0.077775 0.000699062 0)
  (0.0781877 0.00128677 0)
  (0.0785165 0.0017146 0)
  (0.0787006 0.00230888 0)
  (0.0786631 0.00359072 0)
  (0.0777392 0.00659481 0)
  (0.0731086 0.0142568 0)
  (0.0617748 0.0219554 0)
  (0.0485108 0.0306632 0)
  (-0.0227638 0.0557077 0)
  (0.338897 0.280789 0)
  (-0.170127 0.124285 0)
  (-0.128657 0.0829008 0)
  (-0.15558 0.0410998 0)
  (-0.162626 -0.00619889 0)
  (-0.14739 -0.0568129 0)
  (-0.11582 -0.101907 0)
  (-0.0762731 -0.129677 0)
  (-0.0357698 -0.136415 0)
  (0.00127311 -0.121923 0)
  (0.0317733 -0.091951 0)
  (0.0548296 -0.0576444 0)
  (0.0709255 -0.0227905 0)
  (0.0811353 0.0116343 0)
  (0.0863173 0.0431823 0)
  (0.0818649 0.0588928 0)
  (0.0675627 0.0923106 0)
  (0.100292 0.00133131 0)
  (0.0760494 -0.0365374 0)
  (0.0761999 -0.0520846 0)
  (0.0800114 -0.0525278 0)
  (0.0837978 -0.0449417 0)
  (0.0881281 -0.036091 0)
  (0.0874678 -0.0274176 0)
  (0.0779678 -0.0179057 0)
  (0.070616 -0.012745 0)
  (0.0671766 -0.00983729 0)
  (0.0654837 -0.00796855 0)
  (0.0642461 -0.00667797 0)
  (0.0633463 -0.00561948 0)
  (0.063513 -0.00415354 0)
  (0.0665046 0.000229602 0)
  (0.0643175 0.0200257 0)
  (0.0508292 0.0348007 0)
  (0.0453451 0.0486299 0)
  (-0.0568967 0.0838481 0)
  (0.478437 0.355207 0)
  (-0.195304 0.163099 0)
  (-0.0864901 0.110846 0)
  (-0.111628 0.0549542 0)
  (-0.113415 -0.0101547 0)
  (-0.0918142 -0.0803632 0)
  (-0.0598766 -0.138365 0)
  (-0.0275524 -0.169019 0)
  (0.00243558 -0.172057 0)
  (0.026905 -0.15135 0)
  (0.0466572 -0.116191 0)
  (0.0622608 -0.0753677 0)
  (0.0734886 -0.0346838 0)
  (0.0819438 0.00330372 0)
  (0.0899076 0.0368115 0)
  (0.100804 0.0624587 0)
  (0.118798 0.0947956 0)
  (0.15069 0.0826919 0)
  (0.139594 0.0164705 0)
  (0.124432 -0.0240309 0)
  (0.113585 -0.0429327 0)
  (0.10421 -0.0468861 0)
  (0.0959064 -0.0417351 0)
  (0.088793 -0.0315129 0)
  (0.0879771 -0.0181287 0)
  (0.0944927 -0.0111604 0)
  (0.0981149 -0.00718152 0)
  (0.097221 -0.00451993 0)
  (0.0937205 -0.00237667 0)
  (0.0884073 -0.000350742 0)
  (0.080897 0.00191274 0)
  (0.0700469 0.00493239 0)
  (0.0514621 0.0096819 0)
  (0.0396181 0.032046 0)
  (0.0311638 0.0491196 0)
  (0.0435843 0.0653052 0)
  (-0.0931704 0.105812 0)
  (0.600366 0.412269 0)
  (-0.229633 0.193578 0)
  (-0.0456466 0.127864 0)
  (-0.0642104 0.0626996 0)
  (-0.0507839 -0.0189437 0)
  (-0.0194537 -0.106474 0)
  (0.0102054 -0.170176 0)
  (0.0314983 -0.196259 0)
  (0.0468782 -0.193273 0)
  (0.0576215 -0.168439 0)
  (0.0651177 -0.129461 0)
  (0.0702016 -0.0849275 0)
  (0.0736074 -0.0416652 0)
  (0.0773527 -0.00351616 0)
  (0.0832529 0.0280026 0)
  (0.0939844 0.049229 0)
  (0.111912 0.0569538 0)
  (0.125836 0.0219989 0)
  (0.125116 -0.0111078 0)
  (0.117773 -0.0284863 0)
  (0.106759 -0.0361725 0)
  (0.0943705 -0.0368994 0)
  (0.0825904 -0.0320899 0)
  (0.0728577 -0.0228829 0)
  (0.0675043 -0.00950963 0)
  (0.0660002 -0.0012798 0)
  (0.0639035 0.00292384 0)
  (0.061022 0.00539917 0)
  (0.0578263 0.00753213 0)
  (0.0544127 0.0100305 0)
  (0.0503514 0.0134349 0)
  (0.0451616 0.018328 0)
  (0.0374508 0.0254739 0)
  (0.030629 0.0400687 0)
  (0.0242719 0.0568695 0)
  (0.0506797 0.0770863 0)
  (-0.0222238 0.11328 0)
  (0.0463602 0.0357067 0)
  (-0.0598696 -0.0335071 0)
  (-0.267537 -0.0554208 0)
  (0.693294 0.458003 0)
  (-0.265537 0.211832 0)
  (-0.0116764 0.123378 0)
  (-0.0095614 0.0548213 0)
  (0.0347633 -0.050739 0)
  (0.0677414 -0.136438 0)
  (0.0878528 -0.189195 0)
  (0.0958965 -0.208151 0)
  (0.095294 -0.199337 0)
  (0.0893849 -0.170439 0)
  (0.0809758 -0.129001 0)
  (0.0722973 -0.0831969 0)
  (0.0649759 -0.0402302 0)
  (0.0607797 -0.00458335 0)
  (0.0611591 0.0218289 0)
  (0.0680072 0.0363337 0)
  (0.0808143 0.0367062 0)
  (0.0905224 0.0173449 0)
  (0.091433 -0.00154959 0)
  (0.0852039 -0.0149628 0)
  (0.0747083 -0.0222891 0)
  (0.0627804 -0.0238395 0)
  (0.0511893 -0.0206123 0)
  (0.0412752 -0.0137936 0)
  (0.0343366 -0.0048521 0)
  (0.030114 0.00136903 0)
  (0.0277035 0.00459964 0)
  (0.0261333 0.00643847 0)
  (0.0252558 0.00824789 0)
  (0.025012 0.010865 0)
  (0.0252385 0.0149232 0)
  (0.0258305 0.02096 0)
  (0.0262923 0.0292522 0)
  (0.0281026 0.0406536 0)
  (0.02956 0.055051 0)
  (0.0583399 0.0762508 0)
  (0.0415316 0.098733 0)
  (0.0877449 0.0664518 0)
  (0.112881 0.0430319 0)
  (-0.129736 -0.00666985 0)
  (0.766472 0.498638 0)
  (-0.281429 0.192505 0)
  (0.0329851 0.0560378 0)
  (0.0869874 -0.0129092 0)
  (0.140167 -0.0982179 0)
  (0.166498 -0.163506 0)
  (0.172632 -0.198675 0)
  (0.162341 -0.204334 0)
  (0.140569 -0.186746 0)
  (0.113335 -0.15374 0)
  (0.0854316 -0.111585 0)
  (0.0606545 -0.0672705 0)
  (0.0412225 -0.0276091 0)
  (0.0281436 0.00249165 0)
  (0.0254367 0.0207911 0)
  (0.0304061 0.0287682 0)
  (0.0396327 0.0270681 0)
  (0.046085 0.0153265 0)
  (0.0460349 0.00233944 0)
  (0.0411065 -0.00733541 0)
  (0.0322432 -0.0123557 0)
  (0.0218278 -0.0130712 0)
  (0.0115021 -0.0103966 0)
  (0.00262739 -0.00538198 0)
  (-0.00385483 0.000496523 0)
  (-0.00696008 0.00417828 0)
  (-0.00779492 0.00575336 0)
  (-0.00730475 0.00644301 0)
  (-0.00558158 0.00726533 0)
  (-0.00258624 0.00895366 0)
  (0.00197224 0.0122146 0)
  (0.00813533 0.0174235 0)
  (0.0156699 0.0246166 0)
  (0.02541 0.0333143 0)
  (0.0353198 0.0435303 0)
  (0.0611329 0.0599762 0)
  (0.0759072 0.0700873 0)
  (0.111456 0.0472518 0)
  (0.153611 0.0391673 0)
  (-0.0385565 0.0884808 0)
  (0.879018 0.488513 0)
  (-0.0243646 0.165457 0)
  (0.135773 -0.0420787 0)
  (0.254153 -0.116352 0)
  (0.288795 -0.154909 0)
  (0.284798 -0.179499 0)
  (0.259233 -0.186856 0)
  (0.218049 -0.175781 0)
  (0.167064 -0.149675 0)
  (0.114168 -0.114777 0)
  (0.0651448 -0.0751839 0)
  (0.0254656 -0.0364215 0)
  (-0.00283254 -0.00480079 0)
  (-0.0159619 0.0123643 0)
  (-0.0170177 0.0201962 0)
  (-0.0126688 0.0228659 0)
  (-0.00608946 0.0205502 0)
  (-0.00201321 0.0131814 0)
  (-0.00281849 0.00497347 0)
  (-0.00728765 -0.000989702 0)
  (-0.0143555 -0.00372435 0)
  (-0.0227115 -0.00363494 0)
  (-0.0308139 -0.00162909 0)
  (-0.037358 0.00124549 0)
  (-0.0412072 0.00377722 0)
  (-0.0425284 0.00490777 0)
  (-0.0422387 0.0047902 0)
  (-0.0406767 0.00402172 0)
  (-0.037827 0.00317137 0)
  (-0.0335439 0.00272083 0)
  (-0.0275327 0.00306405 0)
  (-0.0194512 0.00444416 0)
  (-0.00922944 0.00687879 0)
  (0.00461858 0.00987881 0)
  (0.0176906 0.0128518 0)
  (0.0378974 0.0195131 0)
  (0.0566226 0.0163823 0)
  (0.0753234 -0.00702469 0)
  (0.135603 0.0408839 0)
  (-0.42703 0.20122 0)
  (1.0388 0.424509 0)
  (0.493496 0.276209 0)
  (0.515005 0.163429 0)
  (0.522954 0.0450882 0)
  (0.471567 -0.0417907 0)
  (0.392756 -0.0925532 0)
  (0.307726 -0.111232 0)
  (0.222465 -0.105443 0)
  (0.13927 -0.083322 0)
  (0.0647457 -0.0536249 0)
  (0.000285667 -0.0203963 0)
  (-0.0410497 0.00302433 0)
  (-0.0573256 0.0126281 0)
  (-0.0616843 0.0165056 0)
  (-0.0605118 0.018144 0)
  (-0.0566808 0.0182386 0)
  (-0.0524004 0.0163427 0)
  (-0.0501969 0.0124439 0)
  (-0.0512185 0.00816183 0)
  (-0.0548911 0.00492774 0)
  (-0.0600459 0.00334196 0)
  (-0.0654578 0.00313005 0)
  (-0.0702073 0.00367608 0)
  (-0.0737828 0.00436008 0)
  (-0.0760938 0.00462289 0)
  (-0.0776223 0.00409473 0)
  (-0.0790628 0.00291867 0)
  (-0.0809572 0.00152029 0)
  (-0.0837102 0.000505344 0)
  (-0.0876331 0.000578262 0)
  (-0.0930333 0.00240332 0)
  (-0.100481 0.00653004 0)
  (-0.111164 0.0134899 0)
  (-0.12698 0.0238323 0)
  (-0.150557 0.0377434 0)
  (-0.183363 0.0541505 0)
  (-0.228986 0.0690488 0)
  (-0.282861 0.0785896 0)
  (-0.34824 0.0821716 0)
  (-0.597429 0.0796031 0)
  (-0.0357566 -0.0430537 0)
  (0.125257 -0.0813123 0)
  (0.166399 -0.0976622 0)
  (0.125724 -0.0825405 0)
  (0.0740967 -0.0574263 0)
  (0.0194543 -0.0289162 0)
  (-0.0406603 -0.00125386 0)
  (-0.0786893 0.0125355 0)
  (-0.0994745 0.0184615 0)
  (-0.106246 0.0190014 0)
  (-0.107194 0.0180917 0)
  (-0.10537 0.0173998 0)
  (-0.102186 0.0171303 0)
  (-0.0985099 0.0169649 0)
  (-0.0953189 0.0163965 0)
  (-0.09367 0.0152589 0)
  (-0.0939715 0.0140798 0)
  (-0.0958225 0.0134523 0)
  (-0.0984371 0.0136901 0)
  (-0.101046 0.0147077 0)
  (-0.103146 0.0161886 0)
  (-0.104552 0.0177644 0)
  (-0.105369 0.0190961 0)
  (-0.10593 0.0199344 0)
  (-0.106593 0.0201884 0)
  (-0.107612 0.0198982 0)
  (-0.109122 0.019311 0)
  (-0.111142 0.018977 0)
  (-0.113585 0.0197675 0)
  (-0.116291 0.0227778 0)
  (-0.1191 0.0291616 0)
  (-0.121915 0.039821 0)
  (-0.124687 0.0546758 0)
  (-0.127014 0.0712724 0)
  (-0.12605 0.0817727 0)
  (-0.105191 0.068283 0)
  (-0.0374978 -0.00802439 0)
  (-0.246677 -0.195401 0)
  (0.101384 0.147261 0)
  (-0.012848 0.0300909 0)
  (-0.0481815 -0.0162958 0)
  (-0.0914227 -0.0164943 0)
  (-0.128171 -0.00718814 0)
  (-0.151062 0.000196267 0)
  (-0.159863 0.00288852 0)
  (-0.161544 0.00155243 0)
  (-0.159017 -0.000760787 0)
  (-0.154167 -0.00373263 0)
  (-0.148892 -0.00666641 0)
  (-0.14372 -0.00891371 0)
  (-0.138698 -0.0105096 0)
  (-0.133876 -0.0119808 0)
  (-0.129524 -0.013983 0)
  (-0.126043 -0.0169545 0)
  (-0.123634 -0.0208774 0)
  (-0.122169 -0.0254429 0)
  (-0.121301 -0.0302245 0)
  (-0.120644 -0.0348428 0)
  (-0.119911 -0.0390393 0)
  (-0.118968 -0.0426754 0)
  (-0.117829 -0.0456664 0)
  (-0.116611 -0.047854 0)
  (-0.115433 -0.0488995 0)
  (-0.114344 -0.0483085 0)
  (-0.113245 -0.0455336 0)
  (-0.11182 -0.0401187 0)
  (-0.10946 -0.0318101 0)
  (-0.105238 -0.0205246 0)
  (-0.0980107 -0.00619656 0)
  (-0.0866769 0.0111219 0)
  (-0.0704718 0.0302406 0)
  (-0.0493837 0.0467199 0)
  (-0.0268304 0.0544223 0)
  (0.0171224 0.0293341 0)
  (0.146421 -0.0331878 0)
  (-0.178504 -0.0953206 0)
  (0.867116 0.0882973 0)
  (-0.368932 -0.510516 0)
  (-0.36995 0.0550691 0)
  (-0.297833 0.0237362 0)
  (-0.263845 0.0265601 0)
  (-0.259311 0.0352655 0)
  (-0.254657 0.0439995 0)
  (-0.246092 0.0518855 0)
  (-0.234138 0.0582437 0)
  (-0.221353 0.0630257 0)
  (-0.209355 0.0671389 0)
  (-0.198882 0.0709485 0)
  (-0.189948 0.0747901 0)
  (-0.182023 0.0789123 0)
  (-0.174487 0.0835559 0)
  (-0.166912 0.0889887 0)
  (-0.159189 0.0954225 0)
  (-0.151478 0.102913 0)
  (-0.144011 0.111295 0)
  (-0.136947 0.120169 0)
  (-0.130333 0.128991 0)
  (-0.124129 0.137233 0)
  (-0.118254 0.144516 0)
  (-0.112634 0.150628 0)
  (-0.107229 0.155429 0)
  (-0.102051 0.158724 0)
  (-0.0971185 0.160196 0)
  (-0.0924087 0.159459 0)
  (-0.0877879 0.15619 0)
  (-0.0829061 0.150324 0)
  (-0.0769972 0.142255 0)
  (-0.0686505 0.132955 0)
  (-0.0560056 0.123978 0)
  (-0.0379687 0.117287 0)
  (-0.015442 0.114371 0)
  (0.0239541 0.111944 0)
  (0.0540065 0.109505 0)
  (0.0829367 0.105825 0)
  (0.163412 0.0880661 0)
  (-0.312244 0.0759442 0)
)
;

boundaryField
{
  floor
  {
    type noSlip;
  }
  ceiling
  {
    type noSlip;
  }
  sWall
  {
    type noSlip;
  }
  nWall
  {
    type noSlip;
  }
  sideWalls
  {
    type empty;
  }
  glass1
  {
    type noSlip;
  }
  glass2
  {
    type noSlip;
  }
  sun
  {
    type noSlip;
  }
  heatsource1
  {
    type noSlip;
  }
  heatsource2
  {
    type noSlip;
  }
  Table_master
  {
    type noSlip;
  }
  Table_slave
  {
    type noSlip;
  }
  inlet
  {
    type fixedValue;
    value uniform (0.277164 -0.114805 0);
  }
  outlet
  {
    type zeroGradient;
  }
} 	// ************************************************************************* //

