/*--------------------------------*- C++ -*----------------------------------*\
  =========                 |
  \\      /  F ield         | OpenFOAM: The Open Source CFD Toolbox
   \\    /   O peration     | Website:  https://openfoam.org
    \\  /    A nd           | Version:  6
     \\/     M anipulation  |
\*---------------------------------------------------------------------------*/
FoamFile
{
    version     2.0;
    format      ascii;
    class       volScalarField;
    location    "670";
    object      epsilon;
}
// * * * * * * * * * * * * * * * * * * * * * * * * * * * * * * * * * * * * * //

dimensions      [0 2 -3 0 0 0 0];

internalField   nonuniform List<scalar> 
459
(
8.44277e-05
0.000115502
0.000131785
0.000155295
0.00017992
0.000207036
0.000238914
0.000270053
0.000296273
0.000310831
0.00030514
0.000257607
0.000183969
0.00011579
7.36405e-05
1.94274e-05
6.04085e-05
6.19158e-05
6.34966e-05
6.23082e-05
5.80269e-05
4.98144e-05
4.16834e-05
3.49108e-05
2.94521e-05
2.50662e-05
2.15322e-05
1.86297e-05
1.61877e-05
1.406e-05
1.21047e-05
1.01638e-05
7.56799e-06
5.35191e-06
0.000172293
0.00021435
0.000105573
0.000107098
0.000114062
0.000126951
0.000147803
0.000173118
0.000196928
0.000211143
0.000209239
0.000185763
0.000146055
0.000112395
8.14147e-05
0.000133673
6.82762e-05
6.65179e-05
0.00012354
7.02355e-05
5.64897e-05
4.91622e-05
4.45564e-05
4.51395e-05
3.80783e-05
3.1151e-05
2.53934e-05
2.0771e-05
1.71338e-05
1.42552e-05
1.19747e-05
1.02999e-05
9.50172e-06
1.03119e-05
8.42788e-06
9.54702e-06
0.000281863
0.000419621
0.000107141
9.4374e-05
0.000100673
0.000115802
0.000139589
0.000168717
0.000196236
0.000215581
0.000220002
0.000202562
0.000168897
0.000135416
0.000103068
9.5672e-05
0.000121485
9.20535e-05
8.58748e-05
6.95106e-05
5.94871e-05
5.22662e-05
5.08281e-05
0.000119769
8.17382e-05
5.78398e-05
4.25299e-05
3.24056e-05
2.55275e-05
2.07371e-05
1.73809e-05
1.51524e-05
1.19568e-05
1.14697e-05
1.0208e-05
1.23179e-05
0.000421908
0.000784538
0.000131289
8.70969e-05
9.16408e-05
0.000109208
0.000139195
0.000173311
0.000204238
0.000229323
0.000239124
0.000222691
0.000188746
0.000153549
0.000124028
0.000105619
0.000102779
0.000185939
0.000127601
9.52778e-05
7.78575e-05
6.65811e-05
5.85264e-05
5.75219e-05
0.000155326
0.00011962
9.97179e-05
8.73812e-05
7.84801e-05
7.05279e-05
6.24368e-05
5.4658e-05
4.62402e-05
2.80739e-05
1.90928e-05
1.73294e-05
1.75168e-05
0.000608488
0.00136907
0.000209298
8.70898e-05
8.49783e-05
0.000107765
0.000155905
0.00019585
0.000229488
0.000259831
0.000270861
0.000249883
0.000206639
0.000161026
0.000126347
0.000105352
9.92465e-05
0.000102722
9.75309e-05
9.14049e-05
8.40391e-05
7.56686e-05
6.7227e-05
6.04736e-05
6.15031e-05
5.94501e-05
5.75189e-05
5.54834e-05
5.28851e-05
4.9297e-05
4.46029e-05
3.96632e-05
3.49094e-05
2.8485e-05
2.21954e-05
2.20475e-05
1.96715e-05
2.72868e-05
2.8733e-05
3.16105e-05
0.000869188
0.00211048
0.000441038
0.000125958
9.66432e-05
0.000126394
0.000207817
0.00024537
0.000278701
0.000311042
0.000320734
0.000290285
0.000230315
0.000167829
0.000122531
9.90987e-05
9.41713e-05
9.85897e-05
0.000102223
0.000101194
9.58398e-05
8.76363e-05
7.84944e-05
7.04783e-05
6.63683e-05
6.54123e-05
6.54583e-05
6.49096e-05
6.31657e-05
5.98992e-05
5.47962e-05
4.76131e-05
4.03364e-05
3.36322e-05
2.75111e-05
2.5204e-05
2.4163e-05
2.71383e-05
0.000115029
7.84726e-05
0.0011974
0.00266552
0.00101406
0.000380043
0.000255816
0.000288781
0.000318648
0.000332432
0.000358612
0.000391112
0.000395521
0.000347729
0.000263858
0.000180511
0.000124254
9.94621e-05
9.82627e-05
0.000107178
0.000114197
0.000114692
0.000109601
0.000101494
9.30586e-05
8.65737e-05
8.38112e-05
8.40423e-05
8.46107e-05
8.40812e-05
8.24212e-05
8.00301e-05
7.6901e-05
7.1661e-05
6.34582e-05
5.60975e-05
5.07887e-05
4.83772e-05
4.86737e-05
5.53671e-05
0.000170992
0.000134582
0.00131264
0.00353313
0.00185775
0.00113875
0.000796088
0.000624885
0.00051353
0.000468483
0.000481972
0.000513186
0.000503206
0.000423199
0.000304872
0.000198562
0.00013613
0.000114761
0.000117864
0.000127753
0.000134125
0.000134087
0.000129633
0.000123895
0.000119357
0.00011709
0.000116892
0.000117261
0.000116315
0.000113508
0.000110027
0.000108218
0.000110263
0.000116783
0.000124606
0.000132752
0.000151897
0.000185082
0.000241966
0.000304015
0.0010747
0.000316799
0.00126223
0.00216765
0.00165353
0.00123733
0.000946832
0.000740789
0.000622964
0.000605739
0.000656598
0.00069682
0.000650243
0.000505819
0.00034106
0.000223323
0.000177122
0.000166612
0.000169879
0.000176368
0.000180431
0.000181977
0.000181903
0.000181848
0.000183171
0.000185405
0.000186942
0.000185593
0.000179463
0.000168354
0.000154817
0.000144025
0.000141589
0.000150392
0.000170881
0.00020312
0.000250567
0.000318407
0.000407084
0.000511968
0.000625045
0.000351304
0.000361706
0.000478559
0.000544421
0.000618054
0.000751847
0.000920438
0.00103573
0.00101021
0.000824461
0.000539995
0.000384058
0.000330685
0.000319801
0.000322583
0.000330509
0.000338936
0.000345424
0.000350694
0.000356753
0.000361921
0.000368121
0.000374045
0.000376744
0.000372049
0.000355413
0.000323918
0.00027916
0.000229555
0.000189549
0.00017127
0.00017173
0.000189738
0.000225958
0.000280756
0.000348112
0.000410748
0.000460163
0.000400108
0.00026357
0.00175463
0.00205292
0.00233264
0.00240871
0.002307
0.00208541
0.0017414
0.00136015
0.00104482
0.000872472
0.000797567
0.000779276
0.000787429
0.000809111
0.000837904
0.000867907
0.000893213
0.000910251
0.000921796
0.000936108
0.000953696
0.000971181
0.000980702
0.000969998
0.000925754
0.000841086
0.00072376
0.000598507
0.00048436
0.000396519
0.000340635
0.00031676
0.000319392
0.000337137
0.000362586
0.000712917
0.000506028
0.000583925
0.000650495
0.000722243
0.00116015
0.00119219
0.00112155
0.00102635
0.000983108
0.000950448
0.000878899
0.000786025
0.000692277
0.000626847
0.000593297
0.000578809
0.000573876
0.000572637
0.000571171
0.000567469
0.00056158
0.00055558
0.000552653
0.000549802
0.000545478
0.000536806
0.000520344
0.000493537
0.000456728
0.000414681
0.000376135
0.00034437
0.000321234
0.000306734
0.000300816
0.000303237
0.000312255
0.000322026
0.000314299
0.00029843
0.000276252
)
;

boundaryField
{
    floor
    {
        Cmu             0.09;
        kappa           0.41;
        E               9.8;
        type            epsilonWallFunction;
        value           nonuniform List<scalar> 
29
(
7.36405e-05
1.94274e-05
6.04085e-05
6.19158e-05
6.34966e-05
6.23082e-05
5.80269e-05
4.98144e-05
4.16834e-05
3.49108e-05
2.94521e-05
2.50662e-05
2.15322e-05
1.86297e-05
1.61877e-05
1.406e-05
1.21047e-05
1.01638e-05
7.56799e-06
5.35191e-06
5.35191e-06
9.54702e-06
1.23179e-05
1.75168e-05
7.36405e-05
1.94274e-05
6.65179e-05
9.20535e-05
0.000185939
)
;
    }
    ceiling
    {
        Cmu             0.09;
        kappa           0.41;
        E               9.8;
        type            epsilonWallFunction;
        value           nonuniform List<scalar> 
43
(
0.000583925
0.000650495
0.000722243
0.00116015
0.00119219
0.00112155
0.00102635
0.000983108
0.000950448
0.000878899
0.000786025
0.000692277
0.000626847
0.000593297
0.000578809
0.000573876
0.000572637
0.000571171
0.000567469
0.00056158
0.00055558
0.000552653
0.000549802
0.000545478
0.000536806
0.000520344
0.000493537
0.000456728
0.000414681
0.000376135
0.00034437
0.000321234
0.000306734
0.000300816
0.000303237
0.000312255
0.000322026
0.000314299
0.00029843
0.000276252
0.00126223
0.00216765
0.00026357
)
;
    }
    sWall
    {
        Cmu             0.09;
        kappa           0.41;
        E               9.8;
        type            epsilonWallFunction;
        value           uniform 0.000583925;
    }
    nWall
    {
        Cmu             0.09;
        kappa           0.41;
        E               9.8;
        type            epsilonWallFunction;
        value           nonuniform List<scalar> 6(3.16105e-05 7.84726e-05 0.000134582 0.000400108 0.000506028 0.000276252);
    }
    sideWalls
    {
        type            empty;
    }
    glass1
    {
        Cmu             0.09;
        kappa           0.41;
        E               9.8;
        type            epsilonWallFunction;
        value           nonuniform List<scalar> 9(8.44277e-05 0.000172293 0.000281863 0.000421908 0.000608488 0.000869188 0.0011974 0.00131264 0.00126223);
    }
    glass2
    {
        Cmu             0.09;
        kappa           0.41;
        E               9.8;
        type            epsilonWallFunction;
        value           nonuniform List<scalar> 2(0.000316799 0.000351304);
    }
    sun
    {
        Cmu             0.09;
        kappa           0.41;
        E               9.8;
        type            epsilonWallFunction;
        value           nonuniform List<scalar> 
14
(
8.44277e-05
0.000115502
0.000131785
0.000155295
0.00017992
0.000207036
0.000238914
0.000270053
0.000296273
0.000310831
0.00030514
0.000257607
0.000183969
0.00011579
)
;
    }
    heatsource1
    {
        Cmu             0.09;
        kappa           0.41;
        E               9.8;
        type            epsilonWallFunction;
        value           nonuniform List<scalar> 3(2.72868e-05 2.8733e-05 3.16105e-05);
    }
    heatsource2
    {
        Cmu             0.09;
        kappa           0.41;
        E               9.8;
        type            epsilonWallFunction;
        value           nonuniform List<scalar> 4(0.000133673 6.82762e-05 6.82762e-05 0.000121485);
    }
    Table_master
    {
        Cmu             0.09;
        kappa           0.41;
        E               9.8;
        type            epsilonWallFunction;
        value           nonuniform List<scalar> 9(0.000119769 8.17382e-05 5.78398e-05 4.25299e-05 3.24056e-05 2.55275e-05 2.07371e-05 1.73809e-05 1.51524e-05);
    }
    Table_slave
    {
        Cmu             0.09;
        kappa           0.41;
        E               9.8;
        type            epsilonWallFunction;
        value           nonuniform List<scalar> 9(0.000155326 0.00011962 9.97179e-05 8.73812e-05 7.84801e-05 7.05279e-05 6.24368e-05 5.4658e-05 4.62402e-05);
    }
    inlet
    {
        type            turbulentMixingLengthDissipationRateInlet;
        mixingLength    0.01;
        phi             phi;
        k               k;
        value           uniform 0.000101881;
    }
    outlet
    {
        type            zeroGradient;
    }
}


// ************************************************************************* //
