/*--------------------------------*- C++ -*----------------------------------*\
  =========                 |
  \\      /  F ield         | OpenFOAM: The Open Source CFD Toolbox
   \\    /   O peration     | Website:  https://openfoam.org
    \\  /    A nd           | Version:  6
     \\/     M anipulation  |
\*---------------------------------------------------------------------------*/
FoamFile
{
    version     2.0;
    format      ascii;
    class       surfaceScalarField;
    location    "600";
    object      phi;
}
// * * * * * * * * * * * * * * * * * * * * * * * * * * * * * * * * * * * * * //

dimensions      [1 0 -1 0 0 0 0];

internalField   nonuniform List<scalar> 
852
(
-0.00290015
0.00295694
-0.00387695
0.000976805
-0.00464621
0.000769263
-0.00527135
0.000625153
-0.00572471
0.000453367
-0.0059866
0.000261894
-0.00603472
4.81235e-05
-0.00584472
-0.000189994
-0.00540595
-0.000438772
-0.00474236
-0.000663578
-0.00391248
-0.000829876
-0.00299434
-0.000918143
-0.00205702
-0.000937313
-0.00110452
-0.000952493
-0.00110309
-0.000601213
0.000604003
-0.000198755
-0.00040245
0.000414588
-0.000613336
0.000850171
-0.000435576
0.00112015
-0.000269975
0.00127655
-0.000156385
0.00135657
-8.00115e-05
0.001396
-3.94267e-05
0.00141742
-2.14108e-05
0.00142909
-1.16601e-05
0.00143391
-4.81465e-06
0.00143264
1.27896e-06
0.00142303
9.6187e-06
0.00139649
2.65483e-05
0.00133079
6.57065e-05
0.00118912
0.000141681
0.000959139
0.000229993
0.000687107
0.000272042
0.000690892
-0.0020674
0.00517706
-0.00303372
0.00194313
-0.00382783
0.00156338
-0.00444004
0.00123736
-0.00488092
0.000894253
-0.00514264
0.000523619
-0.00520204
0.000107529
-0.00503305
-0.000358982
-0.00463149
-0.000840329
-0.00403305
-0.00126201
-0.00330485
-0.00155807
-0.00252637
-0.00169662
-0.001777
-0.00168669
-0.00116769
-0.00156179
-0.00097917
-0.00129161
-0.0002624
-0.000716816
-0.000262445
0.000532226
7.95681e-05
0.000927673
-0.00079789
0.00113618
-0.000821836
0.00131911
-0.000618498
0.00144796
-0.000398816
0.00151367
-0.000222085
0.00151972
-8.60539e-05
0.00152164
-4.13474e-05
0.00152424
-2.39972e-05
0.00152644
-1.3856e-05
0.00152789
-6.25089e-06
0.00152832
8.5678e-07
0.00152674
1.12031e-05
0.00151953
3.37718e-05
0.0014779
0.000107348
0.00130279
0.000316799
0.0010003
0.000532492
0.000621349
0.000651002
0.00132184
-0.00145096
0.00686119
-0.00229362
0.00278581
-0.00299526
0.00226502
-0.00351358
0.00175568
-0.00389442
0.0012751
-0.00412987
0.000759074
-0.00418441
0.000162072
-0.00401434
-0.000529042
-0.00362108
-0.00123359
-0.00305957
-0.00182352
-0.00240546
-0.00221218
-0.00173368
-0.00236839
-0.00111089
-0.00230947
-0.000606014
-0.00206666
-0.000257502
-0.00164012
6.04204e-05
-0.00103473
-0.000202019
0.00142538
-0.00133779
0.00163804
-0.00101055
0.00162649
-0.000810278
0.00163411
-0.000626114
0.0016557
-0.000420393
0.00164252
-0.000208902
0.00155663
0.00151544
0.0014916
0.00147791
0.00147182
0.00147284
0.0014842
0.00151814
0.00162565
0.00134519
0.000597266
0.00100065
0.000877045
0.00055679
0.00109487
0.0018932
-0.00102068
0.00818315
-0.00170158
0.00346672
-0.00216118
0.00272462
-0.00249889
0.0020934
-0.00275606
0.00153227
-0.00291817
0.000921193
-0.00292707
0.000170976
-0.00271714
-0.000738968
-0.00231539
-0.00163534
-0.00180367
-0.00233524
-0.00125746
-0.00275838
-0.000734311
-0.00289154
-0.000269854
-0.00277393
0.00012127
-0.00245778
0.000463949
-0.00198279
0.000848668
-0.00141945
0.00153017
-0.000883517
0.0022378
-0.000700109
0.00180121
-0.000901197
0.00170573
-0.000915061
0.00163835
-0.000742888
0.00158491
-0.000572667
0.00157311
-0.000408581
0.00160927
-0.000245055
0.00172048
-0.000111362
0.00180581
-8.54693e-05
0.001881
-7.53336e-05
0.00194237
-6.15114e-05
0.00197424
-3.20138e-05
0.00195389
2.01995e-05
0.00185635
9.74028e-05
0.00165021
0.000205998
0.00128285
0.000367217
0.00114968
0.000730444
0.000854546
0.00117219
0.000395658
0.00155377
0.00230792
-0.000721646
0.00926363
-0.00125284
0.00399792
-0.00134708
0.00281887
-0.00142288
0.0021692
-0.0014911
0.0016005
-0.00152214
0.000952237
-0.00140612
5.4956e-05
-0.00110088
-0.0010442
-0.000699832
-0.00203639
-0.000286182
-0.00274889
8.79647e-05
-0.00313253
0.000396555
-0.00320013
0.000635353
-0.00301272
0.000821137
-0.00264356
0.000994053
-0.0021557
0.00119974
-0.00162513
0.00147074
-0.00115451
0.00165496
-0.000884322
0.00157243
-0.000818662
0.00141982
-0.000762444
0.00130705
-0.000630107
0.00122629
-0.000491904
0.00118641
-0.000368687
0.00119897
-0.000257605
0.00126917
-0.000181557
0.00134091
-0.000157201
0.00141579
-0.0001502
0.00148842
-0.000134133
0.00154683
-9.04161e-05
0.00157032
-3.28058e-06
0.00153808
0.000129655
0.00144004
0.00030405
0.00127822
0.000529045
0.00113514
0.000873533
0.000979227
0.00132811
0.000637546
0.00189546
0.000524893
0.00242058
-0.00100361
0.00152831
-0.00146308
0.00045927
-0.00141545
-0.000635237
0.0103061
-0.00101573
0.00437842
-0.000610371
0.00241351
-0.000302604
0.00186144
-9.75497e-05
0.00139545
0.000112711
0.000741984
0.00044371
-0.000276036
0.00083387
-0.00143435
0.00116937
-0.00237188
0.00140158
-0.00298111
0.00152304
-0.00325399
0.00155305
-0.00323014
0.00151811
-0.00297779
0.00144554
-0.00257099
0.00137083
-0.00208099
0.00132347
-0.00157777
0.00130566
-0.0011367
0.00125714
-0.00083579
0.00112182
-0.00068334
0.000944948
-0.000585564
0.000801454
-0.000486605
0.000706187
-0.000396628
0.000661606
-0.000324097
0.000670944
-0.000266934
0.000723591
-0.000234194
0.000795124
-0.000228724
0.000876929
-0.000231995
0.000964853
-0.000222046
0.0010528
-0.000178348
0.001129
-7.94719e-05
0.00117493
8.37305e-05
0.00118695
0.000292045
0.00117526
0.000540742
0.00118965
0.000859161
0.00127841
0.00123936
0.00145345
0.00172043
0.00188476
0.00198928
0.00213463
0.00127846
0.00174289
0.000851023
0.000384836
-0.000723776
0.0114805
-0.000637347
0.004292
0.000439201
0.00133697
0.00110358
0.00119708
0.00155876
0.000940281
0.00207267
0.000228075
0.00261562
-0.000818978
0.00299259
-0.00181132
0.00315755
-0.00253684
0.003123
-0.00294655
0.0029264
-0.00305739
0.00261879
-0.00292253
0.0022523
-0.0026113
0.00187118
-0.00218987
0.00151386
-0.00172366
0.00120543
-0.00126934
0.000950755
-0.000882012
0.000730957
-0.000615984
0.000517904
-0.00047028
0.000326697
-0.000394347
0.000183685
-0.000343584
9.51256e-05
-0.000308059
5.65598e-05
-0.000285521
6.30051e-05
-0.000273369
0.000102736
-0.000273914
0.000160585
-0.000286562
0.000229218
-0.000300617
0.000309247
-0.000302064
0.000405612
-0.000274702
0.000523146
-0.000196995
0.000647995
-4.11063e-05
0.000769182
0.000170869
0.000898507
0.000411428
0.00107737
0.000680312
0.00135524
0.0009615
0.00179434
0.00128134
0.00245737
0.00132625
0.00299202
0.000743822
0.0030225
0.000820558
0.00347008
0.00252215
0.00946203
0.00317565
0.0036385
0.00345885
0.00105377
0.00386606
0.000789871
0.00436145
0.000444903
0.0049523
-0.000362768
0.00535469
-0.00122137
0.00542468
-0.00188131
0.00517992
-0.00229209
0.00469072
-0.00245735
0.00404122
-0.00240791
0.00331404
-0.00219535
0.00257936
-0.00187662
0.00188386
-0.00149437
0.00126601
-0.0011058
0.000747157
-0.000750482
0.000334804
-0.000469651
2.52547e-05
-0.000306426
-0.000204772
-0.000240244
-0.000370969
-0.000228141
-0.000485053
-0.000229489
-0.000557157
-0.000235945
-0.000596348
-0.00024632
-0.000609562
-0.000260144
-0.000605237
-0.000278228
-0.000592381
-0.000299407
-0.000574992
-0.000317994
-0.000550889
-0.000326156
-0.000510935
-0.000314644
-0.00043541
-0.000272508
-0.000292542
-0.000183963
-0.000104563
-1.70981e-05
0.000110796
0.000196081
0.000381584
0.000409535
0.000722357
0.000620738
0.00117702
0.000826692
0.00167972
0.000823566
0.00189398
0.000529572
0.00112967
0.00158488
0.0048527
0.0100138
0.0136441
0.0123456
0.00235224
0.0114041
0.00173142
0.0107037
0.00114522
0.00998825
0.000352717
0.00904853
-0.000281661
0.00792444
-0.000757236
0.00670332
-0.00107099
0.00545254
-0.00120659
0.00423104
-0.00118641
0.00309041
-0.00105472
0.0020707
-0.0008569
0.00117703
-0.000600694
0.000429626
-0.000358385
-0.000148344
-0.000172503
-0.000542015
-7.59705e-05
-0.000787315
-6.11164e-05
-0.000949683
-7.78663e-05
-0.00107012
-0.000107694
-0.00116298
-0.000136621
-0.00123693
-0.000161975
-0.00129828
-0.000184962
-0.00135233
-0.000206084
-0.00140544
-0.000225105
-0.00146487
-0.000239965
-0.0015372
-0.000245657
-0.00162898
-0.000234366
-0.00174843
-0.000195181
-0.00190631
-0.000114612
-0.0021094
1.9137e-05
-0.00234143
0.000214939
-0.00263027
0.000484934
-0.00306621
0.000845484
-0.00374129
0.00129583
-0.0047222
0.00180762
-0.00612513
0.0022265
-0.00782918
0.00223363
-0.00735884
0.00111455
-0.00222602
0.00475565
0.00371723
0.00417837
0.00230861
0.00486802
0.000455474
0.00501147
0.000209177
0.00468433
4.54223e-05
0.00411579
-0.00018874
0.00339339
-0.000348605
0.00257817
-0.000391364
0.00173282
-0.000341054
0.000907929
-0.000229829
0.00013204
-8.10006e-05
-0.0005302
6.156e-05
-0.00100583
0.000117258
-0.00129912
0.00012079
-0.00146718
9.21027e-05
-0.00157583
4.75464e-05
-0.00166042
6.73026e-06
-0.00173949
-2.8612e-05
-0.00181812
-5.7976e-05
-0.00189937
-8.07116e-05
-0.00198471
-9.96072e-05
-0.00207559
-0.0001152
-0.00217408
-0.000126596
-0.00228221
-0.000131831
-0.00240072
-0.000127136
-0.00252825
-0.00010682
-0.00266019
-6.32288e-05
-0.00278833
1.35398e-05
-0.0029005
0.000131313
-0.00299265
0.000307105
-0.00307484
0.000567135
-0.00315458
0.000925234
-0.00322973
0.001371
-0.00325653
0.00183442
-0.00318359
0.00215357
-0.00283936
0.00188941
-0.00157098
-0.000153819
-0.00372346
-0.000565242
0.0043421
0.000497539
0.00124578
0.000462955
0.000490028
0.000402772
0.00026935
0.000304709
0.000143492
6.67939e-05
4.91917e-05
-0.000306914
2.51333e-05
-0.000750002
5.17434e-05
-0.00118672
9.56842e-05
-0.00155729
0.000140753
-0.00181522
0.000176939
-0.00194889
0.000195242
-0.00201537
0.00018375
-0.00204853
0.000153954
-0.00207299
0.000116579
-0.0021047
7.9265e-05
-0.00214546
4.75067e-05
-0.00219784
2.37821e-05
-0.00226067
4.86585e-06
-0.00233147
-9.90095e-06
-0.0024093
-2.17734e-05
-0.00249296
-3.15223e-05
-0.00258054
-3.90067e-05
-0.00266904
-4.33196e-05
-0.00275359
-4.25687e-05
-0.00282669
-3.37111e-05
-0.00287718
-1.27337e-05
-0.00289166
2.80364e-05
-0.00286089
0.000100552
-0.00276377
0.000209997
-0.00256832
0.000371698
-0.00224778
0.0006047
-0.00178463
0.000907858
-0.001154
0.00120381
-0.000182494
0.00118208
0.00114112
0.000565809
0.00158935
-0.000602036
-0.00205348
-0.00730351
-0.0101478
-0.00576288
-0.00449542
-0.00399168
-0.00371291
-0.00356308
-0.00350995
-0.00348274
-0.00343041
-0.0033354
-0.00319647
-0.00302242
-0.00283108
-0.00265215
-0.00250376
-0.00239328
-0.00232051
-0.00227975
-0.00226288
-0.00226504
-0.00228203
-0.0023109
-0.00234951
-0.00239556
-0.00244586
-0.0024953
-0.00253576
-0.00255509
-0.00253346
-0.00243913
-0.00223514
-0.00186924
-0.00127015
-0.000367725
0.000830781
0.00200751
0.00256777
0.00195987
)
;

boundaryField
{
    floor
    {
        type            calculated;
        value           nonuniform List<scalar> 
29
(
0
0
0
0
0
0
0
0
0
0
0
0
0
0
0
0
0
0
0
0
-3.77472e-06
-9.59008e-06
-1.45545e-05
-1.90548e-05
-1.42173e-06
-2.78251e-06
-7.78363e-06
-8.00787e-06
-7.51963e-06
)
;
    }
    ceiling
    {
        type            calculated;
        value           nonuniform List<scalar> 
43
(
-4.54594e-05
-4.41512e-05
-4.28379e-05
-2.16696e-05
-1.36828e-05
-9.39914e-06
-6.31836e-06
-3.92728e-06
-2.0612e-06
-5.72948e-07
6.90191e-07
1.8288e-06
2.89986e-06
3.91615e-06
4.82982e-06
5.57286e-06
6.1199e-06
6.49972e-06
6.75738e-06
6.9289e-06
7.03842e-06
7.09478e-06
7.11339e-06
7.10039e-06
7.05716e-06
6.9849e-06
6.8849e-06
6.7583e-06
6.60556e-06
6.42514e-06
6.22582e-06
6.02065e-06
5.8154e-06
5.61809e-06
5.44393e-06
5.31115e-06
5.36064e-06
5.55648e-06
5.87331e-06
7.00555e-06
1.14219e-05
8.27645e-06
-5.96649e-05
)
;
    }
    sWall
    {
        type            calculated;
        value           uniform -0.000274441;
    }
    nWall
    {
        type            calculated;
        value           nonuniform List<scalar> 6(-4.78245e-05 -5.73825e-05 -6.27378e-05 -7.35295e-05 -8.06172e-05 -0.000100601);
    }
    sideWalls
    {
        type            empty;
        value           nonuniform 0();
    }
    glass1
    {
        type            calculated;
        value           nonuniform List<scalar> 9(-5.67847e-05 -0.000152718 -0.000233172 -0.000301282 -0.000358829 -0.000407218 -0.000450631 -0.000503681 -0.000563215);
    }
    glass2
    {
        type            calculated;
        value           nonuniform List<scalar> 2(-0.000252938 -0.000280107);
    }
    sun
    {
        type            calculated;
        value           uniform 0;
    }
    heatsource1
    {
        type            calculated;
        value           nonuniform List<scalar> 3(2.04017e-07 2.03971e-07 2.03985e-07);
    }
    heatsource2
    {
        type            calculated;
        value           nonuniform List<scalar> 4(5.1049e-08 5.11893e-08 0 0);
    }
    Table_master
    {
        type            calculated;
        value           nonuniform List<scalar> 9(-1.53013e-07 -1.53076e-07 -1.531e-07 -1.53117e-07 -1.53129e-07 -1.53137e-07 -1.53139e-07 -1.53133e-07 -1.53101e-07);
    }
    Table_slave
    {
        type            calculated;
        value           nonuniform List<scalar> 9(1.529e-07 1.52914e-07 1.52893e-07 1.52876e-07 1.52868e-07 1.52873e-07 1.52887e-07 1.52929e-07 1.53009e-07);
    }
    inlet
    {
        type            calculated;
        value           uniform -0.00612067;
    }
    outlet
    {
        type            calculated;
        value           nonuniform List<scalar> 2(0.00762342 0.00288845);
    }
}


// ************************************************************************* //
