/*--------------------------------*- C++ -*----------------------------------*\
  =========                 |
  \\      /  F ield         | OpenFOAM: The Open Source CFD Toolbox
   \\    /   O peration     | Website:  https://openfoam.org
    \\  /    A nd           | Version:  6
     \\/     M anipulation  |
\*---------------------------------------------------------------------------*/
FoamFile
{
    version     2.0;
    format      ascii;
    class       volScalarField;
    location    "800";
    object      nut;
}
// * * * * * * * * * * * * * * * * * * * * * * * * * * * * * * * * * * * * * //

dimensions      [0 2 -1 0 0 0 0];

internalField   nonuniform List<scalar> 
459
(
0.00106221
0.00115904
0.00117946
0.00123555
0.00128722
0.00133523
0.00138181
0.00142944
0.00146452
0.0014819
0.00147643
0.00144454
0.00138619
0.00130752
0.00122238
0.000466763
0.000575862
0.000642516
0.000631918
0.000606579
0.000575843
0.000540098
0.000505479
0.000474175
0.000446354
0.000421673
0.000399691
0.000380141
0.000362524
0.000346223
0.000330416
0.000313859
0.000302069
0.000275223
0.00145199
0.0035089
0.00334767
0.0038964
0.00443108
0.00496946
0.00545598
0.00581108
0.00613624
0.00640566
0.0065794
0.0066081
0.00641781
0.00583094
0.00426342
0.00124262
0.000766539
0.000513443
0.00104867
0.00142062
0.0016734
0.00179589
0.00178107
0.00146113
0.00127068
0.00113198
0.00102431
0.000937882
0.000867037
0.000804707
0.000746488
0.000690288
0.000640835
0.000597463
0.000700162
0.000361857
0.00177765
0.00479632
0.00414447
0.00523784
0.00578064
0.00618173
0.00649096
0.00672238
0.00697421
0.00724087
0.00749247
0.00767924
0.0077474
0.00762719
0.00713004
0.00560032
0.00120245
0.00104436
0.00145881
0.00182334
0.0021299
0.00232399
0.00224818
0.000772562
0.000684093
0.000613005
0.00055556
0.000508674
0.000469996
0.000437836
0.000411095
0.000389272
0.000417888
0.000480858
0.000783133
0.000418889
0.0020915
0.00615911
0.00414552
0.00555978
0.0060676
0.00623934
0.00633152
0.00643049
0.00661618
0.00687761
0.00718956
0.00748854
0.00772129
0.00783925
0.00775495
0.00725951
0.00560201
0.00146353
0.00181306
0.00231059
0.00275466
0.00307817
0.00325821
0.00304219
0.000868766
0.00079244
0.000737815
0.000696277
0.00066106
0.000628736
0.000597781
0.000565336
0.000527643
0.000495121
0.000504015
0.000888904
0.000462835
0.00241228
0.00791683
0.00456705
0.00532674
0.00602212
0.00608969
0.00602243
0.00603865
0.00620113
0.00646051
0.00681128
0.00716511
0.00745201
0.007605
0.00759154
0.00736811
0.00678504
0.00556099
0.00511617
0.00492628
0.00481742
0.00473427
0.0046484
0.00446559
0.00380246
0.00348698
0.00330579
0.00316546
0.00301437
0.002791
0.00248363
0.00210628
0.00168308
0.00124927
0.000919474
0.000915252
0.000615752
0.000574025
0.000696113
0.000780208
0.00275248
0.00983011
0.00633395
0.00525456
0.00576133
0.00600996
0.00588665
0.00592099
0.00604975
0.00628418
0.0066262
0.00701026
0.00732902
0.00748601
0.00744033
0.00721749
0.00688553
0.0065081
0.00625789
0.00606095
0.0058651
0.00567404
0.00549057
0.00528842
0.00500388
0.00475194
0.00452653
0.00430698
0.00407973
0.00382868
0.00350319
0.0030894
0.00258627
0.0020208
0.00151421
0.00112754
0.000850949
0.000725405
0.00103859
0.000812316
0.00306363
0.0111804
0.00894404
0.00680661
0.00638897
0.00638321
0.00621966
0.00608657
0.00610175
0.00631109
0.00668153
0.00710807
0.00744946
0.00758786
0.00748413
0.0072012
0.00688961
0.00668651
0.00658804
0.00645838
0.0062449
0.00597379
0.00567189
0.00535668
0.00504293
0.00476075
0.00450306
0.00426029
0.00403197
0.00382404
0.00363615
0.00335831
0.00295857
0.00246818
0.00199435
0.00156666
0.00125384
0.00115321
0.00117559
0.000915302
0.00312504
0.0100016
0.00886068
0.00815187
0.00761898
0.00697101
0.0063919
0.00610161
0.0061509
0.0064878
0.00698854
0.0074876
0.00781499
0.00785997
0.00762394
0.00722876
0.00688782
0.00673357
0.00665164
0.00639878
0.00600317
0.00554494
0.0050916
0.00469142
0.00436188
0.00409264
0.00386363
0.00366697
0.00350649
0.00339144
0.00333139
0.00330146
0.0030783
0.00275247
0.00246276
0.00230784
0.00238193
0.00274278
0.00340425
0.00144219
0.00304285
0.00361236
0.00402031
0.00414557
0.00420912
0.00438159
0.00476258
0.00538155
0.00618248
0.00703046
0.00776719
0.00824876
0.00835847
0.00808007
0.0075505
0.00703283
0.0067129
0.00644753
0.00609901
0.0056035
0.00503231
0.0044881
0.0040348
0.0036841
0.00341464
0.00319776
0.00301318
0.00285117
0.0027065
0.00257367
0.00244627
0.00232543
0.00222759
0.00215504
0.00212847
0.00214187
0.00213795
0.00206184
0.00193288
0.00136106
0.00151744
0.00309013
0.00476796
0.00620886
0.00737957
0.00833056
0.00898878
0.00931085
0.00930987
0.00900383
0.00838752
0.00757133
0.00676048
0.00616716
0.00572288
0.00524024
0.00469202
0.00413991
0.0036496
0.00326206
0.00297002
0.00274652
0.0025683
0.00242111
0.00229856
0.00219899
0.00212275
0.00207095
0.00204678
0.00204905
0.00206458
0.00209067
0.00212079
0.00213179
0.00208506
0.0019657
0.0017846
0.00113579
0.00199296
0.00499368
0.0074234
0.00836098
0.00888719
0.00911976
0.00901246
0.00859515
0.00794829
0.00716983
0.00636916
0.0056446
0.00502722
0.00449741
0.00399619
0.00353917
0.0031683
0.0028895
0.00268343
0.00251986
0.00237974
0.00225503
0.0021491
0.00206367
0.00199915
0.00195595
0.00193355
0.00192967
0.00195133
0.00199596
0.00206038
0.0021379
0.00221324
0.00226609
0.00225325
0.00228512
0.00233456
0.00115841
0.00177564
0.0018819
0.00195737
0.00210484
0.00203462
0.00194616
0.00188931
0.00181606
0.00171275
0.00158233
0.00143225
0.00127297
0.0011164
0.000976203
0.0008661
0.000787926
0.000734619
0.000698413
0.00067376
0.000657189
0.000646702
0.000641081
0.00064014
0.000644216
0.000652701
0.0006655
0.000682889
0.000705227
0.000733069
0.000767401
0.000807152
0.000852358
0.000903588
0.000961378
0.00102544
0.00110092
0.00112818
0.0011009
0.00103461
0.000965479
)
;

boundaryField
{
    floor
    {
        type            nutkWallFunction;
        Cmu             0.09;
        kappa           0.41;
        E               9.8;
        value           nonuniform List<scalar> 
29
(
0.000146586
5.54403e-05
6.93184e-05
7.76348e-05
7.63195e-05
7.31643e-05
6.93153e-05
6.48075e-05
6.04066e-05
5.63948e-05
5.28017e-05
4.95904e-05
4.67103e-05
4.41318e-05
4.17936e-05
3.96171e-05
3.74938e-05
3.52555e-05
3.36522e-05
2.99698e-05
2.99698e-05
4.17047e-05
4.92268e-05
5.49336e-05
0.000146586
5.54403e-05
6.14227e-05
0.000125933
0.000174037
)
;
    }
    ceiling
    {
        type            nutkWallFunction;
        Cmu             0.09;
        kappa           0.41;
        E               9.8;
        value           nonuniform List<scalar> 
43
(
0.000208699
0.000220373
0.000228623
0.000244743
0.000237163
0.000227538
0.000221327
0.000213287
0.000201881
0.00018737
0.000170507
0.000152393
0.000134336
0.000117921
0.000104839
9.54343e-05
8.89583e-05
8.45283e-05
8.14964e-05
7.94511e-05
7.81535e-05
7.74571e-05
7.73405e-05
7.78461e-05
7.88968e-05
8.04787e-05
8.2622e-05
8.53655e-05
8.87707e-05
9.29487e-05
9.77586e-05
0.000103195
0.000109315
0.000116171
0.000123717
0.000132537
0.000135707
0.000132536
0.000124792
0.000116656
0.000344609
0.000403487
0.00023238
)
;
    }
    sWall
    {
        type            nutkWallFunction;
        Cmu             0.09;
        kappa           0.41;
        E               9.8;
        value           uniform 0.000208757;
    }
    nWall
    {
        type            nutkWallFunction;
        Cmu             0.09;
        kappa           0.41;
        E               9.8;
        value           nonuniform List<scalar> 6(9.45015e-05 9.83822e-05 0.000110712 0.000136599 0.000139219 0.000116662);
    }
    sideWalls
    {
        type            empty;
    }
    glass1
    {
        type            nutkWallFunction;
        Cmu             0.09;
        kappa           0.41;
        E               9.8;
        value           nonuniform List<scalar> 9(0.000128118 0.000172951 0.000209361 0.000243762 0.000278354 0.000314511 0.000347174 0.000353589 0.00034503);
    }
    glass2
    {
        type            nutkWallFunction;
        Cmu             0.09;
        kappa           0.41;
        E               9.8;
        value           nonuniform List<scalar> 2(0.000171701 0.000162504);
    }
    sun
    {
        type            nutkWallFunction;
        Cmu             0.09;
        kappa           0.41;
        E               9.8;
        value           nonuniform List<scalar> 
14
(
0.000128023
0.00013928
0.00014164
0.0001481
0.000154022
0.000159502
0.000164796
0.00017019
0.000174149
0.000176108
0.000175492
0.000171895
0.000165292
0.000156342
)
;
    }
    heatsource1
    {
        type            nutkWallFunction;
        Cmu             0.09;
        kappa           0.41;
        E               9.8;
        value           nonuniform List<scalar> 3(6.90901e-05 8.4248e-05 9.45015e-05);
    }
    heatsource2
    {
        type            nutkWallFunction;
        Cmu             0.09;
        kappa           0.41;
        E               9.8;
        value           nonuniform List<scalar> 4(0.000148909 9.28469e-05 9.28469e-05 0.000144288);
    }
    Table_master
    {
        type            nutkWallFunction;
        Cmu             0.09;
        kappa           0.41;
        E               9.8;
        value           nonuniform List<scalar> 9(9.35732e-05 8.277e-05 7.39682e-05 6.67654e-05 6.08189e-05 5.58624e-05 5.17025e-05 4.82143e-05 4.53464e-05);
    }
    Table_slave
    {
        type            nutkWallFunction;
        Cmu             0.09;
        kappa           0.41;
        E               9.8;
        value           nonuniform List<scalar> 9(0.000105157 9.59798e-05 8.93487e-05 8.42673e-05 7.99308e-05 7.5926e-05 7.20674e-05 6.79971e-05 6.32321e-05);
    }
    inlet
    {
        type            calculated;
        value           uniform 0.000100623;
    }
    outlet
    {
        type            calculated;
        value           nonuniform List<scalar> 2(0.00177564 0.0018819);
    }
}


// ************************************************************************* //
