/*--------------------------------*- C++ -*----------------------------------*\
  =========                 |
  \\      /  F ield         | OpenFOAM: The Open Source CFD Toolbox
   \\    /   O peration     | Website:  https://openfoam.org
    \\  /    A nd           | Version:  6
     \\/     M anipulation  |
\*---------------------------------------------------------------------------*/
FoamFile
{
    version     2.0;
    format      ascii;
    class       volScalarField;
    location    "900";
    object      epsilon;
}
// * * * * * * * * * * * * * * * * * * * * * * * * * * * * * * * * * * * * * //

dimensions      [0 2 -3 0 0 0 0];

internalField   nonuniform List<scalar> 
459
(
0.000447055
0.000583416
0.000616942
0.000710423
0.000805004
0.000900853
0.001002
0.00110763
0.00118628
0.00122017
0.00119458
0.00110503
0.000961066
0.000788824
0.000624795
3.79782e-05
6.95675e-05
9.90369e-05
9.70954e-05
8.73247e-05
7.55482e-05
6.23851e-05
5.09634e-05
4.18906e-05
3.47985e-05
2.92288e-05
2.48079e-05
2.12703e-05
1.83955e-05
1.59852e-05
1.38663e-05
1.18672e-05
1.05358e-05
7.93816e-06
0.00112995
0.00162
0.000552693
0.000536697
0.000562965
0.000605127
0.000666505
0.000747576
0.000824676
0.000874114
0.000876536
0.000825424
0.00072741
0.000605904
0.000522115
0.0006638
0.00013492
4.80039e-05
0.00011845
0.000123752
0.000111554
9.43511e-05
7.85537e-05
7.02174e-05
5.68087e-05
4.50373e-05
3.57215e-05
2.85381e-05
2.30204e-05
1.87832e-05
1.55386e-05
1.31563e-05
1.17169e-05
1.10895e-05
2.48422e-05
1.75457e-05
0.0020575
0.00395671
0.000689185
0.000514723
0.000539857
0.000606703
0.000704837
0.000827607
0.000940867
0.00101147
0.00102138
0.000970756
0.000869785
0.000741102
0.00062871
0.000568431
0.000655012
0.000381159
0.000268591
0.000201289
0.00015473
0.000121343
0.000101486
0.000183135
0.000125999
8.98442e-05
6.63168e-05
5.0512e-05
3.95655e-05
3.17868e-05
2.61722e-05
2.21404e-05
1.6785e-05
1.39377e-05
4.39354e-05
2.7006e-05
0.00332685
0.00819427
0.00110306
0.000528954
0.000534188
0.000630457
0.000783954
0.000971874
0.00111999
0.00119549
0.00119426
0.00112764
0.00100726
0.000854898
0.000715543
0.000614661
0.000586948
0.00112205
0.000621251
0.00037226
0.000248967
0.000179023
0.000135936
0.000115839
0.000263016
0.000198141
0.000158816
0.000132567
0.0001127
9.64159e-05
8.23529e-05
6.91771e-05
5.57907e-05
3.27988e-05
2.12568e-05
6.80718e-05
3.63292e-05
0.00507203
0.0145698
0.00220112
0.000653416
0.000567541
0.000697049
0.000974421
0.00125156
0.00140734
0.00145562
0.00141977
0.00131782
0.00116168
0.000971753
0.00077851
0.000608251
0.000480419
0.000419596
0.000337563
0.000264204
0.000205835
0.000161447
0.000128725
0.000107301
0.000103288
9.55975e-05
8.79304e-05
8.04768e-05
7.28344e-05
6.4949e-05
5.72217e-05
4.99548e-05
4.32964e-05
3.42816e-05
2.59721e-05
5.06419e-05
4.00191e-05
6.79678e-05
0.000120981
0.000171064
0.00749523
0.0215925
0.00495386
0.00131519
0.000906897
0.00105901
0.00156266
0.00180747
0.00187084
0.00183558
0.00173827
0.00158344
0.00137251
0.00112235
0.000865416
0.000637002
0.000464443
0.000355552
0.000284688
0.000229696
0.00018379
0.000147308
0.000120266
0.000102468
9.37485e-05
8.95914e-05
8.67679e-05
8.35327e-05
7.88644e-05
7.19442e-05
6.28418e-05
5.34566e-05
4.48794e-05
3.71851e-05
3.20082e-05
4.01128e-05
4.15471e-05
5.192e-05
0.000222766
0.000194157
0.0102777
0.0257842
0.0101283
0.00427333
0.00298374
0.00294218
0.00294404
0.00279506
0.00259482
0.00239241
0.00218294
0.00193854
0.00164171
0.00130651
0.000971384
0.000680094
0.000467339
0.000335103
0.000255839
0.000201992
0.000160979
0.000130671
0.000110298
9.88381e-05
9.48227e-05
9.52268e-05
9.71512e-05
9.91059e-05
0.000100054
9.84991e-05
9.14216e-05
8.08407e-05
7.03334e-05
6.13083e-05
5.75609e-05
6.34381e-05
7.98117e-05
0.000126606
0.000293624
0.000286373
0.0108843
0.027893
0.0156256
0.0107651
0.00818307
0.00636355
0.00502446
0.00411858
0.00352296
0.00310774
0.00275696
0.00238476
0.00195463
0.00149272
0.00105191
0.000682991
0.000433854
0.000290715
0.000210259
0.000164506
0.000133693
0.000113583
0.000102224
9.79824e-05
9.9241e-05
0.000104235
0.000111702
0.000121337
0.000133272
0.000147441
0.000162861
0.000172288
0.00018092
0.000199347
0.00023804
0.000354446
0.00064957
0.00122717
0.00364188
0.00109207
0.0100391
0.0167278
0.0133176
0.0101162
0.00781807
0.00629152
0.00531461
0.00470211
0.00428266
0.00390192
0.00345213
0.00288151
0.00220866
0.00154664
0.000976825
0.000530855
0.000317069
0.000215694
0.000162123
0.000130763
0.000111362
0.000100302
9.56107e-05
9.58992e-05
0.000100161
0.000107781
0.00011872
0.000133652
0.000153879
0.000181266
0.000218289
0.000268687
0.00033822
0.000443365
0.000598771
0.000811481
0.00105819
0.00127769
0.0014472
0.000911139
0.00362509
0.00558456
0.00653813
0.00667678
0.00652294
0.0061598
0.0055465
0.0047039
0.00371384
0.0026209
0.00152728
0.00087238
0.000494068
0.000288772
0.000191662
0.000143853
0.000118192
0.000103317
9.45063e-05
8.98845e-05
8.82042e-05
8.87951e-05
9.14198e-05
9.62636e-05
0.000103885
0.000115213
0.000131659
0.000155268
0.000188982
0.000237043
0.000304427
0.000397907
0.000521212
0.000664301
0.000791514
0.000853284
0.000817424
0.000525858
0.00274393
0.00637203
0.00709765
0.00593625
0.00530659
0.00460045
0.00367369
0.00271637
0.0018829
0.00123196
0.000738044
0.000439076
0.00027655
0.000195364
0.000157951
0.000140829
0.00013275
0.000128551
0.0001259
0.000123825
0.000122077
0.000120724
0.000120236
0.000121368
0.000124928
0.00013176
0.00014309
0.00016073
0.000187341
0.000226294
0.000282035
0.000359102
0.000458142
0.000571403
0.000657154
0.000750136
0.000756989
0.000557945
0.00197309
0.00234774
0.00263932
0.00330252
0.00299589
0.0026551
0.00244666
0.00216481
0.00179692
0.00140029
0.00102912
0.000719693
0.000486071
0.000331838
0.000240075
0.000186347
0.000153465
0.000132189
0.000117905
0.000108254
0.000101914
9.81412e-05
9.65056e-05
9.70374e-05
9.9979e-05
0.000105453
0.000113582
0.000124925
0.00014036
0.000161102
0.000187745
0.000221644
0.00026486
0.000319987
0.000389303
0.000483523
0.000517846
0.000479299
0.000397696
0.000322187
)
;

boundaryField
{
    floor
    {
        Cmu             0.09;
        kappa           0.41;
        E               9.8;
        type            epsilonWallFunction;
        value           nonuniform List<scalar> 
29
(
0.000624795
3.79782e-05
6.95675e-05
9.90369e-05
9.70954e-05
8.73247e-05
7.55482e-05
6.23851e-05
5.09634e-05
4.18906e-05
3.47985e-05
2.92288e-05
2.48079e-05
2.12703e-05
1.83955e-05
1.59852e-05
1.38663e-05
1.18672e-05
1.05358e-05
7.93816e-06
7.93816e-06
1.75457e-05
2.7006e-05
3.63292e-05
0.000624795
3.79782e-05
4.80039e-05
0.000381159
0.00112205
)
;
    }
    ceiling
    {
        Cmu             0.09;
        kappa           0.41;
        E               9.8;
        type            epsilonWallFunction;
        value           nonuniform List<scalar> 
43
(
0.00197309
0.00234774
0.00263932
0.00330252
0.00299589
0.0026551
0.00244666
0.00216481
0.00179692
0.00140029
0.00102912
0.000719693
0.000486071
0.000331838
0.000240075
0.000186347
0.000153465
0.000132189
0.000117905
0.000108254
0.000101914
9.81412e-05
9.65056e-05
9.70374e-05
9.9979e-05
0.000105453
0.000113582
0.000124925
0.00014036
0.000161102
0.000187745
0.000221644
0.00026486
0.000319987
0.000389303
0.000483523
0.000517846
0.000479299
0.000397696
0.000322187
0.0100391
0.0167278
0.00274393
)
;
    }
    sWall
    {
        Cmu             0.09;
        kappa           0.41;
        E               9.8;
        type            epsilonWallFunction;
        value           uniform 0.00197309;
    }
    nWall
    {
        Cmu             0.09;
        kappa           0.41;
        E               9.8;
        type            epsilonWallFunction;
        value           nonuniform List<scalar> 6(0.000171064 0.000194157 0.000286373 0.000525858 0.000557945 0.000322187);
    }
    sideWalls
    {
        type            empty;
    }
    glass1
    {
        Cmu             0.09;
        kappa           0.41;
        E               9.8;
        type            epsilonWallFunction;
        value           nonuniform List<scalar> 9(0.000447055 0.00112995 0.0020575 0.00332685 0.00507203 0.00749523 0.0102777 0.0108843 0.0100391);
    }
    glass2
    {
        Cmu             0.09;
        kappa           0.41;
        E               9.8;
        type            epsilonWallFunction;
        value           nonuniform List<scalar> 2(0.00109207 0.000911139);
    }
    sun
    {
        Cmu             0.09;
        kappa           0.41;
        E               9.8;
        type            epsilonWallFunction;
        value           nonuniform List<scalar> 
14
(
0.000447055
0.000583416
0.000616942
0.000710423
0.000805004
0.000900853
0.001002
0.00110763
0.00118628
0.00122017
0.00119458
0.00110503
0.000961066
0.000788824
)
;
    }
    heatsource1
    {
        Cmu             0.09;
        kappa           0.41;
        E               9.8;
        type            epsilonWallFunction;
        value           nonuniform List<scalar> 3(6.79678e-05 0.000120981 0.000171064);
    }
    heatsource2
    {
        Cmu             0.09;
        kappa           0.41;
        E               9.8;
        type            epsilonWallFunction;
        value           nonuniform List<scalar> 4(0.0006638 0.00013492 0.00013492 0.000655012);
    }
    Table_master
    {
        Cmu             0.09;
        kappa           0.41;
        E               9.8;
        type            epsilonWallFunction;
        value           nonuniform List<scalar> 9(0.000183135 0.000125999 8.98442e-05 6.63168e-05 5.0512e-05 3.95655e-05 3.17868e-05 2.61722e-05 2.21404e-05);
    }
    Table_slave
    {
        Cmu             0.09;
        kappa           0.41;
        E               9.8;
        type            epsilonWallFunction;
        value           nonuniform List<scalar> 9(0.000263016 0.000198141 0.000158816 0.000132567 0.0001127 9.64159e-05 8.23529e-05 6.91771e-05 5.57907e-05);
    }
    inlet
    {
        type            turbulentMixingLengthDissipationRateInlet;
        mixingLength    0.01;
        phi             phi;
        k               k;
        value           uniform 0.000101881;
    }
    outlet
    {
        type            zeroGradient;
    }
}


// ************************************************************************* //
