// -*- C++ -*-
// File generated by PyFoam - sorry for the ugliness

FoamFile
{
 version 2.0;
 format ascii;
 class volVectorField;
 location "430";
 object U;
}

dimensions [ 0 1 -1 0 0 0 0 ];

internalField nonuniform List<vector> 459
(
  (-0.0060116 0.0460889 0)
  (-0.0928794 0.0173916 0)
  (-0.115196 0.00834964 0)
  (-0.131366 0.00116885 0)
  (-0.136727 -0.00626255 0)
  (-0.129074 -0.0143371 0)
  (-0.108625 -0.0234732 0)
  (-0.0772279 -0.0321789 0)
  (-0.0401973 -0.037764 0)
  (0.00475602 -0.033967 0)
  (0.0358768 -0.0234907 0)
  (0.0555286 -0.0138632 0)
  (0.064445 -0.00421605 0)
  (0.0577921 0.00867805 0)
  (0.0593301 0.0336374 0)
  (-0.0690032 0.00632505 0)
  (0.00711605 0.0010595 0)
  (0.0039123 -0.0125958 0)
  (0.0206005 -0.0161682 0)
  (0.0365073 -0.0139396 0)
  (0.0503814 -0.0102124 0)
  (0.0597144 -0.00599208 0)
  (0.0646227 -0.00362855 0)
  (0.0666035 -0.00271833 0)
  (0.0673905 -0.00234973 0)
  (0.0678093 -0.00210514 0)
  (0.0679528 -0.00187006 0)
  (0.0676508 -0.00152339 0)
  (0.0665622 -0.00084716 0)
  (0.0639034 0.000640252 0)
  (0.0580793 0.00374931 0)
  (0.0473227 0.00840201 0)
  (0.017953 0.0166897 0)
  (0.0570572 0.00843871 0)
  (0.0658883 0.0948552 0)
  (-0.0813526 0.0475623 0)
  (-0.0933793 0.0322646 0)
  (-0.109645 0.0180311 0)
  (-0.115567 0.00178769 0)
  (-0.109396 -0.0170544 0)
  (-0.0916073 -0.0367241 0)
  (-0.064478 -0.0532783 0)
  (-0.0332053 -0.0614156 0)
  (-0.000391957 -0.0550823 0)
  (0.026184 -0.0385389 0)
  (0.0444983 -0.0210335 0)
  (0.0556945 -0.0027803 0)
  (0.0604871 0.0161858 0)
  (0.0663505 0.0393065 0)
  (0.0628536 0.0386578 0)
  (0.0410352 0.0381474 0)
  (-0.091703 0.00601617 0)
  (0.0227656 -0.0146357 0)
  (0.0262839 -0.024318 0)
  (0.0373962 -0.0262742 0)
  (0.048781 -0.0223902 0)
  (0.0580208 -0.0159334 0)
  (0.0627555 -0.00674903 0)
  (0.0638455 -0.00133228 0)
  (0.0637544 0.000772009 0)
  (0.0638409 0.00160033 0)
  (0.0641093 0.00210592 0)
  (0.0643297 0.00259044 0)
  (0.0643891 0.00325632 0)
  (0.0642329 0.00456803 0)
  (0.0633194 0.00756235 0)
  (0.0591345 0.015171 0)
  (0.0499125 0.0233828 0)
  (0.0176503 0.0340263 0)
  (0.096943 0.0253494 0)
  (0.133889 0.141905 0)
  (-0.0807999 0.0725023 0)
  (-0.0718911 0.0501067 0)
  (-0.0872654 0.0268595 0)
  (-0.0932827 0.000484451 0)
  (-0.0874964 -0.0290499 0)
  (-0.0710701 -0.0588587 0)
  (-0.0474076 -0.0818262 0)
  (-0.021885 -0.0904521 0)
  (0.00336122 -0.0803301 0)
  (0.0240392 -0.0590136 0)
  (0.0397746 -0.0352936 0)
  (0.0503588 -0.0115433 0)
  (0.056487 0.0115393 0)
  (0.0601504 0.0333441 0)
  (0.0561826 0.0436956 0)
  (0.0448946 0.0661831 0)
  (-0.0601775 -0.0155718 0)
  (0.0380506 -0.0343802 0)
  (0.0480799 -0.039765 0)
  (0.0539057 -0.0373255 0)
  (0.0597626 -0.0311642 0)
  (0.064866 -0.0247534 0)
  (0.0661343 -0.018471 0)
  (0.060508 -0.0121831 0)
  (0.0560542 -0.00891667 0)
  (0.0543013 -0.00715591 0)
  (0.0537974 -0.00605217 0)
  (0.0536588 -0.00526205 0)
  (0.0539578 -0.00444561 0)
  (0.0553699 -0.00309685 0)
  (0.0595352 0.00100737 0)
  (0.0595582 0.0195173 0)
  (0.0524072 0.0338423 0)
  (0.0165583 0.0497933 0)
  (0.12233 0.0511037 0)
  (0.199136 0.179912 0)
  (-0.0887471 0.092702 0)
  (-0.0494015 0.0658705 0)
  (-0.0630709 0.0360081 0)
  (-0.0678432 0.000923231 0)
  (-0.0599372 -0.0393469 0)
  (-0.0439236 -0.0785042 0)
  (-0.024226 -0.10619 0)
  (-0.00522282 -0.114104 0)
  (0.0124186 -0.10094 0)
  (0.0270826 -0.0760544 0)
  (0.0388426 -0.0474375 0)
  (0.0471384 -0.0194522 0)
  (0.0531054 0.00626814 0)
  (0.05878 0.029156 0)
  (0.0663669 0.0467069 0)
  (0.0782208 0.0678831 0)
  (0.101323 0.0162267 0)
  (0.0927834 -0.00854775 0)
  (0.0842851 -0.0294884 0)
  (0.075227 -0.0381115 0)
  (0.0688219 -0.0370868 0)
  (0.0648601 -0.0313925 0)
  (0.06168 -0.0233279 0)
  (0.0625096 -0.0139283 0)
  (0.0687081 -0.00924595 0)
  (0.0729833 -0.00668189 0)
  (0.0746399 -0.00512014 0)
  (0.0748921 -0.0038848 0)
  (0.0739095 -0.00259088 0)
  (0.0712718 -0.000979992 0)
  (0.0658767 0.00135901 0)
  (0.0549365 0.00507912 0)
  (0.0478894 0.025465 0)
  (0.0488972 0.0417658 0)
  (0.0185581 0.060798 0)
  (0.140233 0.0866005 0)
  (0.260863 0.208675 0)
  (-0.103418 0.106779 0)
  (-0.0263647 0.0755931 0)
  (-0.0366134 0.0423127 0)
  (-0.037007 0.00101388 0)
  (-0.0235388 -0.0497101 0)
  (-0.00842041 -0.0950869 0)
  (0.0055972 -0.123947 0)
  (0.01629 -0.129121 0)
  (0.0252572 -0.114319 0)
  (0.0328994 -0.0869658 0)
  (0.0388001 -0.055323 0)
  (0.0430228 -0.0251455 0)
  (0.0471439 0.00104251 0)
  (0.0525944 0.0225118 0)
  (0.0615631 0.0370428 0)
  (0.0756316 0.0418382 0)
  (0.0876634 0.0114215 0)
  (0.0870835 -0.0103443 0)
  (0.0797178 -0.0244083 0)
  (0.0708129 -0.030357 0)
  (0.0622952 -0.0299809 0)
  (0.0551326 -0.0256279 0)
  (0.0496842 -0.0185627 0)
  (0.0473986 -0.00903903 0)
  (0.0480122 -0.00357162 0)
  (0.0487036 -0.00119798 0)
  (0.0489406 2.87306e-05 0)
  (0.0491678 0.00128153 0)
  (0.0493901 0.00307707 0)
  (0.0491701 0.00582317 0)
  (0.0480739 0.00999516 0)
  (0.0455208 0.0162123 0)
  (0.0440255 0.0284502 0)
  (0.0509721 0.0415764 0)
  (0.0413746 0.0554857 0)
  (0.105305 0.0843541 0)
  (0.0984769 0.0662409 0)
  (0.0934475 0.0463428 0)
  (-0.138032 0.0459565 0)
  (0.313102 0.230981 0)
  (-0.122464 0.113374 0)
  (-0.00582512 0.074656 0)
  (-0.00758856 0.0437618 0)
  (0.00483299 -0.00598095 0)
  (0.0220595 -0.0632137 0)
  (0.0337648 -0.107519 0)
  (0.0397538 -0.132255 0)
  (0.0413728 -0.135307 0)
  (0.0406527 -0.118897 0)
  (0.0389585 -0.0899654 0)
  (0.036851 -0.056913 0)
  (0.0350341 -0.0264731 0)
  (0.034921 -0.00192627 0)
  (0.0379899 0.0160255 0)
  (0.0451739 0.0257426 0)
  (0.0564036 0.024939 0)
  (0.0640893 0.00849016 0)
  (0.0641092 -0.00692522 0)
  (0.05853 -0.0169772 0)
  (0.0505228 -0.0216285 0)
  (0.0420026 -0.0217232 0)
  (0.0342024 -0.0186052 0)
  (0.0279978 -0.0133819 0)
  (0.0242682 -0.00723976 0)
  (0.0229594 -0.00355699 0)
  (0.0228442 -0.0020788 0)
  (0.0234034 -0.0014614 0)
  (0.0246149 -0.000682573 0)
  (0.0267142 0.000996161 0)
  (0.029171 0.00409402 0)
  (0.0317415 0.00895161 0)
  (0.0342239 0.0156901 0)
  (0.0376262 0.0247533 0)
  (0.0459198 0.0339811 0)
  (0.0467461 0.0389132 0)
  (0.0714749 0.0529401 0)
  (0.0704264 0.0408968 0)
  (0.0920196 0.038215 0)
  (-0.137595 0.0680985 0)
  (0.3553 0.249149 0)
  (-0.135147 0.101612 0)
  (0.0161792 0.0464932 0)
  (0.0321466 0.0225217 0)
  (0.0580182 -0.02718 0)
  (0.0746402 -0.0776391 0)
  (0.0808408 -0.114409 0)
  (0.0777531 -0.132591 0)
  (0.0680701 -0.131243 0)
  (0.0550169 -0.112536 0)
  (0.0416008 -0.0828607 0)
  (0.0296897 -0.0502159 0)
  (0.0207055 -0.0216946 0)
  (0.0158551 -0.000818823 0)
  (0.0166302 0.0122456 0)
  (0.0220963 0.0179674 0)
  (0.0301028 0.0161271 0)
  (0.0349284 0.00630173 0)
  (0.0345641 -0.00383606 0)
  (0.0298779 -0.0107404 0)
  (0.0227012 -0.0139083 0)
  (0.014755 -0.0138953 0)
  (0.00732548 -0.0116872 0)
  (0.00141132 -0.00826032 0)
  (-0.00219009 -0.00474934 0)
  (-0.00349302 -0.00291946 0)
  (-0.00339065 -0.00254811 0)
  (-0.00235792 -0.00281103 0)
  (-0.000505693 -0.00297019 0)
  (0.00232804 -0.00228928 0)
  (0.0066938 5.92576e-05 0)
  (0.012585 0.00460525 0)
  (0.0187631 0.0107165 0)
  (0.0258446 0.0177912 0)
  (0.0350607 0.0246132 0)
  (0.0406135 0.0283261 0)
  (0.053435 0.0380206 0)
  (0.0584082 0.0418037 0)
  (0.102894 0.0553902 0)
  (-0.10562 0.112359 0)
  (0.421682 0.244577 0)
  (-0.0267753 0.0758072 0)
  (0.0631064 -0.0152166 0)
  (0.111604 -0.0483118 0)
  (0.135745 -0.0711463 0)
  (0.141975 -0.0944898 0)
  (0.134805 -0.112741 0)
  (0.116341 -0.119616 0)
  (0.0904938 -0.112601 0)
  (0.0617639 -0.0921656 0)
  (0.0348952 -0.0636455 0)
  (0.0129082 -0.0341946 0)
  (-0.00198848 -0.0107148 0)
  (-0.00905248 0.00315837 0)
  (-0.00879485 0.0101093 0)
  (-0.00488525 0.0126491 0)
  (0.000362548 0.010888 0)
  (0.00295274 0.00501347 0)
  (0.00179481 -0.000999259 0)
  (-0.00250169 -0.00513431 0)
  (-0.00884583 -0.00683545 0)
  (-0.015604 -0.00670395 0)
  (-0.021645 -0.00552569 0)
  (-0.0261807 -0.00404761 0)
  (-0.0288122 -0.00296645 0)
  (-0.0297765 -0.00287744 0)
  (-0.0296748 -0.00364836 0)
  (-0.0289049 -0.00483571 0)
  (-0.0276419 -0.0060062 0)
  (-0.025814 -0.00675449 0)
  (-0.0229921 -0.00663991 0)
  (-0.0183083 -0.00516836 0)
  (-0.0101818 -0.0019452 0)
  (-0.000159005 0.00224588 0)
  (0.0100311 0.00597928 0)
  (0.016816 0.00751701 0)
  (0.0259934 0.0119511 0)
  (0.0324721 0.0142708 0)
  (0.104219 0.0602294 0)
  (-0.318243 0.171757 0)
  (0.51014 0.244516 0)
  (0.244479 0.172355 0)
  (0.258099 0.118877 0)
  (0.273913 0.0605163 0)
  (0.25885 0.00314396 0)
  (0.227828 -0.0415914 0)
  (0.187988 -0.0688566 0)
  (0.141903 -0.0784936 0)
  (0.0939128 -0.0731814 0)
  (0.0477262 -0.0555307 0)
  (0.00937859 -0.0319524 0)
  (-0.0181926 -0.00997652 0)
  (-0.031461 0.00175132 0)
  (-0.0363352 0.00715121 0)
  (-0.0361757 0.00949876 0)
  (-0.0338676 0.0101084 0)
  (-0.0312653 0.00893742 0)
  (-0.0305161 0.00614743 0)
  (-0.0322783 0.00322262 0)
  (-0.0357483 0.00110137 0)
  (-0.0403126 1.69659e-05 0)
  (-0.0450074 -0.000357397 0)
  (-0.0490712 -0.000456015 0)
  (-0.0520805 -0.000632778 0)
  (-0.0540046 -0.00114355 0)
  (-0.0551195 -0.00216166 0)
  (-0.0558564 -0.00357915 0)
  (-0.0565998 -0.00514325 0)
  (-0.0577538 -0.0065753 0)
  (-0.0597328 -0.00751155 0)
  (-0.0629485 -0.00737799 0)
  (-0.0678048 -0.00524625 0)
  (-0.0747177 8.10752e-05 0)
  (-0.0830843 0.00859196 0)
  (-0.0950888 0.0207476 0)
  (-0.114752 0.0375663 0)
  (-0.141247 0.0596286 0)
  (-0.174636 0.084023 0)
  (-0.227139 0.105199 0)
  (-0.441862 0.113171 0)
  (0.247872 -0.0461749 0)
  (0.23937 -0.0381704 0)
  (0.219429 -0.043007 0)
  (0.181559 -0.0449944 0)
  (0.133449 -0.0420926 0)
  (0.0819597 -0.0350529 0)
  (0.0327487 -0.0236241 0)
  (-0.0159859 -0.00643868 0)
  (-0.0437226 0.00494655 0)
  (-0.0580614 0.0108017 0)
  (-0.0633086 0.0128478 0)
  (-0.0644453 0.0135565 0)
  (-0.0637044 0.0138554 0)
  (-0.0622739 0.0139726 0)
  (-0.0610426 0.0136819 0)
  (-0.0608727 0.0129127 0)
  (-0.0619818 0.0120847 0)
  (-0.0639646 0.0115681 0)
  (-0.0662875 0.0114612 0)
  (-0.0685047 0.0115921 0)
  (-0.070416 0.0118005 0)
  (-0.0720142 0.0120117 0)
  (-0.0733935 0.0121802 0)
  (-0.0748062 0.0123151 0)
  (-0.0765149 0.0124205 0)
  (-0.0786469 0.013113 0)
  (-0.0812265 0.0146916 0)
  (-0.0842516 0.0171576 0)
  (-0.0877727 0.0199572 0)
  (-0.0916915 0.0227359 0)
  (-0.095404 0.0259917 0)
  (-0.098896 0.031225 0)
  (-0.101936 0.0398644 0)
  (-0.104093 0.0529941 0)
  (-0.103111 0.0694072 0)
  (-0.0948967 0.0778684 0)
  (-0.0817804 0.0451304 0)
  (-0.144361 -0.144989 0)
  (0.023567 0.0743529 0)
  (-0.0191155 0.018975 0)
  (-0.0286446 -0.00483805 0)
  (-0.0360667 -0.0192276 0)
  (-0.0485389 -0.0270914 0)
  (-0.0635229 -0.031398 0)
  (-0.0761463 -0.0340868 0)
  (-0.0837794 -0.0370481 0)
  (-0.0874438 -0.0419285 0)
  (-0.0886231 -0.0463302 0)
  (-0.0882271 -0.0495273 0)
  (-0.0870246 -0.0512103 0)
  (-0.0853163 -0.0518889 0)
  (-0.0833218 -0.0523073 0)
  (-0.0813453 -0.053197 0)
  (-0.0797469 -0.0549259 0)
  (-0.0786961 -0.0573112 0)
  (-0.0781205 -0.0599557 0)
  (-0.0778437 -0.0625672 0)
  (-0.0777191 -0.0650912 0)
  (-0.077697 -0.0676044 0)
  (-0.0778142 -0.0702324 0)
  (-0.0781766 -0.0730992 0)
  (-0.0789476 -0.0762306 0)
  (-0.0803464 -0.0794406 0)
  (-0.0824855 -0.0828152 0)
  (-0.0851911 -0.0859407 0)
  (-0.0880802 -0.0879178 0)
  (-0.0906756 -0.0872177 0)
  (-0.0924576 -0.082407 0)
  (-0.0925894 -0.0728793 0)
  (-0.0896723 -0.0582285 0)
  (-0.0817703 -0.0390321 0)
  (-0.0669069 -0.0169982 0)
  (-0.0446114 0.00345403 0)
  (-0.0152163 0.00934847 0)
  (0.0775205 -0.0654946 0)
  (-0.103133 -0.112687 0)
  (-0.180281 -0.225967 0)
  (-0.264863 -0.040842 0)
  (-0.21852 0.128205 0)
  (-0.192984 0.118983 0)
  (-0.167152 0.122364 0)
  (-0.155712 0.131852 0)
  (-0.149802 0.142124 0)
  (-0.144692 0.152286 0)
  (-0.138383 0.162788 0)
  (-0.13067 0.173173 0)
  (-0.122922 0.182626 0)
  (-0.116185 0.189816 0)
  (-0.110762 0.194567 0)
  (-0.10637 0.197442 0)
  (-0.102493 0.199384 0)
  (-0.0987665 0.201252 0)
  (-0.0951063 0.203612 0)
  (-0.0916565 0.206602 0)
  (-0.0886078 0.209963 0)
  (-0.0860685 0.213323 0)
  (-0.0840581 0.216435 0)
  (-0.082554 0.21927 0)
  (-0.0815264 0.221957 0)
  (-0.0809451 0.22472 0)
  (-0.0807822 0.227807 0)
  (-0.0809873 0.231386 0)
  (-0.0814223 0.235468 0)
  (-0.0819096 0.240272 0)
  (-0.0822579 0.24551 0)
  (-0.0822023 0.250397 0)
  (-0.0813079 0.253627 0)
  (-0.0788526 0.254164 0)
  (-0.0737816 0.251885 0)
  (-0.0647532 0.247111 0)
  (-0.050712 0.241399 0)
  (-0.0319602 0.237404 0)
  (-0.0081685 0.237897 0)
  (0.0199656 0.243158 0)
  (0.106753 0.280903 0)
  (-0.240258 0.283873 0)
)
;

boundaryField
{
  floor
  {
    type noSlip;
  }
  ceiling
  {
    type noSlip;
  }
  sWall
  {
    type noSlip;
  }
  nWall
  {
    type noSlip;
  }
  sideWalls
  {
    type empty;
  }
  glass1
  {
    type noSlip;
  }
  glass2
  {
    type noSlip;
  }
  sun
  {
    type noSlip;
  }
  heatsource1
  {
    type noSlip;
  }
  heatsource2
  {
    type noSlip;
  }
  Table_master
  {
    type noSlip;
  }
  Table_slave
  {
    type noSlip;
  }
  inlet
  {
    type fixedValue;
    value uniform (0.277164 -0.114805 0);
  }
  outlet
  {
    type zeroGradient;
  }
} 	// ************************************************************************* //

