/*--------------------------------*- C++ -*----------------------------------*\
  =========                 |
  \\      /  F ield         | OpenFOAM: The Open Source CFD Toolbox
   \\    /   O peration     | Website:  https://openfoam.org
    \\  /    A nd           | Version:  6
     \\/     M anipulation  |
\*---------------------------------------------------------------------------*/
FoamFile
{
    version     2.0;
    format      ascii;
    class       surfaceScalarField;
    location    "900";
    object      phi;
}
// * * * * * * * * * * * * * * * * * * * * * * * * * * * * * * * * * * * * * //

dimensions      [1 0 -1 0 0 0 0];

internalField   nonuniform List<scalar> 
852
(
0.00459496
-0.00456222
0.0091798
-0.00458472
0.011689
-0.00250906
0.0129977
-0.00130863
0.0137666
-0.00076879
0.0141779
-0.000411127
0.0142729
-9.49542e-05
0.0140856
0.00018741
0.0136333
0.000452447
0.0129068
0.000726634
0.0118706
0.00103632
0.0104501
0.00142061
0.00848122
0.00196897
0.005506
0.00297532
0.00550565
-0.000244629
0.00024713
-6.08942e-05
-0.000183698
0.000167202
-0.000228063
0.000277534
-0.000110305
0.000270346
7.21231e-06
0.000147027
0.000123342
-4.70591e-05
0.000194101
-0.000185635
0.000138571
-0.000266152
8.05084e-05
-0.000318101
5.19361e-05
-0.000361546
4.34272e-05
-0.000389566
2.80017e-05
-0.000359426
-3.01451e-05
-0.000215459
-0.000143956
5.34958e-05
-0.000268931
0.000264067
-0.000210513
0.000486512
-0.000222391
0.000561404
-7.48445e-05
0.000564523
0.00541896
-0.00988809
0.00817451
-0.00734016
0.00965151
-0.00398595
0.0105596
-0.00221664
0.0111404
-0.00134944
0.0114686
-0.000739195
0.011574
-0.000200281
0.0114573
0.00030424
0.011113
0.000796851
0.0105296
0.00131018
0.00969319
0.00187286
0.00860006
0.00251385
0.00729853
0.00327061
0.00611932
0.00415463
0.00654366
0.0050814
0.00259729
0.0039464
0.00259732
0.000696836
-0.000444019
0.000587372
-7.41974e-05
0.000320522
3.88213e-05
0.000184733
2.55072e-05
0.000137335
5.46248e-05
5.92998e-05
0.000201391
-9.7799e-06
0.000263194
-4.28286e-06
0.000133084
5.37243e-06
7.08601e-05
1.53401e-05
4.1974e-05
3.01857e-05
2.8586e-05
4.67482e-05
1.14418e-05
5.20956e-05
-3.54899e-05
5.21747e-05
-0.000144029
9.37763e-05
-0.0003105
0.000209314
-0.000325964
0.000393755
-0.000406775
0.000358396
-3.94371e-05
0.000930707
0.00396822
-0.0137052
0.00564983
-0.00902165
0.00651866
-0.00485466
0.00712693
-0.00282478
0.00756092
-0.00178331
0.00783618
-0.00101434
0.00798886
-0.000352834
0.00801049
0.000282726
0.00787248
0.000934983
0.0075512
0.00163159
0.00703895
0.00238523
0.00635419
0.00319872
0.0055644
0.0040605
0.0047813
0.00493783
0.00400968
0.00585311
0.00235025
0.0056059
0.00494765
-0.000431224
-5.04e-06
-0.00057706
7.16686e-05
-0.000603839
6.56226e-05
-0.000585974
7.65377e-06
-0.000481759
-4.95864e-05
-0.000161229
-0.000119131
0.000102136
0.000235399
0.000306437
0.000348588
0.000377351
0.000388968
0.000353652
0.000209795
-0.000100466
-0.00011526
-0.000311089
-0.00066975
0.00014777
-0.000990073
0.000280936
-4.74211e-05
0.00236238
-0.0158591
0.00326924
-0.00992838
0.00383369
-0.00541899
0.00409914
-0.00309011
0.00432918
-0.00201324
0.00451938
-0.00120441
0.00468322
-0.00051655
0.00478739
0.000178673
0.00478735
0.000935141
0.00465507
0.00176398
0.0043781
0.00266231
0.00396093
0.003616
0.00342054
0.00460099
0.0027706
0.00558787
0.00207509
0.00654869
0.00124966
0.00643141
0.000619064
0.00557833
-0.00127569
0.00189766
-0.00148127
0.000200589
-0.00156695
0.000157392
-0.00164844
0.000147166
-0.00173498
9.42411e-05
-0.00180294
1.84298e-05
-0.00187207
-4.99433e-05
-0.00178301
-8.91453e-05
-0.00163744
-0.000145665
-0.00142234
-0.000215185
-0.00113079
-0.000291643
-0.000755347
-0.000375537
-0.000295788
-0.000459653
0.000222927
-0.00051881
0.000731949
-0.000509118
0.00116823
-0.000436383
0.00114206
-0.000284871
0.00115043
0.000139454
0.000943756
0.000487657
0.000906571
0.0010561
-0.0166492
0.00146419
-0.0103363
0.00174099
-0.00569567
0.00151092
-0.00285992
0.00157475
-0.00207696
0.00173901
-0.00136856
0.00192256
-0.000699982
0.00205597
4.53731e-05
0.00210201
0.000889221
0.00205361
0.00181249
0.00190089
0.00281514
0.00163967
0.00387733
0.00126973
0.00497102
0.000810835
0.00604686
0.000367525
0.00699208
-0.0001404
0.00693941
-0.000483496
0.00592151
-0.000954429
0.00236863
-0.00142573
0.000671943
-0.00161902
0.000350741
-0.00171233
0.000240538
-0.00176375
0.000145725
-0.00178895
4.36928e-05
-0.00178297
-5.58547e-05
-0.0017206
-0.000151442
-0.00161102
-0.000255178
-0.00145473
-0.00037141
-0.00124711
-0.000499203
-0.000989064
-0.000633514
-0.000687788
-0.000760866
-0.00035127
-0.000855265
2.58123e-05
-0.000886137
0.000411639
-0.000822148
0.000761267
-0.000634437
0.00115784
-0.000257053
0.00146952
0.000176036
0.00192335
0.000452807
0.00116042
0.00076279
-0.000319683
0.00147997
-0.000281038
-7.58704e-06
-0.0163177
3.78233e-05
-0.0103816
-0.000172991
-0.00548473
-0.000746483
-0.00228632
-0.000753404
-0.00206992
-0.00061561
-0.00150624
-0.000474701
-0.00084078
-0.000381536
-4.76812e-05
-0.000341799
0.000849598
-0.000352928
0.00182374
-0.00041849
0.00288081
-0.000544199
0.00400314
-0.000730546
0.00515747
-0.000952064
0.00626846
-0.00110579
0.00714588
-0.00124291
0.00707661
-0.00113718
0.00581585
-0.00117329
0.00240478
-0.00139605
0.000894753
-0.00152328
0.000478043
-0.0015822
0.000299521
-0.00160605
0.000169654
-0.00161004
4.77472e-05
-0.00159541
-7.04077e-05
-0.00155971
-0.000187071
-0.00150409
-0.000310724
-0.00142817
-0.000447255
-0.00133073
-0.000596581
-0.00121309
-0.000751083
-0.00107936
-0.00089452
-0.000930894
-0.00100367
-0.000762449
-0.00105451
-0.000558333
-0.00102619
-0.000281159
-0.000911529
0.000188524
-0.000726633
0.000905968
-0.000541291
0.00166562
-0.000306708
0.0021228
0.000305716
0.00229264
0.00131022
0.00205541
-0.00105325
-0.0148831
-0.00181637
-0.00961835
-0.00241772
-0.00488325
-0.00305167
-0.00165224
-0.00310263
-0.00201885
-0.00299739
-0.00161137
-0.00287433
-0.000963725
-0.00277122
-0.00015068
-0.00268823
0.000766728
-0.00262138
0.00175699
-0.0025611
0.00282064
-0.00250523
0.00394738
-0.00244864
0.00510097
-0.00236568
0.00618559
-0.00218376
0.00696404
-0.00193313
0.00682605
-0.00149829
0.00538107
-0.00133651
0.00224303
-0.00134782
0.000906128
-0.00135238
0.000482672
-0.00133672
0.000283928
-0.00131071
0.000143724
-0.00128318
2.0296e-05
-0.00126117
-9.23443e-05
-0.00125029
-0.000197874
-0.00125314
-0.000307802
-0.00127069
-0.000429622
-0.00130498
-0.000562214
-0.00136003
-0.000695957
-0.0014403
-0.000814179
-0.00154495
-0.000898931
-0.00166179
-0.000937597
-0.00176518
-0.00092271
-0.0018223
-0.00085429
-0.0017943
-0.000754475
-0.00161942
-0.000715984
-0.00102818
-0.00089773
0.000425888
-0.00114808
0.00155377
0.000182434
0.00365576
-0.00387717
-0.0105692
-0.00614428
-0.00735111
-0.00608121
-0.00494618
-0.00610873
-0.00162459
-0.00569204
-0.00243543
-0.00535859
-0.00194469
-0.00513925
-0.00118294
-0.0049718
-0.000318014
-0.00481464
0.000609694
-0.0046371
0.00157957
-0.0044117
0.00259535
-0.00412472
0.00366051
-0.00376742
0.00474377
-0.0033267
0.00574495
-0.00278032
0.00641774
-0.00218691
0.0062327
-0.00155681
0.00475102
-0.00125697
0.00194323
-0.00113126
0.000780487
-0.00102941
0.000380899
-0.000928083
0.000182678
-0.000831029
4.6747e-05
-0.000754211
-5.64448e-05
-0.000713918
-0.000132559
-0.000715644
-0.000196068
-0.00076163
-0.000261736
-0.000855284
-0.000335885
-0.00100459
-0.000412824
-0.00122266
-0.000477796
-0.00152833
-0.000508425
-0.00194235
-0.000484825
-0.00247701
-0.000402842
-0.00312347
-0.000276124
-0.00383516
-0.000142442
-0.00453971
-4.96965e-05
-0.00520873
-4.6676e-05
-0.00593119
-0.000174966
-0.00661298
-0.000465987
-0.00541899
-0.00101126
-0.00154101
-0.0100951
-0.0174559
-0.0121314
-0.0102705
-0.00863486
-0.00512104
-0.00753806
-0.00353209
-0.00708068
-0.00240194
-0.00688193
-0.00138156
-0.00673778
-0.000462041
-0.00654535
0.000417398
-0.00625654
0.00129089
-0.00584669
0.00218562
-0.00529847
0.0031124
-0.00460637
0.00405177
-0.00378019
0.00491886
-0.00285675
0.00549438
-0.0019552
0.00533122
-0.00119142
0.00398728
-0.000779301
0.00153116
-0.000584716
0.00058598
-0.000421258
0.000217523
-0.000249617
1.11223e-05
-9.45062e-05
-0.000108279
1.0319e-05
-0.000161186
5.96246e-05
-0.000181782
5.71351e-05
-0.000193497
3.31456e-06
-0.000207831
-0.000105025
-0.000227457
-0.000272272
-0.000245481
-0.000503123
-0.000246843
-0.000800155
-0.000211282
-0.00115944
-0.000125423
-0.00155364
-8.53599e-06
-0.00195878
0.00012913
-0.00236926
0.000268159
-0.00277632
0.000357469
-0.00318096
0.000358082
-0.00364031
0.000284509
-0.00402242
-8.37589e-05
-0.00334646
-0.00168707
-0.00466371
-0.010361
0.000217269
-0.00808005
-0.00740182
-0.00775196
-0.00386005
-0.0078558
-0.00229795
-0.00794328
-0.00129394
-0.00791564
-0.000489542
-0.00773086
0.000232756
-0.00736681
0.000926965
-0.00679279
0.00161173
-0.00599207
0.00231181
-0.00496628
0.00302609
-0.00375061
0.0037033
-0.00243292
0.00417678
-0.00121266
0.00411104
-0.00010699
0.00288167
0.000351342
0.00107291
0.000550549
0.000386863
0.000721682
4.64844e-05
0.000860756
-0.000127854
0.000947694
-0.000195121
0.000990708
-0.000204105
0.00100082
-0.000191802
0.00098322
-0.000175807
0.000937946
-0.000162469
0.000862528
-0.00015195
0.000756621
-0.00013948
0.000626399
-0.000116521
0.000488819
-7.35893e-05
0.000363771
-2.5123e-07
0.000257922
9.7448e-05
0.00017811
0.000209076
0.000140011
0.000306395
0.000157507
0.000340115
0.000275906
0.000239828
0.000635725
-7.51592e-05
0.00121047
-0.000658347
0.00132319
-0.00179962
-0.00329124
-0.000626796
0.000827232
-0.00502716
-0.00300133
-0.00693787
-0.0019492
-0.00799453
-0.00124115
-0.0085616
-0.000726728
-0.00874577
-0.000305226
-0.00859845
8.558e-05
-0.00816141
0.00049007
-0.00742801
0.000878462
-0.00638435
0.00126828
-0.00502832
0.00167018
-0.00340903
0.00208413
-0.00164416
0.00241202
0.000164811
0.00230215
0.00164388
0.00140269
0.00215587
0.000561017
0.00234837
0.000194479
0.00238673
8.22595e-06
0.00232823
-6.92439e-05
0.00223624
-0.000103016
0.00214364
-0.000111403
0.00206023
-0.000108285
0.00198547
-0.00010095
0.00191417
-9.10718e-05
0.00184033
-7.80162e-05
0.00176147
-6.0522e-05
0.00168265
-3.75994e-05
0.00161793
-8.76018e-06
0.00158829
2.95034e-05
0.00160313
8.27313e-05
0.00167494
0.000137407
0.00180392
0.000177557
0.00197521
0.000168969
0.00215767
5.75371e-05
0.00226203
-0.000179357
0.0020987
-0.000494838
0.00129071
-0.00099146
-0.00194316
0.00468987
-0.00224611
-0.00144815
-0.00448859
-0.00647621
-0.00775541
-0.0085198
-0.00886238
-0.0088139
-0.00836067
-0.00751877
-0.00628673
-0.00465239
-0.00260363
-0.000226348
0.00204303
0.0034146
0.00394491
0.00410893
0.00408699
0.0039883
0.00385682
0.003718
0.00358323
0.00345662
0.00334056
0.00323816
0.00315386
0.00309313
0.003062
0.0030701
0.00313255
0.00325085
0.00341036
0.00356209
0.00360276
0.00340657
0.00289471
0.00188629
)
;

boundaryField
{
    floor
    {
        type            calculated;
        value           nonuniform List<scalar> 
29
(
0
0
0
0
0
0
0
0
0
0
0
0
0
0
0
0
0
0
0
0
-3.07612e-06
-7.74632e-06
-1.18932e-05
-1.01868e-05
4.40784e-07
-2.46328e-06
-5.64864e-06
-7.71865e-06
-2.83786e-06
)
;
    }
    ceiling
    {
        type            calculated;
        value           nonuniform List<scalar> 
43
(
5.62285e-05
4.79983e-05
2.94172e-05
3.92491e-05
3.85615e-05
3.81933e-05
3.77999e-05
3.74996e-05
3.72488e-05
3.69907e-05
3.67079e-05
3.63776e-05
3.59863e-05
3.551e-05
3.48799e-05
3.28826e-05
3.12382e-05
3.0839e-05
3.05886e-05
3.02946e-05
2.95686e-05
2.85808e-05
2.75427e-05
2.65933e-05
2.57827e-05
2.5097e-05
2.44869e-05
2.38867e-05
2.32309e-05
2.24717e-05
2.15169e-05
2.03896e-05
1.92254e-05
1.81696e-05
1.73773e-05
1.70238e-05
1.69938e-05
1.71822e-05
1.71295e-05
1.85154e-05
1.20841e-05
9.78069e-06
1.69734e-05
)
;
    }
    sWall
    {
        type            calculated;
        value           uniform -0.000153071;
    }
    nWall
    {
        type            calculated;
        value           nonuniform List<scalar> 6(-3.87806e-05 -4.37333e-05 -4.64893e-05 -4.91041e-05 -5.71915e-05 -7.52033e-05);
    }
    sideWalls
    {
        type            empty;
        value           nonuniform 0();
    }
    glass1
    {
        type            calculated;
        value           nonuniform List<scalar> 9(-3.26358e-05 -9.29818e-05 -0.000150986 -0.000208385 -0.000265893 -0.000323803 -0.000381252 -0.00043651 -0.000486048);
    }
    glass2
    {
        type            calculated;
        value           nonuniform List<scalar> 2(-0.000221967 -0.000223595);
    }
    sun
    {
        type            calculated;
        value           uniform 0;
    }
    heatsource1
    {
        type            calculated;
        value           nonuniform List<scalar> 3(2.03071e-07 2.0331e-07 2.03785e-07);
    }
    heatsource2
    {
        type            calculated;
        value           nonuniform List<scalar> 4(4.95805e-08 5.00288e-08 0 0);
    }
    Table_master
    {
        type            calculated;
        value           nonuniform List<scalar> 9(-1.53064e-07 -1.53133e-07 -1.5314e-07 -1.5315e-07 -1.5316e-07 -1.53174e-07 -1.5319e-07 -1.53216e-07 -1.53203e-07);
    }
    Table_slave
    {
        type            calculated;
        value           nonuniform List<scalar> 9(1.5223e-07 1.52252e-07 1.52291e-07 1.52354e-07 1.52445e-07 1.52566e-07 1.52645e-07 1.52583e-07 1.52443e-07);
    }
    inlet
    {
        type            calculated;
        value           uniform -0.000126625;
    }
    outlet
    {
        type            calculated;
        value           nonuniform List<scalar> 2(-0.00459279 0.00688822);
    }
}


// ************************************************************************* //
