// -*- C++ -*-
// File generated by PyFoam - sorry for the ugliness

FoamFile
{
 version 2.0;
 format ascii;
 class volScalarField;
 location "900";
 object T;
}

dimensions [ 0 0 0 1 0 0 0 ];

internalField nonuniform List<scalar> 459
(
  306.329
  306.159
  306.097
  306.065
  306.045
  306.031
  306.022
  306.016
  306.009
  306.002
  305.996
  305.99
  305.983
  305.977
  305.968
  303.808
  303.806
  303.803
  303.799
  303.794
  303.787
  303.773
  303.746
  303.717
  303.691
  303.666
  303.64
  303.614
  303.596
  303.588
  303.614
  303.608
  303.596
  303.595
  306.238
  306.001
  305.903
  305.855
  305.828
  305.812
  305.806
  305.806
  305.81
  305.819
  305.831
  305.848
  305.87
  305.897
  305.926
  305.92
  305.908
  303.839
  303.828
  303.817
  303.81
  303.803
  303.788
  303.76
  303.726
  303.696
  303.67
  303.65
  303.632
  303.614
  303.596
  303.59
  303.669
  303.638
  303.61
  303.597
  306.166
  305.824
  305.709
  305.659
  305.634
  305.621
  305.616
  305.623
  305.638
  305.662
  305.693
  305.731
  305.775
  305.824
  305.872
  305.891
  305.893
  303.867
  303.851
  303.848
  303.847
  303.843
  303.826
  303.752
  303.709
  303.684
  303.663
  303.644
  303.628
  303.613
  303.599
  303.607
  303.77
  303.661
  303.627
  303.613
  306.099
  305.667
  305.569
  305.543
  305.531
  305.525
  305.52
  305.524
  305.54
  305.569
  305.608
  305.657
  305.713
  305.774
  305.836
  305.87
  305.848
  304.604
  303.966
  303.916
  303.923
  303.935
  303.946
  303.957
  303.967
  303.971
  303.973
  303.974
  303.974
  303.972
  303.968
  303.961
  303.952
  303.928
  303.87
  303.811
  303.799
  306.027
  305.552
  305.505
  305.51
  305.512
  305.507
  305.5
  305.495
  305.504
  305.529
  305.569
  305.622
  305.685
  305.753
  305.82
  305.85
  305.694
  304.448
  304.002
  303.963
  303.97
  303.982
  303.993
  304.001
  304.007
  304.009
  304.01
  304.007
  304.003
  303.997
  303.989
  303.98
  303.968
  303.951
  303.922
  303.88
  303.848
  303.843
  303.849
  303.916
  305.945
  305.487
  305.492
  305.52
  305.524
  305.518
  305.507
  305.496
  305.503
  305.528
  305.569
  305.623
  305.687
  305.753
  305.805
  305.775
  305.449
  304.349
  304.028
  304
  304.01
  304.024
  304.036
  304.045
  304.051
  304.052
  304.049
  304.042
  304.033
  304.021
  304.01
  303.998
  303.986
  303.973
  303.955
  303.93
  303.906
  303.884
  303.866
  303.876
  305.846
  305.469
  305.494
  305.534
  305.542
  305.541
  305.536
  305.533
  305.54
  305.563
  305.599
  305.647
  305.7
  305.747
  305.757
  305.636
  305.191
  304.284
  304.058
  304.041
  304.057
  304.076
  304.092
  304.104
  304.108
  304.107
  304.099
  304.087
  304.07
  304.052
  304.035
  304.022
  304.011
  304.002
  303.994
  303.99
  303.989
  303.98
  303.91
  303.9
  305.744
  305.452
  305.481
  305.545
  305.56
  305.57
  305.577
  305.582
  305.59
  305.607
  305.634
  305.667
  305.699
  305.711
  305.665
  305.463
  304.97
  304.257
  304.1
  304.096
  304.119
  304.145
  304.167
  304.18
  304.184
  304.18
  304.167
  304.147
  304.121
  304.095
  304.072
  304.056
  304.049
  304.049
  304.055
  304.066
  304.081
  304.093
  304.1
  304.103
  305.648
  305.416
  305.411
  305.519
  305.554
  305.577
  305.595
  305.608
  305.618
  305.629
  305.644
  305.658
  305.662
  305.638
  305.545
  305.302
  304.826
  304.28
  304.17
  304.176
  304.205
  304.24
  304.264
  304.276
  304.278
  304.272
  304.257
  304.232
  304.2
  304.164
  304.133
  304.113
  304.11
  304.119
  304.136
  304.158
  304.182
  304.205
  304.228
  304.283
  305.286
  305.472
  305.517
  305.547
  305.57
  305.587
  305.598
  305.605
  305.609
  305.606
  305.589
  305.542
  305.431
  305.201
  304.806
  304.378
  304.307
  304.311
  304.341
  304.366
  304.38
  304.387
  304.386
  304.379
  304.364
  304.342
  304.31
  304.272
  304.231
  304.197
  304.169
  304.152
  304.145
  304.146
  304.152
  304.16
  304.172
  304.197
  305.354
  305.436
  305.467
  305.49
  305.507
  305.52
  305.529
  305.532
  305.53
  305.519
  305.494
  305.445
  305.352
  305.181
  304.839
  304.647
  304.575
  304.548
  304.537
  304.532
  304.527
  304.519
  304.509
  304.496
  304.479
  304.456
  304.427
  304.392
  304.352
  304.309
  304.268
  304.233
  304.207
  304.19
  304.185
  304.184
  304.187
  304.208
  307.255
  306.642
  305.443
  305.399
  305.405
  305.41
  305.414
  305.418
  305.421
  305.423
  305.42
  305.411
  305.394
  305.364
  305.314
  305.164
  305.01
  304.932
  304.885
  304.851
  304.817
  304.783
  304.751
  304.719
  304.688
  304.658
  304.628
  304.599
  304.568
  304.536
  304.5
  304.46
  304.418
  304.376
  304.338
  304.307
  304.282
  304.258
  304.234
  304.229
)
;

boundaryField
{
  floor
  {
    type wallHeatTransfer;
    Tinf uniform 305.2;
    alphaWall uniform 0.24;
    value nonuniform List<scalar> 29
(
  305.907
  304.138
  304.104
  304.101
  304.111
  304.126
  304.141
  304.16
  304.186
  304.206
  304.219
  304.23
  304.235
  304.23
  304.208
  304.173
  304.048
  303.992
  303.979
  304.007
  304.007
  303.943
  303.932
  303.994
  305.907
  304.138
  304.091
  304.074
  304.672
)
;
  }
  ceiling
  {
    type wallHeatTransfer;
    Tinf uniform 303.2;
    alphaWall uniform 0.24;
    value nonuniform List<scalar> 43
(
  306.932
  306.363
  305.273
  305.172
  305.182
  305.188
  305.194
  305.199
  305.204
  305.207
  305.206
  305.199
  305.185
  305.159
  305.113
  304.974
  304.83
  304.754
  304.708
  304.676
  304.646
  304.618
  304.592
  304.565
  304.539
  304.513
  304.487
  304.461
  304.434
  304.406
  304.375
  304.342
  304.306
  304.27
  304.237
  304.208
  304.182
  304.158
  304.134
  304.122
  305.552
  305.336
  305.244
)
;
  }
  sWall
  {
    type wallHeatTransfer;
    Tinf uniform 315.2;
    alphaWall uniform 0.36;
    value uniform 308.171;
  }
  nWall
  {
    type wallHeatTransfer;
    Tinf uniform 307.2;
    alphaWall uniform 0.36;
    value nonuniform List<scalar> 6
(
  304.495
  304.412
  304.384
  304.548
  304.577
  304.67
)
;
  }
  sideWalls
  {
    type empty;
  }
  glass1
  {
    type wallHeatTransfer;
    Tinf uniform 315.2;
    alphaWall uniform 4.3;
    value nonuniform List<scalar> 9
(
  310.948
  310.671
  310.517
  310.406
  310.306
  310.204
  310.083
  309.933
  309.719
)
;
  }
  glass2
  {
    type wallHeatTransfer;
    Tinf uniform 307.2;
    alphaWall uniform 4.3;
    value nonuniform List<scalar> 2
(
  306.136
  306.088
)
;
  }
  sun
  {
    type wallHeatTransfer;
    Tinf uniform 305.2;
    alphaWall uniform 0.24;
    value nonuniform List<scalar> 14
(
  306.265
  306.104
  306.044
  306.013
  305.993
  305.979
  305.97
  305.962
  305.955
  305.948
  305.941
  305.934
  305.927
  305.919
)
;
  }
  heatsource1
  {
    type fixedGradient;
    gradient uniform 0;
  }
  heatsource2
  {
    type fixedGradient;
    gradient uniform 0;
  }
  Table_master
  {
    type zeroGradient;
  }
  Table_slave
  {
    type zeroGradient;
  }
  inlet
  {
    type fixedValue;
    value uniform 290.15;
  }
  outlet
  {
    type zeroGradient;
  }
} 	// ************************************************************************* //

