/*--------------------------------*- C++ -*----------------------------------*\
  =========                 |
  \\      /  F ield         | OpenFOAM: The Open Source CFD Toolbox
   \\    /   O peration     | Website:  https://openfoam.org
    \\  /    A nd           | Version:  6
     \\/     M anipulation  |
\*---------------------------------------------------------------------------*/
FoamFile
{
    version     2.0;
    format      ascii;
    class       volScalarField;
    location    "300";
    object      nut;
}
// * * * * * * * * * * * * * * * * * * * * * * * * * * * * * * * * * * * * * //

dimensions      [0 2 -1 0 0 0 0];

internalField   nonuniform List<scalar> 
459
(
0.00150733
0.00171425
0.00191263
0.00196229
0.00187094
0.00177657
0.00168148
0.00158927
0.00150018
0.00141613
0.0013402
0.00126693
0.00119147
0.0011066
0.00100622
0.000539433
0.000624056
0.000702251
0.000783334
0.000853223
0.000883496
0.000846239
0.000796766
0.000752419
0.000714683
0.00068266
0.000655485
0.000632178
0.000611508
0.000592572
0.000573501
0.000551875
0.000522264
0.00047855
0.00164508
0.00312795
0.00381049
0.0040537
0.00407627
0.00400745
0.00386849
0.00370244
0.00353309
0.0033512
0.00312408
0.00286593
0.00257311
0.00221603
0.00170865
0.00107335
0.000948358
0.000522749
0.00101294
0.0015765
0.00208106
0.00258144
0.00282019
0.00201655
0.00170842
0.00150615
0.00136443
0.00126103
0.0011846
0.00113253
0.00110799
0.00105281
0.000975874
0.000896107
0.000773986
0.00048909
0.00165189
0.00286795
0.00353979
0.00383353
0.0039491
0.00394207
0.00387467
0.00378399
0.00368815
0.00359122
0.00348043
0.00333782
0.00313657
0.00283934
0.00239573
0.00182366
0.00101363
0.000520624
0.00117953
0.00149587
0.00209646
0.00281043
0.00313977
0.00104749
0.000935939
0.000833392
0.000744173
0.000667183
0.000599707
0.000539507
0.000489261
0.000473547
0.00061089
0.00074331
0.000761659
0.000485172
0.00167857
0.00295204
0.00354277
0.00379699
0.00388027
0.00386998
0.00382484
0.00376884
0.00370744
0.0036608
0.00360567
0.00351854
0.00337389
0.00314145
0.00278711
0.00229651
0.00150885
0.00102013
0.000902734
0.00105273
0.00160821
0.0025169
0.00346421
0.00388239
0.00120411
0.00112785
0.00106347
0.00100665
0.000956856
0.000910195
0.000863197
0.00081281
0.000755008
0.000693261
0.000694831
0.000749009
0.000494827
0.00238971
0.00409395
0.00426652
0.00415413
0.00410188
0.0040773
0.00409027
0.0041213
0.00413243
0.00407347
0.00396227
0.00381378
0.00362725
0.00338944
0.00308487
0.0026993
0.002173
0.00184901
0.00177832
0.00211997
0.00295584
0.00401831
0.00494642
0.00546919
0.00517508
0.00483162
0.00455737
0.00433954
0.00403781
0.00364738
0.00317963
0.00263796
0.00203302
0.00143015
0.00101633
0.000851588
0.000587099
0.000482549
0.000350285
0.000320358
0.00294062
0.00585218
0.0049145
0.00431967
0.00438896
0.00456592
0.00489421
0.00517689
0.00504218
0.00474116
0.0044563
0.00420484
0.00396602
0.00372538
0.00347816
0.00322748
0.00297247
0.00294704
0.00334168
0.00425072
0.00536703
0.00631311
0.00687438
0.00699575
0.00676315
0.00646247
0.00617279
0.00579784
0.00531253
0.00472776
0.00405701
0.00331302
0.00252036
0.00175939
0.00119657
0.000918953
0.000681392
0.000596416
0.000589567
0.000400857
0.00299985
0.00680069
0.00453532
0.00470256
0.00568899
0.00595526
0.00609032
0.00597587
0.00558332
0.00521805
0.00493202
0.0047016
0.00449981
0.00433587
0.00422497
0.00420965
0.00437499
0.00497338
0.00602096
0.00714607
0.00796786
0.00836505
0.00832502
0.00793809
0.00739415
0.0068812
0.00637797
0.00582161
0.00519367
0.00450094
0.00376068
0.00299591
0.00223964
0.0015727
0.00110484
0.000877862
0.000708522
0.000663781
0.000672741
0.000413758
0.00286345
0.00498053
0.00363934
0.00453742
0.0058062
0.00642132
0.00654074
0.00642292
0.00616863
0.00590996
0.00572555
0.00560701
0.00554828
0.00556265
0.00569161
0.00602279
0.00666128
0.00761944
0.00862112
0.00929113
0.00945648
0.00917941
0.0085471
0.00772988
0.00688089
0.00612672
0.0054552
0.00479462
0.00411652
0.00343267
0.00276948
0.00215674
0.00162336
0.00120516
0.000929945
0.000798652
0.000712292
0.000731021
0.00092784
0.000428446
0.00265092
0.00290261
0.00348847
0.00512433
0.00561693
0.00631257
0.00663995
0.0068043
0.00685409
0.00682019
0.00680397
0.00684478
0.00695526
0.00715591
0.00748039
0.00796458
0.00859835
0.0092414
0.00964352
0.00962442
0.00915743
0.00833353
0.00728542
0.00621
0.00528134
0.0045267
0.00388868
0.00330509
0.00275674
0.00225251
0.00180805
0.00143673
0.00114643
0.000939749
0.000811732
0.000751463
0.000728748
0.000768469
0.000932172
0.000420175
0.00350746
0.00598217
0.00590662
0.00622975
0.00658434
0.00692318
0.00720252
0.00739649
0.00754091
0.00770924
0.00791568
0.00816348
0.00844527
0.00872788
0.00893251
0.00893405
0.00863674
0.00804292
0.00725849
0.00643357
0.00569454
0.00511083
0.00467564
0.00433184
0.00402407
0.00371695
0.00339177
0.00303893
0.00265714
0.00225727
0.00186505
0.00151694
0.0012461
0.00106433
0.000947508
0.000855328
0.000779618
0.000562065
0.00223755
0.0061903
0.00631898
0.00617813
0.0062132
0.00632167
0.00643879
0.00653578
0.00661273
0.00673273
0.00688383
0.00704766
0.00719898
0.00730109
0.00730761
0.00718
0.00692177
0.00658722
0.00625098
0.00596736
0.005755
0.00560321
0.0054863
0.00537857
0.00525995
0.00511334
0.00492166
0.00466716
0.00433495
0.00392015
0.00343611
0.00291905
0.00242172
0.0019945
0.00166679
0.00145696
0.00139017
0.000988275
0.00155785
0.00150608
0.00156012
0.00153969
0.0015101
0.00150011
0.00150803
0.00152303
0.00154238
0.00156629
0.00159361
0.00161771
0.00163825
0.00165439
0.00166463
0.00166705
0.00165994
0.00164303
0.00161887
0.00159218
0.00156772
0.0015481
0.00153335
0.00152195
0.00151191
0.00150123
0.001488
0.0014705
0.00144723
0.00141712
0.00137993
0.00133653
0.00128895
0.00124006
0.00119333
0.00115301
0.00112486
0.0011179
0.00114523
0.00123921
)
;

boundaryField
{
    floor
    {
        type            nutkWallFunction;
        Cmu             0.09;
        kappa           0.41;
        E               9.8;
        value           nonuniform List<scalar> 
29
(
0.00012148
6.46921e-05
7.5319e-05
8.49835e-05
9.48698e-05
0.000103296
0.000106923
0.000102464
9.6506e-05
9.11274e-05
8.6521e-05
8.25889e-05
7.92348e-05
7.63445e-05
7.37703e-05
7.14026e-05
6.90081e-05
6.62803e-05
6.2523e-05
5.69246e-05
5.69245e-05
5.82744e-05
5.77668e-05
5.90017e-05
0.00012148
6.46921e-05
6.2574e-05
6.23067e-05
0.000123109
)
;
    }
    ceiling
    {
        type            nutkWallFunction;
        Cmu             0.09;
        kappa           0.41;
        E               9.8;
        value           nonuniform List<scalar> 
43
(
0.000184785
0.00017893
0.000184977
0.00018269
0.000179365
0.00017824
0.000179131
0.000180817
0.00018299
0.000185672
0.00018873
0.000191423
0.000193716
0.000195516
0.000196658
0.000196929
0.000196139
0.000194258
0.000191564
0.000188582
0.000185845
0.000183647
0.000181993
0.000180713
0.000179587
0.000178387
0.0001769
0.000174931
0.000172308
0.000168907
0.000164695
0.000159762
0.000154333
0.000148731
0.000143352
0.000138694
0.000135433
0.000134632
0.0001378
0.000148583
0.00030333
0.000329769
0.000259305
)
;
    }
    sWall
    {
        type            nutkWallFunction;
        Cmu             0.09;
        kappa           0.41;
        E               9.8;
        value           uniform 0.000184824;
    }
    nWall
    {
        type            nutkWallFunction;
        Cmu             0.09;
        kappa           0.41;
        E               9.8;
        value           nonuniform List<scalar> 6(3.60404e-05 4.67688e-05 4.84608e-05 6.74243e-05 0.000119384 0.000148591);
    }
    sideWalls
    {
        type            empty;
    }
    glass1
    {
        type            nutkWallFunction;
        Cmu             0.09;
        kappa           0.41;
        E               9.8;
        value           nonuniform List<scalar> 9(0.000179215 0.000194659 0.000195417 0.000198397 0.000275989 0.000334307 0.000340497 0.000326185 0.000303748);
    }
    glass2
    {
        type            nutkWallFunction;
        Cmu             0.09;
        kappa           0.41;
        E               9.8;
        value           nonuniform List<scalar> 2(5.0352e-05 4.92713e-05);
    }
    sun
    {
        type            nutkWallFunction;
        Cmu             0.09;
        kappa           0.41;
        E               9.8;
        value           nonuniform List<scalar> 
14
(
0.000179027
0.000202122
0.000223985
0.000229414
0.000219406
0.000209014
0.000198481
0.000188206
0.000178216
0.000168732
0.000160111
0.00015174
0.000143061
0.000133225
)
;
    }
    heatsource1
    {
        type            nutkWallFunction;
        Cmu             0.09;
        kappa           0.41;
        E               9.8;
        value           nonuniform List<scalar> 3(5.74113e-05 4.00854e-05 3.60425e-05);
    }
    heatsource2
    {
        type            nutkWallFunction;
        Cmu             0.09;
        kappa           0.41;
        E               9.8;
        value           nonuniform List<scalar> 4(0.000129346 0.000114647 0.000114647 0.000122347);
    }
    Table_master
    {
        type            nutkWallFunction;
        Cmu             0.09;
        kappa           0.41;
        E               9.8;
        value           nonuniform List<scalar> 9(0.000126314 0.000113167 0.000100918 9.01164e-05 8.06691e-05 7.22785e-05 6.46933e-05 5.82848e-05 5.62698e-05);
    }
    Table_slave
    {
        type            nutkWallFunction;
        Cmu             0.09;
        kappa           0.41;
        E               9.8;
        value           nonuniform List<scalar> 9(0.000144507 0.000135681 0.000128178 0.000121513 0.000115636 0.000110098 0.000104486 9.84308e-05 9.14293e-05);
    }
    inlet
    {
        type            calculated;
        value           uniform 0.000100623;
    }
    outlet
    {
        type            calculated;
        value           nonuniform List<scalar> 2(0.00155785 0.00150608);
    }
}


// ************************************************************************* //
