/*--------------------------------*- C++ -*----------------------------------*\
  =========                 |
  \\      /  F ield         | OpenFOAM: The Open Source CFD Toolbox
   \\    /   O peration     | Website:  https://openfoam.org
    \\  /    A nd           | Version:  6
     \\/     M anipulation  |
\*---------------------------------------------------------------------------*/
FoamFile
{
    version     2.0;
    format      ascii;
    class       volScalarField;
    location    "550";
    object      epsilon;
}
// * * * * * * * * * * * * * * * * * * * * * * * * * * * * * * * * * * * * * //

dimensions      [0 2 -3 0 0 0 0];

internalField   nonuniform List<scalar> 
459
(
2.3884e-05
6.01087e-05
0.000110471
0.000211163
0.000219619
0.000210536
0.00019318
0.000174159
0.000155832
0.000139339
0.000124693
0.000110674
9.62937e-05
8.0279e-05
6.42476e-05
4.86411e-05
8.58183e-05
8.87918e-05
8.12433e-05
7.04863e-05
5.97484e-05
4.89427e-05
3.99849e-05
3.30293e-05
2.76582e-05
2.34662e-05
2.01404e-05
1.74482e-05
1.52372e-05
1.3328e-05
1.15689e-05
9.95021e-06
8.00818e-06
9.67333e-06
7.73394e-05
9.31514e-05
0.000129918
0.00017773
0.000175423
0.000159784
0.000135063
0.000113464
9.77992e-05
8.73091e-05
8.01761e-05
7.42005e-05
6.80594e-05
6.06468e-05
5.27983e-05
6.29078e-05
4.5039e-05
0.000149324
0.000346254
0.000142678
9.07337e-05
6.7867e-05
5.41418e-05
4.84483e-05
3.91994e-05
3.11708e-05
2.48625e-05
2.00157e-05
1.62919e-05
1.33965e-05
1.11637e-05
9.5067e-06
8.66877e-06
1.14605e-05
1.61772e-05
2.13159e-05
0.000138507
0.000167624
0.000207173
0.000189774
0.000181899
0.000166217
0.000133349
0.000105416
8.72322e-05
7.59121e-05
6.81754e-05
6.17706e-05
5.56751e-05
4.94471e-05
4.39522e-05
4.35586e-05
4.79573e-05
0.000126818
0.000280168
0.000133785
8.87298e-05
6.78681e-05
5.78728e-05
0.000112399
7.71337e-05
5.45801e-05
3.98709e-05
3.00161e-05
2.3234e-05
1.84758e-05
1.52153e-05
1.31281e-05
9.839e-06
1.1927e-05
2.90546e-05
3.35212e-05
0.000193149
0.000241941
0.000263597
0.000198407
0.000201588
0.00018811
0.000139276
9.92502e-05
7.65528e-05
6.45203e-05
5.7403e-05
5.18448e-05
4.6633e-05
4.16405e-05
3.77373e-05
3.60977e-05
4.04017e-05
5.39247e-05
0.000106075
8.65611e-05
7.41082e-05
6.62407e-05
5.95525e-05
5.7293e-05
0.00014615
0.000112802
9.03537e-05
7.34168e-05
5.95738e-05
4.76807e-05
3.71755e-05
2.77841e-05
1.91168e-05
1.04881e-05
1.15304e-05
6.03937e-05
5.32826e-05
0.000228693
0.000304016
0.000283779
0.000214174
0.000242427
0.000231819
0.000154132
9.31558e-05
6.27115e-05
5.03679e-05
4.57241e-05
4.2681e-05
3.96804e-05
3.68746e-05
3.52747e-05
3.52644e-05
4.14287e-05
4.80318e-05
5.51107e-05
6.52303e-05
7.12069e-05
7.14034e-05
6.69548e-05
6.12155e-05
6.181e-05
5.95801e-05
5.66988e-05
5.22634e-05
4.62958e-05
3.92059e-05
3.13999e-05
2.33565e-05
1.48332e-05
9.2599e-06
1.02162e-05
4.80274e-05
6.29784e-05
6.76199e-05
7.8548e-05
0.000210955
0.000248743
0.000399045
0.000289049
0.000245594
0.000305828
0.000298079
0.000176033
8.60292e-05
4.80325e-05
4.00202e-05
3.86425e-05
3.80993e-05
3.75417e-05
3.74387e-05
3.91763e-05
4.4126e-05
5.58991e-05
7.07739e-05
8.58545e-05
9.66336e-05
9.98863e-05
9.50579e-05
8.48596e-05
7.34865e-05
6.47081e-05
5.82299e-05
5.269e-05
4.6646e-05
3.97819e-05
3.23204e-05
2.45337e-05
1.74428e-05
1.18706e-05
9.92453e-06
1.22703e-05
2.76032e-05
5.0654e-05
9.43808e-05
0.000347701
0.000506432
0.000284163
0.000669383
0.000309122
0.000303041
0.000396465
0.000388628
0.000203875
8.62498e-05
5.19219e-05
4.5026e-05
4.46242e-05
4.56939e-05
4.75204e-05
5.09797e-05
5.75271e-05
6.95595e-05
8.9508e-05
0.000114027
0.000133175
0.000140855
0.000135174
0.000119702
0.000100091
8.14289e-05
6.66571e-05
5.72166e-05
4.96851e-05
4.25651e-05
3.57025e-05
2.94532e-05
2.43489e-05
2.10908e-05
2.00503e-05
2.14207e-05
2.44065e-05
3.11663e-05
5.30202e-05
0.000220449
0.00112371
0.0012778
0.000306755
0.000722755
0.000357615
0.000404406
0.000524451
0.000504077
0.000243062
0.000118162
8.76325e-05
8.29428e-05
8.45267e-05
8.79063e-05
9.27789e-05
0.00010021
0.000112038
0.000131876
0.000158843
0.000185701
0.000197892
0.0001923
0.00016968
0.000142482
0.000117159
9.64617e-05
8.14974e-05
7.1122e-05
6.33493e-05
5.74634e-05
5.35945e-05
5.22152e-05
5.38258e-05
5.86529e-05
6.60442e-05
7.38797e-05
7.96066e-05
8.66683e-05
0.000119687
0.000524561
0.00424321
0.00332692
0.000314104
0.000611408
0.000456844
0.000573474
0.000705491
0.000643456
0.000323864
0.000225898
0.000210685
0.00021649
0.000225394
0.000233948
0.000242694
0.000253209
0.000267202
0.000285729
0.000305792
0.000318955
0.000315892
0.000295946
0.000267616
0.00023785
0.000211861
0.000191285
0.000175993
0.000165527
0.000159495
0.000158185
0.000162315
0.000172705
0.000189849
0.000213185
0.000239955
0.000264876
0.000285218
0.000287504
0.000332196
0.000974882
0.00612349
0.00468798
0.000562185
0.000920006
0.000987302
0.000714925
0.000546228
0.00056104
0.000610439
0.00065636
0.000689563
0.000710976
0.000723964
0.000731939
0.000737547
0.000741977
0.000744002
0.000740379
0.000728739
0.000709991
0.00068745
0.000664126
0.000641773
0.000621648
0.00060501
0.000593638
0.000589672
0.000595572
0.000613925
0.000647065
0.000696191
0.000759422
0.000828755
0.000889317
0.000930901
0.000927004
0.000960119
0.00150174
0.00459523
0.00281843
0.00298114
0.00329614
0.00239013
0.00146316
0.00139531
0.00153927
0.00170489
0.00183824
0.00192795
0.00197995
0.00200521
0.00201467
0.00201822
0.00202418
0.00203711
0.00205457
0.00206656
0.00206525
0.00205047
0.00202653
0.00199696
0.00196512
0.00193508
0.00191233
0.00190296
0.00191373
0.00195188
0.00202483
0.0021385
0.0022923
0.00246811
0.00261359
0.00263541
0.00253134
0.00232054
0.00231721
0.00263628
0.00167757
0.000781242
0.000933911
0.00125594
0.00146432
0.00144389
0.0013513
0.0013157
0.00131989
0.00133509
0.00134943
0.00136039
0.00136884
0.00137635
0.00138424
0.001393
0.00140182
0.00140831
0.00140956
0.00140427
0.00139359
0.0013799
0.00136552
0.00135225
0.00134146
0.00133441
0.00133234
0.00133653
0.00134815
0.00136797
0.00139575
0.00142933
0.00146324
0.00148724
0.00148765
0.00146686
0.00142506
0.00142782
0.00150856
0.00151708
0.00103615
)
;

boundaryField
{
    floor
    {
        Cmu             0.09;
        kappa           0.41;
        E               9.8;
        type            epsilonWallFunction;
        value           nonuniform List<scalar> 
29
(
6.42476e-05
4.86411e-05
8.58183e-05
8.87918e-05
8.12433e-05
7.04863e-05
5.97484e-05
4.89427e-05
3.99849e-05
3.30293e-05
2.76582e-05
2.34662e-05
2.01404e-05
1.74482e-05
1.52372e-05
1.3328e-05
1.15689e-05
9.95021e-06
8.00818e-06
9.67333e-06
9.67333e-06
2.13159e-05
3.35212e-05
5.32826e-05
6.42476e-05
4.86411e-05
0.000149324
0.000126818
5.39247e-05
)
;
    }
    ceiling
    {
        Cmu             0.09;
        kappa           0.41;
        E               9.8;
        type            epsilonWallFunction;
        value           nonuniform List<scalar> 
43
(
0.000781242
0.000933911
0.00125594
0.00146432
0.00144389
0.0013513
0.0013157
0.00131989
0.00133509
0.00134943
0.00136039
0.00136884
0.00137635
0.00138424
0.001393
0.00140182
0.00140831
0.00140956
0.00140427
0.00139359
0.0013799
0.00136552
0.00135225
0.00134146
0.00133441
0.00133234
0.00133653
0.00134815
0.00136797
0.00139575
0.00142933
0.00146324
0.00148724
0.00148765
0.00146686
0.00142506
0.00142782
0.00150856
0.00151708
0.00103615
0.000314104
0.000611408
0.00298114
)
;
    }
    sWall
    {
        Cmu             0.09;
        kappa           0.41;
        E               9.8;
        type            epsilonWallFunction;
        value           uniform 0.000781242;
    }
    nWall
    {
        Cmu             0.09;
        kappa           0.41;
        E               9.8;
        type            epsilonWallFunction;
        value           nonuniform List<scalar> 6(0.000210955 0.000506432 0.0012778 0.00281843 0.00167757 0.00103615);
    }
    sideWalls
    {
        type            empty;
    }
    glass1
    {
        Cmu             0.09;
        kappa           0.41;
        E               9.8;
        type            epsilonWallFunction;
        value           nonuniform List<scalar> 9(2.3884e-05 7.73394e-05 0.000138507 0.000193149 0.000228693 0.000248743 0.000284163 0.000306755 0.000314104);
    }
    glass2
    {
        Cmu             0.09;
        kappa           0.41;
        E               9.8;
        type            epsilonWallFunction;
        value           nonuniform List<scalar> 2(0.00332692 0.00468798);
    }
    sun
    {
        Cmu             0.09;
        kappa           0.41;
        E               9.8;
        type            epsilonWallFunction;
        value           nonuniform List<scalar> 
14
(
2.3884e-05
6.01087e-05
0.000110471
0.000211163
0.000219619
0.000210536
0.00019318
0.000174159
0.000155832
0.000139339
0.000124693
0.000110674
9.62937e-05
8.0279e-05
)
;
    }
    heatsource1
    {
        Cmu             0.09;
        kappa           0.41;
        E               9.8;
        type            epsilonWallFunction;
        value           nonuniform List<scalar> 3(6.76199e-05 7.8548e-05 0.000210955);
    }
    heatsource2
    {
        Cmu             0.09;
        kappa           0.41;
        E               9.8;
        type            epsilonWallFunction;
        value           nonuniform List<scalar> 4(6.29078e-05 4.5039e-05 4.5039e-05 4.79573e-05);
    }
    Table_master
    {
        Cmu             0.09;
        kappa           0.41;
        E               9.8;
        type            epsilonWallFunction;
        value           nonuniform List<scalar> 9(0.000112399 7.71337e-05 5.45801e-05 3.98709e-05 3.00161e-05 2.3234e-05 1.84758e-05 1.52153e-05 1.31281e-05);
    }
    Table_slave
    {
        Cmu             0.09;
        kappa           0.41;
        E               9.8;
        type            epsilonWallFunction;
        value           nonuniform List<scalar> 9(0.00014615 0.000112802 9.03537e-05 7.34168e-05 5.95738e-05 4.76807e-05 3.71755e-05 2.77841e-05 1.91168e-05);
    }
    inlet
    {
        type            turbulentMixingLengthDissipationRateInlet;
        mixingLength    0.01;
        phi             phi;
        k               k;
        value           uniform 0.000101881;
    }
    outlet
    {
        type            zeroGradient;
    }
}


// ************************************************************************* //
