/*--------------------------------*- C++ -*----------------------------------*\
  =========                 |
  \\      /  F ield         | OpenFOAM: The Open Source CFD Toolbox
   \\    /   O peration     | Website:  https://openfoam.org
    \\  /    A nd           | Version:  6
     \\/     M anipulation  |
\*---------------------------------------------------------------------------*/
FoamFile
{
    version     2.0;
    format      ascii;
    class       volScalarField;
    location    "370";
    object      nut;
}
// * * * * * * * * * * * * * * * * * * * * * * * * * * * * * * * * * * * * * //

dimensions      [0 2 -1 0 0 0 0];

internalField   nonuniform List<scalar> 
459
(
0.000858053
0.000956899
0.00100273
0.00106271
0.00112282
0.00118872
0.00124614
0.00128872
0.00130705
0.00128194
0.00119603
0.00110342
0.000991542
0.000887471
0.000780488
0.000464543
0.000609577
0.000715135
0.000740991
0.000739669
0.000720926
0.000680864
0.000637447
0.000597423
0.000561745
0.000530039
0.000501864
0.000476761
0.000453908
0.00043237
0.000410905
0.000387501
0.000352849
0.000313794
0.00108144
0.00280485
0.00283968
0.00332229
0.00380546
0.0041491
0.00449785
0.00483811
0.00514805
0.00536149
0.00530353
0.00499142
0.0044933
0.00349385
0.00225291
0.000899485
0.00075081
0.000676682
0.00241934
0.00253438
0.00290663
0.00313462
0.00300404
0.00212196
0.001764
0.00153395
0.00136704
0.0012394
0.00113688
0.00104395
0.000953709
0.000860998
0.000776636
0.000719732
0.000583775
0.000365616
0.00126599
0.00382961
0.00357564
0.00401553
0.00426827
0.00445256
0.00468509
0.00501998
0.00547849
0.00596272
0.0061942
0.00613942
0.00584597
0.00516637
0.00403943
0.00248732
0.000855375
0.000729951
0.00216826
0.00288834
0.0035972
0.00403141
0.00365819
0.000913335
0.000798018
0.000705659
0.00063216
0.000573277
0.000525659
0.000487345
0.000457069
0.000435065
0.000493685
0.000603535
0.000625439
0.000395025
0.00144071
0.00462097
0.00371504
0.00408823
0.0040993
0.00413555
0.00425541
0.00458632
0.00516062
0.00580167
0.00620183
0.00633361
0.00623465
0.0058755
0.00513629
0.00391477
0.00203174
0.000944198
0.00140183
0.00230476
0.00347862
0.00446206
0.00498953
0.00446667
0.00100806
0.000918377
0.000854286
0.000804994
0.000762969
0.000724611
0.000687336
0.00064772
0.000601634
0.000559621
0.000587559
0.000694709
0.000437971
0.00161955
0.00556917
0.00395027
0.00416322
0.00406444
0.00396664
0.00397629
0.00431939
0.00496624
0.00565762
0.00614239
0.00634184
0.00631878
0.00613215
0.00573647
0.00505147
0.00405935
0.00373744
0.00433399
0.00510953
0.00579932
0.006255
0.0064194
0.00616006
0.00498889
0.0044414
0.00413466
0.00391643
0.00370655
0.0034211
0.00303442
0.002553
0.00200484
0.00147128
0.00109255
0.000983363
0.000692858
0.000497247
0.000500119
0.00050493
0.00181258
0.00667702
0.00491489
0.00452906
0.00433097
0.00401469
0.00392176
0.00425422
0.00494964
0.00570807
0.00623459
0.0064405
0.00643273
0.00636381
0.00628876
0.00615086
0.00600401
0.00632136
0.00688662
0.00731273
0.00753726
0.00755344
0.00738749
0.00705471
0.00654
0.00610433
0.00575571
0.00544485
0.00513206
0.00477713
0.00433214
0.00379554
0.00317459
0.00251768
0.0019323
0.00156651
0.00121752
0.000979555
0.0011276
0.000670135
0.00198828
0.0074737
0.00644483
0.00541496
0.00472823
0.00410414
0.0039354
0.00433128
0.00513137
0.00597193
0.00652416
0.00672432
0.00676362
0.00688558
0.00709363
0.00728934
0.00753951
0.00795998
0.00830797
0.00840642
0.00828748
0.00799667
0.00759132
0.00712663
0.00664999
0.00623551
0.00587795
0.00554036
0.00520406
0.00485527
0.00449531
0.00413291
0.00368884
0.00318841
0.0026736
0.00224411
0.0018398
0.00151398
0.00145887
0.000802855
0.00202835
0.00661002
0.00596851
0.00523111
0.00435654
0.00380894
0.00386742
0.00453718
0.0055447
0.00646998
0.0070056
0.00720042
0.00735167
0.00757761
0.00772233
0.00791912
0.00818879
0.00845476
0.00855147
0.00838717
0.00801541
0.0075066
0.00693701
0.00637812
0.00588629
0.00548283
0.0051418
0.00483042
0.00452992
0.00423348
0.00395533
0.00373451
0.00359008
0.0033915
0.00312977
0.00289746
0.00265841
0.00226434
0.00249339
0.00104813
0.00198781
0.00234344
0.00250037
0.00250133
0.00252649
0.00291069
0.00381469
0.00508697
0.00634228
0.00721646
0.0075741
0.00774794
0.00765556
0.00752783
0.00751384
0.00762055
0.00776093
0.00780642
0.00766651
0.00734151
0.00687059
0.00632217
0.00578575
0.00531608
0.0049286
0.00460764
0.0043244
0.00405338
0.00377559
0.00347217
0.00313603
0.00280106
0.0025207
0.00231638
0.0021542
0.00200815
0.00187387
0.00175044
0.0016615
0.00110032
0.00058763
0.00121418
0.00244116
0.00412488
0.00576225
0.00701092
0.00769495
0.0079552
0.00766752
0.00728834
0.00698653
0.0068296
0.00678851
0.00678977
0.00675527
0.00662464
0.00639028
0.0060927
0.00578413
0.00550211
0.00525761
0.00504257
0.00483447
0.00461381
0.00436681
0.00408408
0.00376649
0.00342409
0.00306948
0.0027278
0.00243349
0.00220843
0.00205835
0.00196303
0.00188308
0.0017839
0.00167765
0.00118992
0.00142805
0.00560461
0.00758686
0.00813565
0.0083192
0.00821854
0.00784868
0.00729926
0.00677454
0.00640401
0.00620921
0.00612679
0.00609732
0.00608182
0.00605735
0.00601196
0.00594649
0.00587185
0.00580006
0.00573847
0.00568664
0.00563758
0.00557838
0.00549383
0.00536787
0.0051844
0.00493201
0.00460825
0.00421994
0.00379175
0.00336546
0.00297543
0.00265015
0.00239614
0.00219447
0.00203793
0.00256049
0.00130252
0.00157319
0.00167823
0.00178219
0.00206265
0.00200072
0.0018752
0.00178604
0.00170067
0.00160961
0.00152507
0.00146461
0.00143068
0.00141511
0.00141051
0.00141159
0.00141461
0.00141677
0.00141641
0.00141343
0.00140885
0.00140381
0.00139885
0.00139381
0.0013878
0.00137963
0.00136767
0.00135028
0.00132647
0.00129632
0.00126138
0.00122494
0.00119072
0.00116168
0.00114052
0.00112848
0.00112388
0.00111906
0.00109842
0.00108954
0.00106452
)
;

boundaryField
{
    floor
    {
        type            nutkWallFunction;
        Cmu             0.09;
        kappa           0.41;
        E               9.8;
        value           nonuniform List<scalar> 
29
(
9.45377e-05
5.51839e-05
7.35548e-05
8.65857e-05
8.97422e-05
8.95811e-05
8.72942e-05
8.23821e-05
7.70195e-05
7.20369e-05
6.75614e-05
6.35548e-05
5.99698e-05
5.67547e-05
5.38095e-05
5.10167e-05
4.8216e-05
4.51412e-05
4.05445e-05
3.52934e-05
3.52933e-05
4.22436e-05
4.61308e-05
5.17427e-05
9.45377e-05
5.51838e-05
8.18661e-05
8.83937e-05
0.000114124
)
;
    }
    ceiling
    {
        type            nutkWallFunction;
        Cmu             0.09;
        kappa           0.41;
        E               9.8;
        value           nonuniform List<scalar> 
43
(
0.000186297
0.000197997
0.0002095
0.000240197
0.000233472
0.000219758
0.000209955
0.000200517
0.000190392
0.000180937
0.000174139
0.000170312
0.000168553
0.000168033
0.000168155
0.000168497
0.000168742
0.000168701
0.000168364
0.000167845
0.000167274
0.000166712
0.000166141
0.00016546
0.000164533
0.000163176
0.0001612
0.000158489
0.00015505
0.000151052
0.00014687
0.000142929
0.000139574
0.000137124
0.000135727
0.000135192
0.000134633
0.000132232
0.000131199
0.000128282
0.000232072
0.000270492
0.00016997
)
;
    }
    sWall
    {
        type            nutkWallFunction;
        Cmu             0.09;
        kappa           0.41;
        E               9.8;
        value           uniform 0.000186318;
    }
    nWall
    {
        type            nutkWallFunction;
        Cmu             0.09;
        kappa           0.41;
        E               9.8;
        value           nonuniform List<scalar> 6(6.03426e-05 8.10516e-05 9.72377e-05 0.000142845 0.000155768 0.00012829);
    }
    sideWalls
    {
        type            empty;
    }
    glass1
    {
        type            nutkWallFunction;
        Cmu             0.09;
        kappa           0.41;
        E               9.8;
        value           nonuniform List<scalar> 9(0.000103885 0.000130287 0.000151624 0.000171502 0.000191575 0.000212969 0.000232228 0.000236596 0.00023218);
    }
    glass2
    {
        type            nutkWallFunction;
        Cmu             0.09;
        kappa           0.41;
        E               9.8;
        value           nonuniform List<scalar> 2(0.000126382 0.000132477);
    }
    sun
    {
        type            nutkWallFunction;
        Cmu             0.09;
        kappa           0.41;
        E               9.8;
        value           nonuniform List<scalar> 
14
(
0.000103873
0.00011563
0.000121033
0.000128062
0.00013506
0.000142685
0.000149289
0.000154164
0.000156257
0.000153385
0.000143525
0.000132805
0.000119715
0.000107388
)
;
    }
    heatsource1
    {
        type            nutkWallFunction;
        Cmu             0.09;
        kappa           0.41;
        E               9.8;
        value           nonuniform List<scalar> 3(5.93714e-05 5.97381e-05 6.03512e-05);
    }
    heatsource2
    {
        type            nutkWallFunction;
        Cmu             0.09;
        kappa           0.41;
        E               9.8;
        value           nonuniform List<scalar> 4(0.000108819 9.09361e-05 9.09361e-05 0.000103551);
    }
    Table_master
    {
        type            nutkWallFunction;
        Cmu             0.09;
        kappa           0.41;
        E               9.8;
        value           nonuniform List<scalar> 9(0.000110471 9.66572e-05 8.54247e-05 7.63606e-05 6.90073e-05 6.29933e-05 5.81059e-05 5.421e-05 5.13583e-05);
    }
    Table_slave
    {
        type            nutkWallFunction;
        Cmu             0.09;
        kappa           0.41;
        E               9.8;
        value           nonuniform List<scalar> 9(0.000121667 0.000111071 0.000103425 9.74992e-05 9.24131e-05 8.77419e-05 8.31741e-05 7.82869e-05 7.25559e-05);
    }
    inlet
    {
        type            calculated;
        value           uniform 0.000100623;
    }
    outlet
    {
        type            calculated;
        value           nonuniform List<scalar> 2(0.00157319 0.00167823);
    }
}


// ************************************************************************* //
