/*--------------------------------*- C++ -*----------------------------------*\
  =========                 |
  \\      /  F ield         | OpenFOAM: The Open Source CFD Toolbox
   \\    /   O peration     | Website:  https://openfoam.org
    \\  /    A nd           | Version:  6
     \\/     M anipulation  |
\*---------------------------------------------------------------------------*/
FoamFile
{
    version     2.0;
    format      ascii;
    class       surfaceScalarField;
    location    "800";
    object      phi;
}
// * * * * * * * * * * * * * * * * * * * * * * * * * * * * * * * * * * * * * //

dimensions      [1 0 -1 0 0 0 0];

internalField   nonuniform List<scalar> 
852
(
-0.00293234
0.00298849
-0.00396738
0.00103504
-0.00475577
0.000788389
-0.00537494
0.000619166
-0.00579628
0.000421331
-0.00599782
0.000201541
-0.00595807
-3.9758e-05
-0.00565854
-0.000299537
-0.00510848
-0.000550057
-0.0043561
-0.000752389
-0.00347905
-0.000877045
-0.00256472
-0.000914336
-0.00168675
-0.000877979
-0.000864647
-0.000822102
-0.000863238
-0.000663034
0.000665678
-0.000321151
-0.000341885
0.000289875
-0.000611028
0.000760272
-0.000470398
0.00106978
-0.000309507
0.00126041
-0.000190632
0.00136345
-0.000103042
0.00141487
-5.14226e-05
0.00144397
-2.91054e-05
0.0014617
-1.77272e-05
0.00147147
-9.77239e-06
0.00147431
-2.84729e-06
0.00146818
6.13559e-06
0.0014445
2.36801e-05
0.00138056
6.39329e-05
0.0012382
0.000142361
0.00100213
0.000236062
0.000705845
0.000296288
0.000709407
-0.00209079
0.00523047
-0.00309219
0.00203643
-0.00389655
0.00159275
-0.00450149
0.0012241
-0.00491203
0.00083187
-0.00511547
0.000404978
-0.00508695
-6.82879e-05
-0.00481044
-0.000576047
-0.00430576
-0.00105474
-0.00363095
-0.0014272
-0.00286619
-0.00164181
-0.00209205
-0.00168848
-0.00138145
-0.00158858
-0.000826058
-0.0013775
-0.000624029
-0.00106527
-0.000100483
-0.0005236
-0.000100537
0.000395854
0.000277334
0.000823369
-0.000769403
0.00107072
-0.00085838
0.00127793
-0.000677607
0.00143023
-0.000461809
0.00151754
-0.000277948
0.00153053
-0.000116029
0.00153416
-5.50636e-05
0.00153852
-3.34632e-05
0.00154216
-2.13628e-05
0.00154459
-1.22065e-05
0.00154576
-4.01748e-06
0.00154475
7.13716e-06
0.00153794
3.04873e-05
0.00149636
0.000105517
0.0013203
0.000318418
0.0010156
0.000540761
0.00062998
0.000681908
0.00134857
-0.00146286
0.00692452
-0.00232271
0.00289628
-0.00302904
0.00229907
-0.00353996
0.00173502
-0.00389256
0.00118446
-0.00407023
0.000582642
-0.00402934
-0.000109176
-0.0037446
-0.000860797
-0.00325603
-0.00154331
-0.0026369
-0.00204633
-0.00196804
-0.00231068
-0.00131524
-0.00234129
-0.000730583
-0.00217324
-0.000269313
-0.00183877
3.86332e-05
-0.00137322
0.000250661
-0.000735631
0.000150121
0.00148622
-0.00120103
0.00169989
-0.000983074
0.00168176
-0.000840255
0.00168392
-0.000679771
0.00170527
-0.000483159
0.00171199
-0.000284669
0.00159611
0.0015412
0.00150789
0.00148668
0.00147462
0.00147076
0.00147805
0.00150869
0.00161436
0.0013341
0.000598672
0.000992052
0.000882808
0.000554179
0.00111978
0.00191676
-0.00102179
0.00824562
-0.00170135
0.00357584
-0.00216015
0.00275786
-0.0024862
0.00206107
-0.00271163
0.00140989
-0.002807
0.000678012
-0.00269914
-0.000217037
-0.00236826
-0.00119168
-0.00189236
-0.00201922
-0.0013547
-0.00258399
-0.000823106
-0.00284228
-0.000336092
-0.0028283
8.75811e-05
-0.00259692
0.000441488
-0.00219268
0.000750811
-0.00168255
0.0011243
-0.00110912
0.0018762
-0.000601778
0.00243756
-0.000554209
0.00202982
-0.000793293
0.00190526
-0.000858515
0.001799
-0.000734004
0.00170941
-0.000590176
0.0016628
-0.000436556
0.00164936
-0.000271231
0.00176056
-0.000111358
0.00183189
-7.14835e-05
0.00188976
-5.80211e-05
0.00193424
-4.463e-05
0.00195153
-1.7448e-05
0.0019209
3.04843e-05
0.00181797
0.000102775
0.00161073
0.000207084
0.00124531
0.000365263
0.00111816
0.000725831
0.000834506
0.00116646
0.000399122
0.00155516
0.00233427
-0.00071686
0.00931959
-0.00123222
0.0040912
-0.00131722
0.00284286
-0.0013678
0.00211165
-0.00139026
0.00143234
-0.00131187
0.000599617
-0.00104829
-0.000480613
-0.000649587
-0.00159039
-0.000220083
-0.00244873
0.000171524
-0.0029756
0.000495202
-0.00316596
0.000746371
-0.00307948
0.000936029
-0.00278658
0.00109284
-0.0023495
0.00124695
-0.00183666
0.00145124
-0.00131341
0.00173432
-0.000884864
0.00187847
-0.000698363
0.00178111
-0.000695933
0.00160796
-0.000685362
0.00146412
-0.000590171
0.0013482
-0.00047426
0.00127074
-0.000359094
0.00124436
-0.000244852
0.00128767
-0.00015467
0.0013362
-0.000120011
0.00138927
-0.000111089
0.00144333
-9.8694e-05
0.00148786
-6.19765e-05
0.00150362
1.4721e-05
0.00147058
0.000135814
0.00137707
0.000300602
0.00122347
0.000518863
0.0010907
0.000858596
0.000948829
0.00130833
0.000634235
0.00186976
0.000566031
0.00240248
-0.000967231
0.00153306
-0.00143128
0.00046385
-0.00138446
-0.000626329
0.0103518
-0.00098024
0.00444511
-0.000553778
0.00241639
-0.000189782
0.00174765
8.89585e-05
0.0011536
0.000461645
0.000226928
0.000946495
-0.000965465
0.00136757
-0.00201147
0.00166055
-0.00274172
0.00181658
-0.00313164
0.00186165
-0.00321104
0.00182457
-0.0030424
0.00173441
-0.00269643
0.00162716
-0.00224226
0.00153602
-0.00174551
0.00148772
-0.00126512
0.0014769
-0.00087404
0.00142202
-0.000643489
0.00127755
-0.000551459
0.00108762
-0.000495436
0.0009221
-0.000424654
0.000797737
-0.000349898
0.000720029
-0.000281387
0.000695753
-0.000220576
0.000720721
-0.000179637
0.000770557
-0.000169846
0.000834781
-0.000175313
0.000908867
-0.000172779
0.000987294
-0.000140403
0.00105808
-5.60621e-05
0.001104
8.98915e-05
0.00112152
0.000283088
0.00111846
0.000521916
0.00114255
0.00083451
0.00124143
0.00120945
0.00142809
0.0016831
0.00186958
0.00196099
0.00212812
0.00127451
0.00173716
0.000854812
0.000409109
-0.000682519
0.0114843
-0.000563807
0.0043264
0.000566766
0.00128581
0.00135266
0.000961755
0.00201618
0.000490072
0.00270169
-0.000458577
0.00325483
-0.00151861
0.00355642
-0.00231307
0.0036065
-0.0027918
0.00344833
-0.00297347
0.00314209
-0.00290481
0.00274865
-0.00264897
0.00232127
-0.00226905
0.00190673
-0.00182772
0.00154089
-0.00137967
0.00124129
-0.000965524
0.00100698
-0.000639729
0.000804336
-0.000440844
0.000601317
-0.00034844
0.000409735
-0.000303855
0.000254974
-0.000269894
0.00014639
-0.000241314
8.43034e-05
-0.0002193
6.81652e-05
-0.000204438
9.05138e-05
-0.000201986
0.000136228
-0.000215559
0.000196146
-0.000235231
0.000269402
-0.000246035
0.000360166
-0.000231166
0.000473257
-0.000169152
0.000595948
-3.27987e-05
0.000718396
0.000160641
0.000852261
0.000388053
0.00103552
0.000651256
0.0013166
0.000928364
0.00175631
0.00124339
0.00242146
0.00129584
0.00296054
0.000735437
0.00298438
0.000830971
0.00345469
0.00258663
0.00940111
0.00328742
0.0036256
0.00368184
0.00089139
0.00434584
0.000297758
0.00513851
-0.000302602
0.0057788
-0.00109887
0.00602154
-0.00176137
0.00588671
-0.00217825
0.00544718
-0.00235228
0.00479304
-0.00231934
0.0040185
-0.00213027
0.00320784
-0.00183832
0.0024236
-0.00148482
0.00171494
-0.00111906
0.00111511
-0.000779848
0.000632441
-0.000482854
0.000272347
-0.000279635
9.09038e-06
-0.000177587
-0.000192468
-0.000146882
-0.000348808
-0.000147515
-0.000465207
-0.000153495
-0.000545001
-0.000161519
-0.000592549
-0.000171752
-0.000611989
-0.000184997
-0.000610379
-0.000203594
-0.000597756
-0.000228181
-0.00057975
-0.000253236
-0.000555324
-0.00027046
-0.000516109
-0.000270379
-0.0004434
-0.00024186
-0.000308605
-0.000167593
-0.000129244
-1.8718e-05
8.09867e-05
0.000177822
0.000347905
0.000384339
0.000684072
0.000592198
0.00113121
0.000796248
0.00162855
0.000798501
0.00184536
0.000518622
0.00110316
0.00157318
0.00480628
0.00995314
0.0135705
0.0124378
0.00202411
0.0117263
0.00100929
0.0110789
0.000344767
0.0102199
-0.00023982
0.00909495
-0.000636476
0.00780656
-0.000889871
0.00644822
-0.000993951
0.00509287
-0.000963994
0.00380677
-0.000844181
0.00264324
-0.000674785
0.00162464
-0.000466218
0.000774802
-0.000269216
0.000102417
-0.000107462
-0.000377778
-2.65782e-06
-0.000679567
2.21543e-05
-0.000867423
1.02691e-05
-0.000999282
-1.50222e-05
-0.00110357
-4.32212e-05
-0.00118756
-6.95073e-05
-0.00125482
-9.42653e-05
-0.00130933
-0.000117231
-0.00135558
-0.000138753
-0.00140024
-0.000158934
-0.00145147
-0.000176951
-0.00151673
-0.000187968
-0.00160317
-0.000184027
-0.00171938
-0.000154161
-0.00187569
-8.55528e-05
-0.00207748
3.41977e-05
-0.0023112
0.000215006
-0.00260431
0.000470929
-0.00303882
0.000818848
-0.00370481
0.00125819
-0.00467013
0.00176157
-0.00605219
0.00218056
-0.00773569
0.00220213
-0.00727708
0.00111457
-0.00219602
0.00468242
0.00351595
0.00382622
0.00186547
0.00423258
-6.16344e-05
0.00424745
-0.000254699
0.00385123
-0.000240269
0.00322751
-0.000266147
0.00248072
-0.000247158
0.00167873
-0.000162001
0.000865715
-3.11665e-05
8.91614e-05
0.000101772
-0.000565992
0.000188939
-0.00103937
0.000204167
-0.00134489
0.00019806
-0.00152162
0.000174064
-0.0016303
0.000130845
-0.00170719
8.71565e-05
-0.00177079
4.85811e-05
-0.00183128
1.72642e-05
-0.00189295
-7.83549e-06
-0.00195716
-3.00511e-05
-0.00202474
-4.96516e-05
-0.00209757
-6.5926e-05
-0.00217899
-7.75104e-05
-0.00227126
-8.46755e-05
-0.00237545
-8.37816e-05
-0.00249057
-6.89026e-05
-0.0026128
-3.19327e-05
-0.00273443
3.60749e-05
-0.0028434
0.000143171
-0.00293665
0.000308258
-0.00302189
0.000556168
-0.00310445
0.00090141
-0.00318008
0.00133382
-0.00320472
0.00178621
-0.00312845
0.00210429
-0.00277596
0.00184964
-0.00151316
-0.000148227
-0.0036374
-0.000537161
0.00411759
0.000304414
0.00102387
-5.29337e-05
0.000295702
-0.000400845
9.321e-05
-0.000710827
6.9716e-05
-0.00106119
8.42225e-05
-0.00142802
0.000119675
-0.00175736
0.00016734
-0.00200083
0.000212312
-0.00214462
0.000245566
-0.00221317
0.00025749
-0.00224518
0.000236177
-0.0022494
0.000202275
-0.00224154
0.000166211
-0.00224138
0.000130686
-0.00225436
0.000100135
-0.00228058
7.48029e-05
-0.00231745
5.41324e-05
-0.00236296
3.76773e-05
-0.00241763
2.46188e-05
-0.00248008
1.28042e-05
-0.00254789
1.88658e-06
-0.00261823
-7.17106e-06
-0.00268902
-1.38827e-05
-0.00275617
-1.66342e-05
-0.00281268
-1.2385e-05
-0.00284772
3.10313e-06
-0.00285149
3.98461e-05
-0.00281417
0.000105848
-0.00271438
0.000208471
-0.00252113
0.000362917
-0.00220754
0.00058782
-0.00175379
0.00088008
-0.00113148
0.0011639
-0.00017049
0.00114329
0.00113586
0.000543293
0.00158779
-0.00060016
-0.001971
-0.00721171
-0.0101063
-0.00594598
-0.00490216
-0.00459527
-0.00449515
-0.00442118
-0.00433472
-0.00421444
-0.00404788
-0.00383761
-0.00359525
-0.00334211
-0.00311135
-0.00291541
-0.00275628
-0.00263324
-0.0025412
-0.00247483
-0.00242939
-0.0024006
-0.00238502
-0.00238134
-0.00238863
-0.00240496
-0.00242794
-0.00245356
-0.00247477
-0.0024803
-0.00244883
-0.00235109
-0.00215045
-0.00179506
-0.00121449
-0.000341391
0.000815754
0.00195227
0.00248854
0.00188096
)
;

boundaryField
{
    floor
    {
        type            calculated;
        value           nonuniform List<scalar> 
29
(
0
0
0
0
0
0
0
0
0
0
0
0
0
0
0
0
0
0
0
0
-3.56242e-06
-9.18015e-06
-1.40124e-05
-1.83949e-05
-1.41191e-06
-2.64629e-06
-7.51168e-06
-7.85344e-06
-7.15593e-06
)
;
    }
    ceiling
    {
        type            calculated;
        value           nonuniform List<scalar> 
43
(
-4.53787e-05
-4.40605e-05
-4.27502e-05
-1.99418e-05
-1.11806e-05
-6.90455e-06
-4.24984e-06
-2.23923e-06
-6.03367e-07
7.90118e-07
2.03807e-06
3.21028e-06
4.35095e-06
5.41935e-06
6.33961e-06
7.07852e-06
7.65168e-06
8.09287e-06
8.43302e-06
8.69436e-06
8.8922e-06
9.03661e-06
9.13184e-06
9.17481e-06
9.16069e-06
9.09736e-06
8.98686e-06
8.83021e-06
8.62828e-06
8.38233e-06
8.1112e-06
7.82544e-06
7.53341e-06
7.24602e-06
6.98311e-06
6.75831e-06
6.78192e-06
7.02091e-06
7.42325e-06
8.66515e-06
1.12675e-05
8.19477e-06
-6.44993e-05
)
;
    }
    sWall
    {
        type            calculated;
        value           uniform -0.000275017;
    }
    nWall
    {
        type            calculated;
        value           nonuniform List<scalar> 6(-4.70304e-05 -5.64062e-05 -6.12037e-05 -7.17776e-05 -7.86071e-05 -9.87083e-05);
    }
    sideWalls
    {
        type            empty;
        value           nonuniform 0();
    }
    glass1
    {
        type            calculated;
        value           nonuniform List<scalar> 9(-5.61546e-05 -0.000151189 -0.0002312 -0.000299306 -0.000357117 -0.000405868 -0.000449987 -0.00050346 -0.000563295);
    }
    glass2
    {
        type            calculated;
        value           nonuniform List<scalar> 2(-0.000248432 -0.000274788);
    }
    sun
    {
        type            calculated;
        value           uniform 0;
    }
    heatsource1
    {
        type            calculated;
        value           nonuniform List<scalar> 3(2.03924e-07 2.03887e-07 2.03904e-07);
    }
    heatsource2
    {
        type            calculated;
        value           nonuniform List<scalar> 4(5.10835e-08 5.12074e-08 0 0);
    }
    Table_master
    {
        type            calculated;
        value           nonuniform List<scalar> 9(-1.52944e-07 -1.53024e-07 -1.53052e-07 -1.53071e-07 -1.53084e-07 -1.53093e-07 -1.53097e-07 -1.5309e-07 -1.53057e-07);
    }
    Table_slave
    {
        type            calculated;
        value           nonuniform List<scalar> 9(1.52823e-07 1.52849e-07 1.52833e-07 1.52819e-07 1.52815e-07 1.52819e-07 1.52836e-07 1.52878e-07 1.52957e-07);
    }
    inlet
    {
        type            calculated;
        value           uniform -0.00617427;
    }
    outlet
    {
        type            calculated;
        value           nonuniform List<scalar> 2(0.0075321 0.00293868);
    }
}


// ************************************************************************* //
