/*--------------------------------*- C++ -*----------------------------------*\
  =========                 |
  \\      /  F ield         | OpenFOAM: The Open Source CFD Toolbox
   \\    /   O peration     | Website:  https://openfoam.org
    \\  /    A nd           | Version:  6
     \\/     M anipulation  |
\*---------------------------------------------------------------------------*/
FoamFile
{
    version     2.0;
    format      ascii;
    class       volScalarField;
    location    "1200";
    object      epsilon;
}
// * * * * * * * * * * * * * * * * * * * * * * * * * * * * * * * * * * * * * //

dimensions      [0 2 -3 0 0 0 0];

internalField   nonuniform List<scalar> 
459
(
0.000438532
0.000568056
0.000594048
0.000681789
0.000770446
0.000859734
0.00095311
0.00105182
0.00112515
0.0011563
0.00113099
0.00104428
0.000906143
0.000743287
0.000592315
3.40574e-05
6.09683e-05
8.44312e-05
8.14349e-05
7.27149e-05
6.26847e-05
5.17022e-05
4.22065e-05
3.46499e-05
2.87342e-05
2.40885e-05
2.04292e-05
1.75097e-05
1.51335e-05
1.3147e-05
1.14098e-05
9.79854e-06
9.2699e-06
7.36605e-06
0.00113649
0.0016535
0.000537638
0.000517103
0.000540668
0.000579101
0.000635012
0.000710104
0.000782227
0.000829036
0.000831467
0.000781749
0.000686313
0.000567782
0.000487935
0.000608901
0.000137053
4.43674e-05
0.00010265
0.000105154
9.39053e-05
7.90462e-05
6.57356e-05
5.85204e-05
4.75259e-05
3.78704e-05
3.02002e-05
2.42642e-05
1.97061e-05
1.62054e-05
1.35176e-05
1.15704e-05
1.03762e-05
9.89319e-06
2.99813e-05
1.95738e-05
0.00209474
0.00410448
0.000686131
0.000501063
0.000522464
0.000584014
0.000674354
0.000788816
0.000896807
0.000965699
0.000976642
0.000926732
0.000827283
0.000697454
0.000585525
0.000517584
0.000576225
0.000350128
0.000238422
0.000173888
0.000131316
0.000102143
8.54105e-05
0.00015354
0.000106003
7.60753e-05
5.66184e-05
4.35247e-05
3.44233e-05
2.79202e-05
2.31885e-05
1.97658e-05
1.52506e-05
1.31602e-05
5.94156e-05
3.24903e-05
0.00341193
0.0085213
0.00111652
0.000520413
0.000520727
0.000609036
0.000748619
0.000925479
0.00107134
0.00114867
0.00115095
0.00108491
0.000967202
0.000810553
0.000667435
0.000560937
0.00052768
0.000994984
0.00054521
0.000319107
0.000210045
0.000149836
0.000113747
9.79571e-05
0.000224668
0.000172171
0.000141556
0.000121718
0.000106543
9.25342e-05
8.02083e-05
6.82679e-05
5.56761e-05
3.29459e-05
2.21808e-05
0.000105384
4.46281e-05
0.00521932
0.0151118
0.00223381
0.00064475
0.000552165
0.000666838
0.000910594
0.00118418
0.0013492
0.00140666
0.00137636
0.00127618
0.00112039
0.000929208
0.000734835
0.000563397
0.000434822
0.000372731
0.000293415
0.00022509
0.00017277
0.000134717
0.000107929
9.15549e-05
9.04206e-05
8.57083e-05
8.08585e-05
7.59835e-05
7.04268e-05
6.36508e-05
5.65947e-05
5.00036e-05
4.4071e-05
3.54604e-05
2.77495e-05
7.05353e-05
5.38303e-05
8.21861e-05
0.000140689
0.000200687
0.00771709
0.0223067
0.00499841
0.00128272
0.000858949
0.00096799
0.00142965
0.00171025
0.00180058
0.00178027
0.00168918
0.00153746
0.00132838
0.00107961
0.00082381
0.000595829
0.00042293
0.000313441
0.000244024
0.000192886
0.000152505
0.000122228
0.000101168
8.85914e-05
8.39775e-05
8.30983e-05
8.32309e-05
8.28719e-05
8.08113e-05
7.56974e-05
6.65661e-05
5.66907e-05
4.77691e-05
3.9797e-05
3.49378e-05
5.02934e-05
5.47164e-05
6.50685e-05
0.000260736
0.00023328
0.0105919
0.0265795
0.010207
0.00414724
0.00279133
0.00263419
0.00275532
0.00268028
0.00251614
0.00232816
0.00212338
0.00188165
0.00158852
0.00125765
0.000926405
0.000636909
0.000423794
0.00029116
0.000214557
0.000165952
0.000131459
0.00010774
9.32287e-05
8.6633e-05
8.65489e-05
9.03451e-05
9.5733e-05
0.000101575
0.000106745
0.000109175
0.000105224
9.27343e-05
8.05427e-05
7.08438e-05
6.81151e-05
7.98415e-05
0.00010734
0.000176844
0.00039208
0.000380099
0.0112193
0.0289213
0.0160798
0.0108874
0.00810781
0.0063203
0.00498368
0.0040709
0.00346338
0.00303532
0.00267603
0.00230439
0.00188295
0.00143184
0.00100081
0.0006367
0.000387186
0.000243957
0.000169673
0.000130873
0.0001068
9.25601e-05
8.60489e-05
8.5827e-05
9.06485e-05
9.92669e-05
0.000110957
0.000125744
0.000143863
0.000165202
0.00018856
0.000207447
0.000219027
0.000247131
0.000308015
0.000483042
0.000916777
0.00170044
0.00462727
0.00131391
0.0103408
0.0172611
0.0137426
0.010414
0.00800358
0.00638467
0.00533044
0.00465182
0.0041802
0.00376718
0.00331008
0.00275926
0.00212
0.00148286
0.000930168
0.000487107
0.000265385
0.000167913
0.000121311
9.67076e-05
8.30804e-05
7.69113e-05
7.6459e-05
8.06682e-05
8.89055e-05
0.000100966
0.000117231
0.000138748
0.00016723
0.000205144
0.000255809
0.000323466
0.000415503
0.00054791
0.000739543
0.000990269
0.0012632
0.00148725
0.00166591
0.00104376
0.00398231
0.00607803
0.00681224
0.00681731
0.00650751
0.00602103
0.00535016
0.00451522
0.00358002
0.00258296
0.00154571
0.000839457
0.000445737
0.000236533
0.000139843
9.52214e-05
7.35038e-05
6.27694e-05
5.82115e-05
5.7778e-05
6.06092e-05
6.63034e-05
7.47505e-05
8.61672e-05
0.000101127
0.000120618
0.000146171
0.000180094
0.00022585
0.00028931
0.000376406
0.000493946
0.000644265
0.000810345
0.000945541
0.000995672
0.000908642
0.000572536
0.0030608
0.00664942
0.00721759
0.00582896
0.00512701
0.00440176
0.00347629
0.00253163
0.00171954
0.00109644
0.00063604
0.000344619
0.000186994
0.000108542
7.17337e-05
5.4458e-05
4.65313e-05
4.36434e-05
4.39322e-05
4.65589e-05
5.11177e-05
5.75351e-05
6.59869e-05
7.68408e-05
9.07022e-05
0.000108507
0.000131686
0.000162426
0.000204013
0.000260523
0.000337312
0.000439089
0.000564923
0.000708066
0.000803653
0.000889623
0.000817118
0.000599961
0.00267123
0.00268318
0.00286392
0.0034984
0.00306138
0.00257399
0.00226726
0.00194815
0.00158018
0.00120052
0.000852707
0.000567455
0.000356446
0.000218799
0.000139953
9.7072e-05
7.33558e-05
6.00044e-05
5.29055e-05
5.00242e-05
5.01982e-05
5.2769e-05
5.74619e-05
6.42081e-05
7.29003e-05
8.3846e-05
9.7509e-05
0.000114572
0.000136096
0.000163878
0.000199967
0.000245493
0.000303056
0.000375884
0.000466635
0.000602924
0.000631348
0.000575245
0.000472765
0.000372613
)
;

boundaryField
{
    floor
    {
        Cmu             0.09;
        kappa           0.41;
        E               9.8;
        type            epsilonWallFunction;
        value           nonuniform List<scalar> 
29
(
0.000592315
3.40574e-05
6.09683e-05
8.44312e-05
8.14349e-05
7.27149e-05
6.26847e-05
5.17022e-05
4.22065e-05
3.46499e-05
2.87342e-05
2.40885e-05
2.04292e-05
1.75097e-05
1.51335e-05
1.3147e-05
1.14098e-05
9.79854e-06
9.2699e-06
7.36605e-06
7.36605e-06
1.95738e-05
3.24903e-05
4.46281e-05
0.000592315
3.40574e-05
4.43674e-05
0.000350128
0.000994984
)
;
    }
    ceiling
    {
        Cmu             0.09;
        kappa           0.41;
        E               9.8;
        type            epsilonWallFunction;
        value           nonuniform List<scalar> 
43
(
0.00267123
0.00268318
0.00286392
0.0034984
0.00306138
0.00257399
0.00226726
0.00194815
0.00158018
0.00120052
0.000852707
0.000567455
0.000356446
0.000218799
0.000139953
9.7072e-05
7.33558e-05
6.00044e-05
5.29055e-05
5.00242e-05
5.01982e-05
5.2769e-05
5.74619e-05
6.42081e-05
7.29003e-05
8.3846e-05
9.7509e-05
0.000114572
0.000136096
0.000163878
0.000199967
0.000245493
0.000303056
0.000375884
0.000466635
0.000602924
0.000631348
0.000575245
0.000472765
0.000372613
0.0103408
0.0172611
0.0030608
)
;
    }
    sWall
    {
        Cmu             0.09;
        kappa           0.41;
        E               9.8;
        type            epsilonWallFunction;
        value           uniform 0.00267123;
    }
    nWall
    {
        Cmu             0.09;
        kappa           0.41;
        E               9.8;
        type            epsilonWallFunction;
        value           nonuniform List<scalar> 6(0.000200687 0.00023328 0.000380099 0.000572536 0.000599961 0.000372613);
    }
    sideWalls
    {
        type            empty;
    }
    glass1
    {
        Cmu             0.09;
        kappa           0.41;
        E               9.8;
        type            epsilonWallFunction;
        value           nonuniform List<scalar> 9(0.000438532 0.00113649 0.00209474 0.00341193 0.00521932 0.00771709 0.0105919 0.0112193 0.0103408);
    }
    glass2
    {
        Cmu             0.09;
        kappa           0.41;
        E               9.8;
        type            epsilonWallFunction;
        value           nonuniform List<scalar> 2(0.00131391 0.00104376);
    }
    sun
    {
        Cmu             0.09;
        kappa           0.41;
        E               9.8;
        type            epsilonWallFunction;
        value           nonuniform List<scalar> 
14
(
0.000438532
0.000568056
0.000594048
0.000681789
0.000770446
0.000859734
0.00095311
0.00105182
0.00112515
0.0011563
0.00113099
0.00104428
0.000906143
0.000743287
)
;
    }
    heatsource1
    {
        Cmu             0.09;
        kappa           0.41;
        E               9.8;
        type            epsilonWallFunction;
        value           nonuniform List<scalar> 3(8.21861e-05 0.000140689 0.000200687);
    }
    heatsource2
    {
        Cmu             0.09;
        kappa           0.41;
        E               9.8;
        type            epsilonWallFunction;
        value           nonuniform List<scalar> 4(0.000608901 0.000137053 0.000137053 0.000576225);
    }
    Table_master
    {
        Cmu             0.09;
        kappa           0.41;
        E               9.8;
        type            epsilonWallFunction;
        value           nonuniform List<scalar> 9(0.00015354 0.000106003 7.60753e-05 5.66184e-05 4.35247e-05 3.44233e-05 2.79202e-05 2.31885e-05 1.97658e-05);
    }
    Table_slave
    {
        Cmu             0.09;
        kappa           0.41;
        E               9.8;
        type            epsilonWallFunction;
        value           nonuniform List<scalar> 9(0.000224668 0.000172171 0.000141556 0.000121718 0.000106543 9.25342e-05 8.02083e-05 6.82679e-05 5.56761e-05);
    }
    inlet
    {
        type            turbulentMixingLengthDissipationRateInlet;
        mixingLength    0.01;
        phi             phi;
        k               k;
        value           uniform 0.000101881;
    }
    outlet
    {
        type            zeroGradient;
    }
}


// ************************************************************************* //
