// -*- C++ -*-
// File generated by PyFoam - sorry for the ugliness

FoamFile
{
 version 2.0;
 format ascii;
 class volVectorField;
 location "900";
 object U;
}

dimensions [ 0 1 -1 0 0 0 0 ];

internalField nonuniform List<vector> 459
(
  (-0.0644839 0.0700381 0)
  (-0.156963 -0.0603553 0)
  (-0.0449347 -0.141379 0)
  (0.0897066 -0.112347 0)
  (0.180409 -0.078962 0)
  (0.253935 -0.0531905 0)
  (0.301235 -0.0348271 0)
  (0.325243 -0.021766 0)
  (0.33259 -0.0122396 0)
  (0.327863 -0.00440639 0)
  (0.313361 0.0029509 0)
  (0.289076 0.0110995 0)
  (0.252672 0.0224767 0)
  (0.195521 0.0450233 0)
  (0.147984 0.108043 0)
  (-0.0731244 0.0234502 0)
  (-0.0815018 -0.00860244 0)
  (-0.066441 -0.0341418 0)
  (-0.0288903 -0.0536502 0)
  (0.0362532 -0.0548001 0)
  (0.0810128 -0.0423788 0)
  (0.116526 -0.0244142 0)
  (0.139385 -0.0147477 0)
  (0.151194 -0.011305 0)
  (0.157466 -0.00999328 0)
  (0.162007 -0.0090629 0)
  (0.165695 -0.00814977 0)
  (0.168217 -0.0070362 0)
  (0.168687 -0.00524337 0)
  (0.165181 -0.00186029 0)
  (0.154648 0.00423013 0)
  (0.133334 0.0129542 0)
  (0.0958531 0.026152 0)
  (0.0716257 0.04602 0)
  (0.107032 0.180746 0)
  (-0.0637313 -0.100027 0)
  (0.0802035 -0.220748 0)
  (0.15462 -0.179587 0)
  (0.219861 -0.123254 0)
  (0.269438 -0.0766868 0)
  (0.300143 -0.0420129 0)
  (0.31442 -0.0166094 0)
  (0.316655 0.00254892 0)
  (0.309149 0.0177742 0)
  (0.29408 0.0313056 0)
  (0.272357 0.0453643 0)
  (0.245237 0.0629175 0)
  (0.216029 0.0889376 0)
  (0.197795 0.136898 0)
  (0.184969 0.12416 0)
  (0.116705 0.111233 0)
  (-0.0604785 0.0658259 0)
  (-0.0300106 0.0266697 0)
  (0.0348162 -0.0564014 0)
  (0.0571394 -0.0786226 0)
  (0.0876102 -0.0794658 0)
  (0.117548 -0.0655833 0)
  (0.134378 -0.030872 0)
  (0.139151 -0.00940509 0)
  (0.139587 -0.00179996 0)
  (0.140198 0.000511391 0)
  (0.141353 0.00157898 0)
  (0.142375 0.00237618 0)
  (0.143066 0.00369588 0)
  (0.143211 0.00684926 0)
  (0.141121 0.0134928 0)
  (0.132208 0.0278593 0)
  (0.11143 0.0453807 0)
  (0.0729999 0.0677348 0)
  (0.0686904 0.0922619 0)
  (0.32109 0.267518 0)
  (0.106091 -0.198996 0)
  (0.180755 -0.284785 0)
  (0.235783 -0.237492 0)
  (0.262684 -0.167621 0)
  (0.277832 -0.107367 0)
  (0.285036 -0.061158 0)
  (0.285203 -0.0266205 0)
  (0.278291 0.000315946 0)
  (0.26614 0.0231302 0)
  (0.250876 0.0435204 0)
  (0.233738 0.0634269 0)
  (0.216093 0.08517 0)
  (0.199296 0.110941 0)
  (0.186055 0.141965 0)
  (0.162131 0.1409 0)
  (0.123296 0.180855 0)
  (-0.0525415 0.0277706 0)
  (0.0737336 -0.0461943 0)
  (0.112177 -0.0875992 0)
  (0.125904 -0.103966 0)
  (0.138581 -0.103162 0)
  (0.153617 -0.0953406 0)
  (0.158841 -0.0703322 0)
  (0.134931 -0.0454061 0)
  (0.114477 -0.0315213 0)
  (0.104685 -0.0234999 0)
  (0.0997692 -0.0180886 0)
  (0.0959053 -0.0141604 0)
  (0.0926518 -0.0108047 0)
  (0.0918643 -0.00627518 0)
  (0.0984954 0.00399599 0)
  (0.100526 0.0375792 0)
  (0.0866653 0.068271 0)
  (0.0525949 0.103678 0)
  (0.0727956 0.139043 0)
  (0.579112 0.252057 0)
  (0.263902 -0.225134 0)
  (0.277258 -0.294441 0)
  (0.29674 -0.241543 0)
  (0.274621 -0.166908 0)
  (0.248305 -0.101893 0)
  (0.228827 -0.0523118 0)
  (0.214133 -0.0148284 0)
  (0.19645 0.0157435 0)
  (0.183455 0.0397687 0)
  (0.174208 0.05969 0)
  (0.167523 0.0782438 0)
  (0.162963 0.097716 0)
  (0.160713 0.119604 0)
  (0.164611 0.144826 0)
  (0.176672 0.160505 0)
  (0.197193 0.200701 0)
  (0.245201 0.148305 0)
  (0.187789 0.0561162 0)
  (0.196562 -0.0214896 0)
  (0.195362 -0.0763048 0)
  (0.18414 -0.0993819 0)
  (0.169331 -0.0997918 0)
  (0.149974 -0.0874373 0)
  (0.14362 -0.0505965 0)
  (0.162317 -0.0298736 0)
  (0.174036 -0.018527 0)
  (0.173837 -0.0113268 0)
  (0.167049 -0.00593759 0)
  (0.156945 -0.00151277 0)
  (0.143815 0.00256477 0)
  (0.126348 0.00719284 0)
  (0.100084 0.0138584 0)
  (0.0780561 0.0489427 0)
  (0.0684442 0.0853305 0)
  (0.0416152 0.129277 0)
  (0.0857565 0.182754 0)
  (0.980953 -0.306458 0)
  (0.268787 -0.356992 0)
  (0.26743 -0.29197 0)
  (0.256948 -0.204761 0)
  (0.189113 -0.124843 0)
  (0.132193 -0.0621532 0)
  (0.0978772 -0.0178256 0)
  (0.0758549 0.0131531 0)
  (0.0740018 0.0329098 0)
  (0.0777551 0.048448 0)
  (0.0838777 0.0631724 0)
  (0.091388 0.0784522 0)
  (0.100532 0.0950381 0)
  (0.112307 0.113195 0)
  (0.13045 0.13259 0)
  (0.156095 0.143919 0)
  (0.189504 0.147764 0)
  (0.220379 0.0756177 0)
  (0.227553 0.0116526 0)
  (0.22811 -0.0403802 0)
  (0.214957 -0.07281 0)
  (0.192327 -0.0844678 0)
  (0.166717 -0.0796585 0)
  (0.142237 -0.061952 0)
  (0.128393 -0.0278155 0)
  (0.125326 -0.00554459 0)
  (0.120601 0.00567736 0)
  (0.112325 0.011678 0)
  (0.102744 0.0158058 0)
  (0.0930028 0.0194161 0)
  (0.0829752 0.0234505 0)
  (0.0722459 0.0291028 0)
  (0.0596335 0.0384157 0)
  (0.0503827 0.0630562 0)
  (0.0527846 0.0945498 0)
  (0.0462141 0.134145 0)
  (0.0877652 0.185982 0)
  (0.10142 0.137866 0)
  (-0.109089 0.0197724 0)
  (0.281009 -0.00285121 0)
  (1.00706 -0.394752 0)
  (-0.229378 -0.315718 0)
  (0.080263 -0.207584 0)
  (0.0819836 -0.114019 0)
  (0.00142639 -0.0512326 0)
  (-0.0311522 -0.01675 0)
  (-0.037888 0.000751745 0)
  (-0.0309552 0.0124483 0)
  (-0.0200159 0.0231068 0)
  (-0.00754505 0.0357394 0)
  (0.00716592 0.0503578 0)
  (0.0224798 0.0649977 0)
  (0.0394065 0.0798717 0)
  (0.0588089 0.0944173 0)
  (0.0828315 0.10691 0)
  (0.111055 0.109816 0)
  (0.145858 0.0988476 0)
  (0.175157 0.050457 0)
  (0.188096 0.0050443 0)
  (0.184799 -0.0295222 0)
  (0.168689 -0.0508256 0)
  (0.145009 -0.0579712 0)
  (0.118879 -0.0529364 0)
  (0.0942319 -0.0383773 0)
  (0.0758546 -0.0161536 0)
  (0.0639139 0.0013774 0)
  (0.0553696 0.011416 0)
  (0.048086 0.0169858 0)
  (0.0413324 0.0209687 0)
  (0.0351895 0.0247592 0)
  (0.0296127 0.0292905 0)
  (0.024755 0.0356421 0)
  (0.020213 0.0453905 0)
  (0.0194221 0.0644607 0)
  (0.0295949 0.0903068 0)
  (0.0317958 0.119554 0)
  (0.0635098 0.155087 0)
  (0.0794831 0.104499 0)
  (-0.00393806 0.0433905 0)
  (0.170373 0.0100649 0)
  (0.989946 -0.367309 0)
  (-0.413893 -0.269761 0)
  (-0.0191363 -0.212704 0)
  (-0.053359 -0.0744622 0)
  (-0.0987894 -0.0380651 0)
  (-0.103141 -0.0222692 0)
  (-0.0994032 -0.0122829 0)
  (-0.0915177 -0.00295054 0)
  (-0.0802725 0.00766023 0)
  (-0.0680172 0.019497 0)
  (-0.0535973 0.0323613 0)
  (-0.0371985 0.0454701 0)
  (-0.0186772 0.0581224 0)
  (0.00343496 0.0697956 0)
  (0.0290124 0.0776599 0)
  (0.0566295 0.0767098 0)
  (0.087503 0.0642687 0)
  (0.109443 0.0337173 0)
  (0.116007 0.00376342 0)
  (0.110224 -0.0183744 0)
  (0.0941721 -0.0312184 0)
  (0.0721545 -0.0341815 0)
  (0.0483513 -0.0286107 0)
  (0.0259747 -0.0167003 0)
  (0.00798624 -0.000927438 0)
  (-0.0033867 0.0117474 0)
  (-0.00877656 0.0185136 0)
  (-0.0125873 0.0224004 0)
  (-0.0155098 0.0254501 0)
  (-0.0176438 0.0285372 0)
  (-0.0188709 0.0322816 0)
  (-0.0189341 0.0374198 0)
  (-0.0179848 0.045025 0)
  (-0.0138996 0.0580505 0)
  (-0.000851283 0.077661 0)
  (0.00476443 0.101455 0)
  (0.0334054 0.130598 0)
  (0.0543544 0.095452 0)
  (-0.0286415 0.0643833 0)
  (0.185006 0.0122063 0)
  (0.948004 -0.286563 0)
  (-0.423794 -0.222119 0)
  (-0.172114 -0.233064 0)
  (-0.131082 -0.0838233 0)
  (-0.153043 -0.0453508 0)
  (-0.142095 -0.0295949 0)
  (-0.134918 -0.0202597 0)
  (-0.128701 -0.0122194 0)
  (-0.121448 -0.00339425 0)
  (-0.112037 0.00670362 0)
  (-0.100847 0.017351 0)
  (-0.0872028 0.0279007 0)
  (-0.071072 0.0376236 0)
  (-0.0521036 0.0457698 0)
  (-0.0303641 0.0508723 0)
  (-0.00710536 0.0499786 0)
  (0.0161949 0.0409174 0)
  (0.0288728 0.0234455 0)
  (0.0300168 0.00624414 0)
  (0.0232431 -0.00652864 0)
  (0.00867525 -0.0130461 0)
  (-0.0108123 -0.0127111 0)
  (-0.0299753 -0.00699654 0)
  (-0.0470266 0.00170034 0)
  (-0.0581076 0.0104767 0)
  (-0.0630943 0.0169742 0)
  (-0.0650344 0.0210728 0)
  (-0.0656073 0.0239397 0)
  (-0.0652359 0.0262898 0)
  (-0.0639437 0.0285468 0)
  (-0.061586 0.0311314 0)
  (-0.0580284 0.03463 0)
  (-0.0532528 0.0400222 0)
  (-0.0459909 0.0492919 0)
  (-0.0335743 0.0642441 0)
  (-0.0235015 0.0838975 0)
  (0.00630853 0.111891 0)
  (0.0387838 0.0919309 0)
  (-0.0603822 0.0808364 0)
  (0.32288 0.0452238 0)
  (0.81403 -0.252879 0)
  (-0.490428 -0.265347 0)
  (-0.370394 -0.295059 0)
  (-0.146708 -0.131288 0)
  (-0.175415 -0.0588646 0)
  (-0.163725 -0.0340805 0)
  (-0.160215 -0.0229868 0)
  (-0.158355 -0.0153791 0)
  (-0.155609 -0.00827399 0)
  (-0.150853 -0.000673679 0)
  (-0.14374 0.00747843 0)
  (-0.13446 0.0155476 0)
  (-0.122835 0.0228864 0)
  (-0.109092 0.0288432 0)
  (-0.093785 0.0324927 0)
  (-0.078409 0.0326093 0)
  (-0.0653275 0.0287329 0)
  (-0.0590247 0.0209214 0)
  (-0.0603311 0.0124261 0)
  (-0.0676137 0.00612717 0)
  (-0.0780389 0.00340593 0)
  (-0.0901949 0.00412736 0)
  (-0.101083 0.00694875 0)
  (-0.10854 0.0105911 0)
  (-0.11248 0.0142234 0)
  (-0.113406 0.0171458 0)
  (-0.112482 0.0192126 0)
  (-0.110384 0.0206706 0)
  (-0.107322 0.0217386 0)
  (-0.103301 0.0226943 0)
  (-0.0982625 0.0239829 0)
  (-0.0921758 0.0262844 0)
  (-0.0849222 0.0306089 0)
  (-0.0756593 0.038382 0)
  (-0.0630211 0.0506493 0)
  (-0.0480425 0.0666581 0)
  (-0.0197797 0.0875365 0)
  (0.0241425 0.082311 0)
  (-0.0935331 0.0767165 0)
  (0.355879 0.0635892 0)
  (-0.543482 -0.20215 0)
  (-0.0722357 -0.113904 0)
  (-0.152427 -0.0460448 0)
  (-0.1765 -0.0216863 0)
  (-0.185874 -0.0113878 0)
  (-0.190556 -0.00469429 0)
  (-0.192574 0.00124895 0)
  (-0.192131 0.00715658 0)
  (-0.189113 0.012876 0)
  (-0.184158 0.0178326 0)
  (-0.177351 0.0224006 0)
  (-0.169038 0.0263523 0)
  (-0.159854 0.0292882 0)
  (-0.150933 0.0307457 0)
  (-0.143813 0.0305179 0)
  (-0.140276 0.0286673 0)
  (-0.140731 0.026349 0)
  (-0.144249 0.0248933 0)
  (-0.149124 0.025151 0)
  (-0.153745 0.0270013 0)
  (-0.156898 0.0296815 0)
  (-0.158066 0.0326827 0)
  (-0.157291 0.0356982 0)
  (-0.154881 0.0384771 0)
  (-0.151252 0.0409266 0)
  (-0.146666 0.0430312 0)
  (-0.141247 0.0447934 0)
  (-0.135055 0.0462563 0)
  (-0.128114 0.0475195 0)
  (-0.120407 0.0487644 0)
  (-0.111745 0.050327 0)
  (-0.101504 0.0527683 0)
  (-0.088622 0.0566945 0)
  (-0.071699 0.0625549 0)
  (-0.0459088 0.0715951 0)
  (-0.0215035 0.0748781 0)
  (-0.107522 0.0640827 0)
  (0.245297 0.0775681 0)
  (-0.176263 -0.0748336 0)
  (-0.126452 -0.088895 0)
  (-0.179103 -0.0901248 0)
  (-0.206154 -0.0881367 0)
  (-0.220494 -0.0863451 0)
  (-0.229668 -0.0839223 0)
  (-0.235785 -0.0806803 0)
  (-0.239234 -0.0764427 0)
  (-0.240031 -0.0709003 0)
  (-0.238307 -0.0636618 0)
  (-0.234563 -0.0571255 0)
  (-0.229014 -0.0518475 0)
  (-0.222143 -0.0481921 0)
  (-0.214676 -0.0466344 0)
  (-0.207556 -0.0476402 0)
  (-0.201777 -0.0514555 0)
  (-0.197833 -0.0575546 0)
  (-0.195522 -0.0648402 0)
  (-0.194114 -0.0720786 0)
  (-0.192767 -0.0784774 0)
  (-0.190861 -0.0838187 0)
  (-0.188083 -0.0881472 0)
  (-0.184351 -0.0917691 0)
  (-0.17975 -0.0951766 0)
  (-0.174467 -0.0987828 0)
  (-0.168732 -0.102799 0)
  (-0.162781 -0.107193 0)
  (-0.156821 -0.111635 0)
  (-0.150955 -0.115433 0)
  (-0.145089 -0.117502 0)
  (-0.138787 -0.116477 0)
  (-0.131082 -0.111094 0)
  (-0.120237 -0.100644 0)
  (-0.103747 -0.0849114 0)
  (-0.0805544 -0.0647445 0)
  (-0.0632521 -0.0504178 0)
  (-0.0862918 -0.0644441 0)
  (0.18486 -0.0664221 0)
  (0.140735 0.290868 0)
  (-0.0742047 -0.53051 0)
  (-0.336304 0.241979 0)
  (-0.258948 0.241121 0)
  (-0.258762 0.236945 0)
  (-0.263763 0.232265 0)
  (-0.271534 0.227775 0)
  (-0.279803 0.22379 0)
  (-0.287363 0.220372 0)
  (-0.293457 0.217166 0)
  (-0.297502 0.2137 0)
  (-0.298748 0.209589 0)
  (-0.297168 0.207249 0)
  (-0.292851 0.207126 0)
  (-0.286046 0.209398 0)
  (-0.277211 0.21424 0)
  (-0.26706 0.221727 0)
  (-0.256505 0.231669 0)
  (-0.246376 0.243434 0)
  (-0.237166 0.256002 0)
  (-0.228964 0.268249 0)
  (-0.221591 0.279359 0)
  (-0.214774 0.289019 0)
  (-0.208229 0.297378 0)
  (-0.201722 0.304886 0)
  (-0.195124 0.31208 0)
  (-0.18843 0.31939 0)
  (-0.181711 0.327069 0)
  (-0.175061 0.335175 0)
  (-0.168535 0.343526 0)
  (-0.162097 0.351625 0)
  (-0.155571 0.35863 0)
  (-0.148565 0.363456 0)
  (-0.140246 0.365077 0)
  (-0.129038 0.362895 0)
  (-0.113246 0.357199 0)
  (-0.0950155 0.350848 0)
  (-0.085978 0.353181 0)
  (-0.0822369 0.382248 0)
  (0.202855 0.443578 0)
)
;

boundaryField
{
  floor
  {
    type noSlip;
  }
  ceiling
  {
    type noSlip;
  }
  sWall
  {
    type noSlip;
  }
  nWall
  {
    type noSlip;
  }
  sideWalls
  {
    type empty;
  }
  glass1
  {
    type noSlip;
  }
  glass2
  {
    type noSlip;
  }
  sun
  {
    type noSlip;
  }
  heatsource1
  {
    type noSlip;
  }
  heatsource2
  {
    type noSlip;
  }
  Table_master
  {
    type noSlip;
  }
  Table_slave
  {
    type noSlip;
  }
  inlet
  {
    type fixedValue;
    value uniform (0.092388 -0.0382683 0);
  }
  outlet
  {
    type zeroGradient;
  }
} 	// ************************************************************************* //

