/*--------------------------------*- C++ -*----------------------------------*\
  =========                 |
  \\      /  F ield         | OpenFOAM: The Open Source CFD Toolbox
   \\    /   O peration     | Website:  https://openfoam.org
    \\  /    A nd           | Version:  6
     \\/     M anipulation  |
\*---------------------------------------------------------------------------*/
FoamFile
{
    version     2.0;
    format      ascii;
    class       volScalarField;
    location    "720";
    object      epsilon;
}
// * * * * * * * * * * * * * * * * * * * * * * * * * * * * * * * * * * * * * //

dimensions      [0 2 -3 0 0 0 0];

internalField   nonuniform List<scalar> 
459
(
0.000176379
0.000219953
0.00022889
0.000258919
0.000287241
0.00031387
0.000339506
0.000365133
0.000392193
0.000417882
0.000438006
0.000449413
0.000450034
0.000441892
0.000430134
8.9449e-05
0.000135183
0.000112918
8.64086e-05
6.37844e-05
4.82748e-05
3.63028e-05
2.732e-05
2.08369e-05
1.6157e-05
1.27252e-05
1.01653e-05
8.21784e-06
6.6964e-06
5.46741e-06
4.43984e-06
4.20636e-06
1.21038e-05
3.32189e-05
0.000465868
0.000749452
0.000206296
0.00019717
0.000198635
0.000202696
0.000210013
0.000222529
0.000242358
0.000267769
0.000294581
0.000318066
0.000334329
0.000347203
0.000382399
0.000503165
0.000332553
0.000208646
0.000258966
0.000150529
0.000101119
7.12385e-05
5.19033e-05
3.8918e-05
2.86095e-05
2.12394e-05
1.60352e-05
1.23287e-05
9.65953e-06
7.72221e-06
6.34002e-06
5.52612e-06
5.32513e-06
1.3968e-05
5.16426e-05
5.71267e-05
0.000889051
0.00196457
0.000253784
0.000184222
0.000180931
0.00018685
0.000198448
0.000216934
0.000243213
0.000276451
0.000312732
0.000346633
0.000374353
0.000397039
0.000422235
0.000458959
0.000690224
0.000421185
0.000258839
0.000166758
0.000116749
8.5515e-05
6.48253e-05
8.93944e-05
5.55649e-05
3.75742e-05
2.69869e-05
2.02907e-05
1.58286e-05
1.2748e-05
1.0588e-05
9.12089e-06
6.97738e-06
1.28828e-05
6.61311e-05
7.62188e-05
0.00150596
0.0042262
0.000402825
0.000179462
0.000167625
0.000174889
0.000187897
0.000208156
0.000238728
0.000279426
0.000322207
0.000361734
0.000397411
0.000430027
0.000455485
0.000455852
0.000430438
0.000733761
0.000426502
0.000257849
0.000171794
0.000121398
8.97751e-05
7.1734e-05
0.000143685
0.000100838
7.28884e-05
5.4362e-05
4.17381e-05
3.27845e-05
2.6063e-05
2.06252e-05
1.56852e-05
8.93935e-06
1.21554e-05
9.86147e-05
9.77126e-05
0.00238871
0.00775836
0.000795962
0.000192617
0.000154583
0.000160157
0.000174331
0.000199408
0.000243569
0.000301368
0.000351711
0.000394061
0.000434848
0.000475829
0.000508003
0.000508404
0.000461831
0.000385163
0.000292632
0.000212151
0.000151143
0.000108562
8.16584e-05
6.76046e-05
6.83589e-05
5.82149e-05
4.73461e-05
3.83298e-05
3.13197e-05
2.58372e-05
2.13523e-05
1.74432e-05
1.36533e-05
1.03063e-05
1.11986e-05
5.2918e-05
9.03216e-05
9.36336e-05
0.00017529
0.000557379
0.00364054
0.0117949
0.00182771
0.000297819
0.000168567
0.000159099
0.000169396
0.00019986
0.000282821
0.000367146
0.000419326
0.000459317
0.000504153
0.00055454
0.000594208
0.000596004
0.000540333
0.000437484
0.000324593
0.000226903
0.000153442
0.000104856
7.70712e-05
6.41754e-05
5.88609e-05
5.26052e-05
4.5908e-05
3.98694e-05
3.47378e-05
3.02966e-05
2.62539e-05
2.23882e-05
1.85452e-05
1.53906e-05
1.506e-05
2.37235e-05
5.55554e-05
0.000167415
0.00083412
0.00133284
0.00531601
0.0143408
0.00437807
0.000995122
0.00044553
0.000306276
0.000274777
0.000305881
0.00044349
0.000515605
0.000545266
0.000571849
0.000618652
0.000681906
0.00073632
0.000746221
0.000681196
0.000549313
0.000397567
0.000265508
0.000171043
0.00011357
8.44942e-05
7.27411e-05
6.77687e-05
6.36929e-05
5.95757e-05
5.58155e-05
5.25585e-05
4.96399e-05
4.68149e-05
4.38497e-05
4.04964e-05
3.68345e-05
3.38771e-05
3.68082e-05
7.59856e-05
0.000531045
0.00269432
0.0031213
0.00591574
0.0191789
0.00922509
0.00483816
0.00259671
0.00152256
0.00105851
0.000929549
0.000863705
0.000796497
0.000749458
0.000749279
0.000803587
0.000889475
0.000965178
0.000983954
0.000900617
0.000721474
0.00051411
0.000340661
0.000227791
0.000166276
0.000137549
0.000124745
0.000119444
0.000117067
0.000115907
0.000115669
0.000116288
0.000117595
0.000119302
0.000120935
0.000121674
0.000120248
0.000113661
0.000111349
0.000189756
0.00113056
0.00944763
0.00758261
0.0056539
0.0103494
0.00792562
0.00579206
0.00414507
0.00296333
0.00219359
0.00169949
0.00134198
0.0011061
0.000994998
0.0010067
0.00111035
0.00124514
0.00135091
0.00137717
0.00125891
0.00100836
0.00073864
0.000554718
0.000434564
0.000368527
0.00033826
0.000321964
0.000315239
0.000314559
0.000317849
0.000324292
0.000333624
0.000345695
0.000360193
0.00037639
0.000393195
0.000410433
0.000409701
0.0003855
0.000505646
0.00188212
0.0129059
0.0102696
0.00253159
0.00308698
0.00282198
0.00233383
0.00188179
0.00152394
0.0012885
0.00121559
0.00130255
0.00151534
0.00177668
0.0019967
0.00213664
0.0021786
0.00201186
0.00168158
0.00144735
0.00128258
0.00115748
0.00109017
0.00104942
0.00102602
0.0010158
0.00101636
0.00102608
0.0010441
0.0010703
0.00110497
0.00114829
0.00119951
0.00125752
0.00131067
0.00132335
0.00129667
0.00141016
0.00269226
0.00933857
0.00607119
0.00148506
0.00239381
0.00237454
0.00214221
0.00196436
0.00195076
0.00216424
0.00253152
0.00303303
0.00356304
0.0039726
0.00419506
0.00437571
0.00462336
0.00453057
0.00418641
0.00389337
0.00365063
0.00342315
0.00325803
0.00315593
0.00309672
0.00306896
0.0030673
0.00308727
0.00312589
0.00318234
0.00325778
0.00335391
0.00346872
0.00358367
0.00364689
0.00358775
0.00337571
0.00317589
0.00358627
0.0050463
0.00350482
0.000863038
0.00106482
0.00129402
0.00164997
0.00162966
0.0014671
0.00130827
0.00116311
0.00104957
0.00104965
0.00113705
0.00129001
0.00146859
0.00163599
0.00184059
0.00211414
0.00222383
0.00219843
0.00213579
0.0020688
0.00202454
0.00199301
0.00197209
0.0019612
0.00195872
0.00196291
0.00197227
0.00198562
0.00200214
0.00202094
0.00204029
0.00205576
0.00205835
0.00203698
0.00198823
0.00195178
0.002055
0.00238006
0.00269687
0.00198964
)
;

boundaryField
{
    floor
    {
        Cmu             0.09;
        kappa           0.41;
        E               9.8;
        type            epsilonWallFunction;
        value           nonuniform List<scalar> 
29
(
0.000430134
8.9449e-05
0.000135183
0.000112918
8.64086e-05
6.37844e-05
4.82748e-05
3.63028e-05
2.732e-05
2.08369e-05
1.6157e-05
1.27252e-05
1.01653e-05
8.21784e-06
6.6964e-06
5.46741e-06
4.43984e-06
4.20636e-06
1.21038e-05
3.32189e-05
3.32189e-05
5.71267e-05
7.62188e-05
9.77126e-05
0.000430134
8.9449e-05
0.000208646
0.000421185
0.000733761
)
;
    }
    ceiling
    {
        Cmu             0.09;
        kappa           0.41;
        E               9.8;
        type            epsilonWallFunction;
        value           nonuniform List<scalar> 
43
(
0.000863038
0.00106482
0.00129402
0.00164997
0.00162966
0.0014671
0.00130827
0.00116311
0.00104957
0.00104965
0.00113705
0.00129001
0.00146859
0.00163599
0.00184059
0.00211414
0.00222383
0.00219843
0.00213579
0.0020688
0.00202454
0.00199301
0.00197209
0.0019612
0.00195872
0.00196291
0.00197227
0.00198562
0.00200214
0.00202094
0.00204029
0.00205576
0.00205835
0.00203698
0.00198823
0.00195178
0.002055
0.00238006
0.00269687
0.00198964
0.0056539
0.0103494
0.00148506
)
;
    }
    sWall
    {
        Cmu             0.09;
        kappa           0.41;
        E               9.8;
        type            epsilonWallFunction;
        value           uniform 0.000863038;
    }
    nWall
    {
        Cmu             0.09;
        kappa           0.41;
        E               9.8;
        type            epsilonWallFunction;
        value           nonuniform List<scalar> 6(0.000557379 0.00133284 0.0031213 0.00607119 0.00350482 0.00198964);
    }
    sideWalls
    {
        type            empty;
    }
    glass1
    {
        Cmu             0.09;
        kappa           0.41;
        E               9.8;
        type            epsilonWallFunction;
        value           nonuniform List<scalar> 9(0.000176379 0.000465868 0.000889051 0.00150596 0.00238871 0.00364054 0.00531601 0.00591574 0.0056539);
    }
    glass2
    {
        Cmu             0.09;
        kappa           0.41;
        E               9.8;
        type            epsilonWallFunction;
        value           nonuniform List<scalar> 2(0.00758261 0.0102696);
    }
    sun
    {
        Cmu             0.09;
        kappa           0.41;
        E               9.8;
        type            epsilonWallFunction;
        value           nonuniform List<scalar> 
14
(
0.000176379
0.000219953
0.00022889
0.000258919
0.000287241
0.00031387
0.000339506
0.000365133
0.000392193
0.000417882
0.000438006
0.000449413
0.000450034
0.000441892
)
;
    }
    heatsource1
    {
        Cmu             0.09;
        kappa           0.41;
        E               9.8;
        type            epsilonWallFunction;
        value           nonuniform List<scalar> 3(9.36336e-05 0.00017529 0.000557379);
    }
    heatsource2
    {
        Cmu             0.09;
        kappa           0.41;
        E               9.8;
        type            epsilonWallFunction;
        value           nonuniform List<scalar> 4(0.000503165 0.000332553 0.000332553 0.000690224);
    }
    Table_master
    {
        Cmu             0.09;
        kappa           0.41;
        E               9.8;
        type            epsilonWallFunction;
        value           nonuniform List<scalar> 9(8.93944e-05 5.55649e-05 3.75742e-05 2.69869e-05 2.02907e-05 1.58286e-05 1.2748e-05 1.0588e-05 9.12089e-06);
    }
    Table_slave
    {
        Cmu             0.09;
        kappa           0.41;
        E               9.8;
        type            epsilonWallFunction;
        value           nonuniform List<scalar> 9(0.000143685 0.000100838 7.28884e-05 5.4362e-05 4.17381e-05 3.27845e-05 2.6063e-05 2.06252e-05 1.56852e-05);
    }
    inlet
    {
        type            turbulentMixingLengthDissipationRateInlet;
        mixingLength    0.01;
        phi             phi;
        k               k;
        value           uniform 0.000101881;
    }
    outlet
    {
        type            zeroGradient;
    }
}


// ************************************************************************* //
