/*--------------------------------*- C++ -*----------------------------------*\
  =========                 |
  \\      /  F ield         | OpenFOAM: The Open Source CFD Toolbox
   \\    /   O peration     | Website:  https://openfoam.org
    \\  /    A nd           | Version:  6
     \\/     M anipulation  |
\*---------------------------------------------------------------------------*/
FoamFile
{
    version     2.0;
    format      ascii;
    class       volScalarField;
    location    "390";
    object      epsilon;
}
// * * * * * * * * * * * * * * * * * * * * * * * * * * * * * * * * * * * * * //

dimensions      [0 2 -3 0 0 0 0];

internalField   nonuniform List<scalar> 
459
(
0.0002608
0.000488005
0.000542325
0.000498522
0.000441218
0.000389578
0.000345349
0.000307505
0.000275387
0.000246762
0.00022009
0.000194118
0.000167589
0.000138637
0.000109479
5.22908e-05
0.000119205
0.000134709
0.000131756
0.000117766
0.000101922
8.43162e-05
6.92143e-05
5.7349e-05
4.81268e-05
4.08946e-05
3.51381e-05
3.04595e-05
2.66184e-05
2.33078e-05
2.02653e-05
1.73456e-05
1.3482e-05
1.25693e-05
0.000459049
0.00101131
0.000581022
0.000425432
0.000327659
0.00026488
0.000225352
0.000199538
0.000181644
0.000167221
0.000153546
0.000139119
0.000123562
0.00010674
9.08094e-05
0.000104113
7.41787e-05
0.000193064
0.000469867
0.000205376
0.000138429
0.000108366
8.9454e-05
8.26636e-05
6.75499e-05
5.39981e-05
4.32235e-05
3.48849e-05
2.84497e-05
2.34181e-05
1.95206e-05
1.65911e-05
1.5067e-05
1.81508e-05
2.03624e-05
2.51989e-05
0.000553957
0.0011603
0.000498992
0.000358658
0.000261527
0.000204069
0.000174863
0.00015994
0.000150484
0.00014131
0.000130099
0.000116635
0.000102153
8.79292e-05
7.61392e-05
7.30366e-05
7.85812e-05
0.000173367
0.000393108
0.000198647
0.000137208
0.000108438
9.50655e-05
0.000191879
0.000132923
9.45116e-05
6.91754e-05
5.20823e-05
4.02685e-05
3.19427e-05
2.62287e-05
2.25696e-05
1.69238e-05
1.86301e-05
3.30182e-05
3.82822e-05
0.000608531
0.00103887
0.000393529
0.000331257
0.000222012
0.000157168
0.000131968
0.000123983
0.000120724
0.000115697
0.000107351
9.65331e-05
8.49296e-05
7.40545e-05
6.57941e-05
6.14771e-05
6.57053e-05
8.61692e-05
0.000142718
0.000123104
0.000111837
0.000104723
9.71698e-05
9.5516e-05
0.000250299
0.000193934
0.000155863
0.000127043
0.000103392
8.30056e-05
6.49715e-05
4.88307e-05
3.39373e-05
1.85024e-05
1.7678e-05
6.71895e-05
6.03359e-05
0.000661379
0.000890204
0.000394043
0.000382534
0.000221924
0.000122898
9.1741e-05
8.88847e-05
9.05092e-05
8.93396e-05
8.50125e-05
7.85717e-05
7.15353e-05
6.53634e-05
6.18262e-05
6.11079e-05
7.0329e-05
7.90564e-05
8.97829e-05
0.000106145
0.000117302
0.000119308
0.000113158
0.000104038
0.000105179
0.000101549
9.71148e-05
8.99363e-05
7.99174e-05
6.78246e-05
5.44666e-05
4.07166e-05
2.62875e-05
1.60181e-05
1.53029e-05
5.82995e-05
7.34973e-05
8.14637e-05
0.000102965
0.000310058
0.000701816
0.000891815
0.000457382
0.000484944
0.000266243
0.000114446
7.29016e-05
6.86155e-05
7.05598e-05
7.16283e-05
7.09401e-05
6.88652e-05
6.66824e-05
6.58536e-05
6.8585e-05
7.67729e-05
9.57734e-05
0.000119061
0.000143526
0.000161364
0.000167114
0.000159602
0.000142994
0.00012384
0.000108782
9.79583e-05
8.89907e-05
7.91084e-05
6.76638e-05
5.51061e-05
4.21209e-05
2.95e-05
1.92574e-05
1.45681e-05
1.60361e-05
3.73443e-05
6.36457e-05
0.000123286
0.000494525
0.000731906
0.000738616
0.00106552
0.00054819
0.000654337
0.000382546
0.000154
8.6275e-05
7.44777e-05
7.46034e-05
7.635e-05
7.79243e-05
7.94937e-05
8.20075e-05
8.74437e-05
9.80489e-05
0.000117194
0.000148214
0.000186056
0.000216013
0.000227852
0.000218867
0.000194232
0.000162911
0.000132436
0.000108122
9.28669e-05
8.07978e-05
6.91028e-05
5.74398e-05
4.6383e-05
3.67553e-05
2.94208e-05
2.52433e-05
2.49407e-05
2.75676e-05
3.68209e-05
6.76078e-05
0.000265234
0.00158052
0.00184949
0.000740269
0.00125624
0.000665381
0.000891093
0.00056508
0.000236831
0.000145493
0.00012998
0.000130731
0.000134299
0.000138382
0.000143316
0.000150308
0.000161316
0.000178999
0.000208337
0.000247642
0.000286385
0.000304099
0.000295153
0.000260709
0.000217758
0.000177888
0.000145467
0.000121891
0.000105567
9.30014e-05
8.27821e-05
7.49681e-05
7.01948e-05
6.91404e-05
7.2136e-05
7.85898e-05
8.60584e-05
9.1248e-05
0.000100316
0.000146916
0.00069242
0.00613185
0.00486791
0.000834548
0.000664851
0.000846933
0.00109294
0.000766795
0.00038773
0.000318264
0.000316279
0.000327835
0.000339016
0.000348081
0.000356265
0.00036547
0.000377799
0.000395284
0.000418959
0.000444232
0.000459146
0.000450538
0.000419468
0.000376189
0.000331342
0.000291483
0.000260033
0.000236765
0.000220625
0.000210603
0.000206772
0.000209931
0.000221089
0.000240878
0.000268654
0.000300989
0.000330529
0.000350824
0.000352388
0.000422287
0.00135468
0.00915841
0.0069576
0.000915186
0.001213
0.000929776
0.000782812
0.000826434
0.000898503
0.000957189
0.000995847
0.00101795
0.0010284
0.00103139
0.00103028
0.00102757
0.00102413
0.00101778
0.00100376
0.000978871
0.000944987
0.000907278
0.00087007
0.000835517
0.000805202
0.000780729
0.000764178
0.000758058
0.000765302
0.000789065
0.000832309
0.000896723
0.000980285
0.00107322
0.00115616
0.00121602
0.00120609
0.00127813
0.0021638
0.00700467
0.00425855
0.00331414
0.0032023
0.00226243
0.00209893
0.00228202
0.00249636
0.00265697
0.00275453
0.00280216
0.0028147
0.0028042
0.00278082
0.00275445
0.00273443
0.00272595
0.00272518
0.00271891
0.00269735
0.00266124
0.0026161
0.0025661
0.00251535
0.00246945
0.00243556
0.00242132
0.00243497
0.00248539
0.00258197
0.00273282
0.00293868
0.00317802
0.00338195
0.00341772
0.00324238
0.00295896
0.00305476
0.00382303
0.00251182
0.000787288
0.000938748
0.00136506
0.00167756
0.00176377
0.00178304
0.00180305
0.00182175
0.00183415
0.00184062
0.00184338
0.0018446
0.00184606
0.00184898
0.00185356
0.00185831
0.0018598
0.00185418
0.00184012
0.00181952
0.00179574
0.00177192
0.00175047
0.00173329
0.00172199
0.00171812
0.0017232
0.00173862
0.00176524
0.00180269
0.00184807
0.00189393
0.0019258
0.00192303
0.00188238
0.00182583
0.00185002
0.00201017
0.0021106
0.00149786
)
;

boundaryField
{
    floor
    {
        Cmu             0.09;
        kappa           0.41;
        E               9.8;
        type            epsilonWallFunction;
        value           nonuniform List<scalar> 
29
(
0.000109479
5.22908e-05
0.000119205
0.000134709
0.000131756
0.000117766
0.000101922
8.43162e-05
6.92143e-05
5.7349e-05
4.81268e-05
4.08946e-05
3.51381e-05
3.04595e-05
2.66184e-05
2.33078e-05
2.02653e-05
1.73456e-05
1.3482e-05
1.25693e-05
1.25693e-05
2.51989e-05
3.82822e-05
6.03359e-05
0.000109479
5.22908e-05
0.000193064
0.000173367
8.61692e-05
)
;
    }
    ceiling
    {
        Cmu             0.09;
        kappa           0.41;
        E               9.8;
        type            epsilonWallFunction;
        value           nonuniform List<scalar> 
43
(
0.000787288
0.000938748
0.00136506
0.00167756
0.00176377
0.00178304
0.00180305
0.00182175
0.00183415
0.00184062
0.00184338
0.0018446
0.00184606
0.00184898
0.00185356
0.00185831
0.0018598
0.00185418
0.00184012
0.00181952
0.00179574
0.00177192
0.00175047
0.00173329
0.00172199
0.00171812
0.0017232
0.00173862
0.00176524
0.00180269
0.00184807
0.00189393
0.0019258
0.00192303
0.00188238
0.00182583
0.00185002
0.00201017
0.0021106
0.00149786
0.000834548
0.000664851
0.00331414
)
;
    }
    sWall
    {
        Cmu             0.09;
        kappa           0.41;
        E               9.8;
        type            epsilonWallFunction;
        value           uniform 0.000787288;
    }
    nWall
    {
        Cmu             0.09;
        kappa           0.41;
        E               9.8;
        type            epsilonWallFunction;
        value           nonuniform List<scalar> 6(0.000310058 0.000731906 0.00184949 0.00425855 0.00251182 0.00149786);
    }
    sideWalls
    {
        type            empty;
    }
    glass1
    {
        Cmu             0.09;
        kappa           0.41;
        E               9.8;
        type            epsilonWallFunction;
        value           nonuniform List<scalar> 9(0.0002608 0.000459049 0.000553957 0.000608531 0.000661379 0.000701816 0.000738616 0.000740269 0.000834548);
    }
    glass2
    {
        Cmu             0.09;
        kappa           0.41;
        E               9.8;
        type            epsilonWallFunction;
        value           nonuniform List<scalar> 2(0.00486791 0.0069576);
    }
    sun
    {
        Cmu             0.09;
        kappa           0.41;
        E               9.8;
        type            epsilonWallFunction;
        value           nonuniform List<scalar> 
14
(
0.0002608
0.000488005
0.000542325
0.000498522
0.000441218
0.000389578
0.000345349
0.000307505
0.000275387
0.000246762
0.00022009
0.000194118
0.000167589
0.000138637
)
;
    }
    heatsource1
    {
        Cmu             0.09;
        kappa           0.41;
        E               9.8;
        type            epsilonWallFunction;
        value           nonuniform List<scalar> 3(8.14637e-05 0.000102965 0.000310058);
    }
    heatsource2
    {
        Cmu             0.09;
        kappa           0.41;
        E               9.8;
        type            epsilonWallFunction;
        value           nonuniform List<scalar> 4(0.000104113 7.41787e-05 7.41787e-05 7.85812e-05);
    }
    Table_master
    {
        Cmu             0.09;
        kappa           0.41;
        E               9.8;
        type            epsilonWallFunction;
        value           nonuniform List<scalar> 9(0.000191879 0.000132923 9.45116e-05 6.91754e-05 5.20823e-05 4.02685e-05 3.19427e-05 2.62287e-05 2.25696e-05);
    }
    Table_slave
    {
        Cmu             0.09;
        kappa           0.41;
        E               9.8;
        type            epsilonWallFunction;
        value           nonuniform List<scalar> 9(0.000250299 0.000193934 0.000155863 0.000127043 0.000103392 8.30056e-05 6.49715e-05 4.88307e-05 3.39373e-05);
    }
    inlet
    {
        type            turbulentMixingLengthDissipationRateInlet;
        mixingLength    0.01;
        phi             phi;
        k               k;
        value           uniform 0.000101881;
    }
    outlet
    {
        type            zeroGradient;
    }
}


// ************************************************************************* //
