// -*- C++ -*-
// File generated by PyFoam - sorry for the ugliness

FoamFile
{
 version 2.0;
 format ascii;
 class volVectorField;
 location "350";
 object U;
}

dimensions [ 0 1 -1 0 0 0 0 ];

internalField nonuniform List<vector> 459
(
  (-0.0698854 -0.0521468 0)
  (0.0811296 -0.0282862 0)
  (0.114774 -0.0363675 0)
  (0.149071 -0.0302762 0)
  (0.178967 -0.0207643 0)
  (0.196702 -0.0132254 0)
  (0.203474 -0.00794449 0)
  (0.202944 -0.00405999 0)
  (0.197739 -0.000875343 0)
  (0.189083 0.00197962 0)
  (0.177058 0.00490122 0)
  (0.161032 0.00849465 0)
  (0.139313 0.014019 0)
  (0.105767 0.0257551 0)
  (0.0953717 0.0583939 0)
  (-0.11497 0.0051543 0)
  (0.0224575 0.00602475 0)
  (-0.00536288 -0.0133086 0)
  (0.0201568 -0.0215742 0)
  (0.0384911 -0.0172075 0)
  (0.0542892 -0.01186 0)
  (0.0648934 -0.00729154 0)
  (0.0708368 -0.00486777 0)
  (0.0738994 -0.00386799 0)
  (0.0757742 -0.00338575 0)
  (0.0771928 -0.00302963 0)
  (0.0782089 -0.00267488 0)
  (0.0786258 -0.002199 0)
  (0.0779439 -0.0013003 0)
  (0.0752083 0.000558706 0)
  (0.0685572 0.00428036 0)
  (0.0567735 0.00980567 0)
  (0.00768048 0.0219186 0)
  (0.102409 0.00601738 0)
  (-0.155621 -0.0716747 0)
  (0.0893479 -0.0501129 0)
  (0.0877763 -0.0709971 0)
  (0.121331 -0.0532874 0)
  (0.147615 -0.0308458 0)
  (0.160764 -0.0140234 0)
  (0.164734 -0.00257672 0)
  (0.162787 0.00541884 0)
  (0.157347 0.0113537 0)
  (0.149581 0.0162059 0)
  (0.139865 0.0209264 0)
  (0.128333 0.0266107 0)
  (0.115487 0.0347282 0)
  (0.101408 0.0478026 0)
  (0.101138 0.0733155 0)
  (0.0926424 0.0654725 0)
  (0.0575618 0.0571133 0)
  (-0.152576 0.00631798 0)
  (0.0398418 -0.00430808 0)
  (0.0318758 -0.02631 0)
  (0.0442787 -0.0315774 0)
  (0.057164 -0.025524 0)
  (0.0667748 -0.016587 0)
  (0.0710678 -0.00749734 0)
  (0.0720794 -0.00238359 0)
  (0.0721676 -0.00034948 0)
  (0.072428 0.000509585 0)
  (0.0728192 0.00106248 0)
  (0.0731372 0.00163186 0)
  (0.0733344 0.002597 0)
  (0.0731936 0.00442246 0)
  (0.0720719 0.0083009 0)
  (0.0669513 0.0176208 0)
  (0.05758 0.0272987 0)
  (0.00427649 0.0416335 0)
  (0.163247 0.0274304 0)
  (-0.216739 -0.0912635 0)
  (0.0964298 -0.0856047 0)
  (0.0494977 -0.112835 0)
  (0.0868976 -0.0811005 0)
  (0.107574 -0.0467403 0)
  (0.114032 -0.0221491 0)
  (0.113886 -0.00566976 0)
  (0.110061 0.00602981 0)
  (0.105446 0.0146245 0)
  (0.100613 0.021415 0)
  (0.0956693 0.0277273 0)
  (0.0907206 0.0348137 0)
  (0.0862137 0.0438327 0)
  (0.0816989 0.0556612 0)
  (0.0817502 0.0718384 0)
  (0.073244 0.0694326 0)
  (0.0559831 0.0873446 0)
  (-0.168642 -0.00224922 0)
  (0.0671458 -0.0436176 0)
  (0.0639791 -0.0495746 0)
  (0.0690957 -0.045024 0)
  (0.0752509 -0.0349165 0)
  (0.0793687 -0.0244295 0)
  (0.0775147 -0.0191342 0)
  (0.0706814 -0.013325 0)
  (0.0653814 -0.010115 0)
  (0.062568 -0.00823985 0)
  (0.0609473 -0.00698762 0)
  (0.0598033 -0.00603643 0)
  (0.0592037 -0.00505143 0)
  (0.0602192 -0.00328102 0)
  (0.064927 0.00166124 0)
  (0.0639957 0.02266 0)
  (0.0573289 0.038481 0)
  (-0.00181539 0.0566822 0)
  (0.199763 0.0561183 0)
  (-0.25463 -0.0956948 0)
  (0.0903651 -0.10806 0)
  (0.00485346 -0.144257 0)
  (0.0489245 -0.0992596 0)
  (0.0621086 -0.0522524 0)
  (0.061337 -0.0210015 0)
  (0.0568517 -0.00135275 0)
  (0.053464 0.0110346 0)
  (0.0523188 0.0189194 0)
  (0.0523493 0.0248388 0)
  (0.0530646 0.0304893 0)
  (0.054361 0.0369355 0)
  (0.0565147 0.044887 0)
  (0.0594283 0.0547246 0)
  (0.0667257 0.0677224 0)
  (0.0772341 0.0753343 0)
  (0.0910075 0.0938431 0)
  (0.118454 -0.0103736 0)
  (0.11079 -0.0222711 0)
  (0.109208 -0.0440394 0)
  (0.0981521 -0.0499404 0)
  (0.0901534 -0.0446789 0)
  (0.0855469 -0.0344614 0)
  (0.082314 -0.0218569 0)
  (0.0830063 -0.0125237 0)
  (0.0862555 -0.00771172 0)
  (0.0861339 -0.00464132 0)
  (0.0826249 -0.00254871 0)
  (0.0771487 -0.000951911 0)
  (0.0704131 0.000398449 0)
  (0.06239 0.00171706 0)
  (0.0524866 0.00333811 0)
  (0.0349889 0.00609066 0)
  (0.0339903 0.0312568 0)
  (0.0432828 0.0461234 0)
  (-0.00966805 0.063186 0)
  (0.223944 0.092596 0)
  (-0.263327 -0.0843142 0)
  (0.0587316 -0.111894 0)
  (-0.0322412 -0.163925 0)
  (0.0106793 -0.110996 0)
  (0.0176249 -0.0495484 0)
  (0.0125708 -0.0143044 0)
  (0.00732683 0.00367774 0)
  (0.00801956 0.0123877 0)
  (0.0104973 0.0177906 0)
  (0.0141811 0.0224472 0)
  (0.018735 0.027337 0)
  (0.0241951 0.0329116 0)
  (0.0309217 0.0395069 0)
  (0.0393689 0.0472816 0)
  (0.052275 0.0567731 0)
  (0.069551 0.0624123 0)
  (0.0913304 0.0629473 0)
  (0.11155 0.0147104 0)
  (0.114464 -0.0121807 0)
  (0.106322 -0.0322613 0)
  (0.094703 -0.03871 0)
  (0.0834522 -0.0352947 0)
  (0.0740967 -0.0269842 0)
  (0.0668276 -0.0164368 0)
  (0.0622002 -0.00498592 0)
  (0.058604 0.00238052 0)
  (0.0542646 0.00633185 0)
  (0.0489163 0.00860046 0)
  (0.0430973 0.0102477 0)
  (0.0370232 0.0117759 0)
  (0.0306628 0.0135249 0)
  (0.0242049 0.015872 0)
  (0.0156256 0.0191515 0)
  (0.0148199 0.0308343 0)
  (0.0338584 0.0411479 0)
  (0.0043886 0.0501217 0)
  (0.125518 0.0894726 0)
  (0.099191 0.0775318 0)
  (-0.0998076 0.0660454 0)
  (0.345391 -0.00884737 0)
  (-0.274152 -0.0558655 0)
  (0.0250252 -0.0985749 0)
  (-0.0563213 -0.172924 0)
  (-0.025447 -0.122474 0)
  (-0.0185421 -0.0486363 0)
  (-0.0206836 -0.0128927 0)
  (-0.0216318 0.00203062 0)
  (-0.0196359 0.00875582 0)
  (-0.0163514 0.0130274 0)
  (-0.0117399 0.0167994 0)
  (-0.00593929 0.0207125 0)
  (0.00140984 0.0251382 0)
  (0.0103014 0.0300651 0)
  (0.021113 0.0351521 0)
  (0.0353328 0.0399652 0)
  (0.0527229 0.0403344 0)
  (0.0735863 0.0327471 0)
  (0.0875465 0.00658683 0)
  (0.0887957 -0.0143298 0)
  (0.0814435 -0.0256983 0)
  (0.0703096 -0.0283554 0)
  (0.0583553 -0.0246457 0)
  (0.0474104 -0.0174161 0)
  (0.038317 -0.00851968 0)
  (0.0309285 0.000735862 0)
  (0.0255735 0.00698142 0)
  (0.0211306 0.0104392 0)
  (0.0166825 0.0126152 0)
  (0.0121461 0.0144377 0)
  (0.00755846 0.0163154 0)
  (0.00313979 0.0184548 0)
  (-0.000450425 0.0208749 0)
  (-0.00380242 0.022553 0)
  (-0.00218642 0.0242081 0)
  (0.0162697 0.0267885 0)
  (-0.00326973 0.0214197 0)
  (0.049659 0.0572565 0)
  (0.0524761 0.0635692 0)
  (-0.122255 0.0670558 0)
  (0.327789 -0.0271411 0)
  (-0.29461 -0.0242534 0)
  (0.00103768 -0.0878083 0)
  (-0.0729993 -0.192807 0)
  (-0.0475249 -0.139111 0)
  (-0.0391375 -0.0547815 0)
  (-0.036517 -0.0157313 0)
  (-0.0359132 -0.00042024 0)
  (-0.0344193 0.00552422 0)
  (-0.0317836 0.00863458 0)
  (-0.0277172 0.0111331 0)
  (-0.0222747 0.0136297 0)
  (-0.0153606 0.0162861 0)
  (-0.0069112 0.0191129 0)
  (0.00396859 0.0218166 0)
  (0.0167625 0.0234495 0)
  (0.0311786 0.0216801 0)
  (0.0459728 0.014861 0)
  (0.0536087 0.001115 0)
  (0.0527646 -0.0103314 0)
  (0.0455312 -0.0163648 0)
  (0.0348875 -0.0169437 0)
  (0.0234527 -0.0133115 0)
  (0.0128684 -0.00718782 0)
  (0.00364181 0.000119812 0)
  (-0.00297371 0.00697586 0)
  (-0.0066797 0.0113183 0)
  (-0.00965482 0.0140833 0)
  (-0.0124676 0.0161855 0)
  (-0.0152122 0.0180483 0)
  (-0.0176844 0.0197498 0)
  (-0.0193728 0.0211028 0)
  (-0.0196078 0.0215485 0)
  (-0.0184732 0.0199618 0)
  (-0.0146786 0.0163474 0)
  (-0.00554009 0.0143584 0)
  (-0.0172665 0.0107776 0)
  (0.0122025 0.0469306 0)
  (0.0380397 0.0772404 0)
  (-0.161052 0.0848824 0)
  (0.386246 -0.0355684 0)
  (-0.336156 -0.138358 0)
  (-0.0087067 -0.143954 0)
  (-0.0631523 -0.231838 0)
  (-0.0436354 -0.159556 0)
  (-0.0419617 -0.0568123 0)
  (-0.0402053 -0.0151979 0)
  (-0.0427564 -0.000276627 0)
  (-0.043659 0.00422372 0)
  (-0.0425343 0.00573857 0)
  (-0.0397301 0.00673026 0)
  (-0.0355426 0.00778643 0)
  (-0.0300983 0.00895697 0)
  (-0.0234727 0.0101273 0)
  (-0.0155736 0.011122 0)
  (-0.00660393 0.0115951 0)
  (0.00310312 0.0103827 0)
  (0.0110794 0.00681547 0)
  (0.0135988 0.000509884 0)
  (0.0111823 -0.00493524 0)
  (0.00424554 -0.00736532 0)
  (-0.00541026 -0.00621871 0)
  (-0.0149903 -0.00258227 0)
  (-0.023436 0.00214318 0)
  (-0.0291651 0.00671033 0)
  (-0.0324343 0.01065 0)
  (-0.0342539 0.0136923 0)
  (-0.0354671 0.016121 0)
  (-0.0363289 0.0181 0)
  (-0.0367787 0.0196296 0)
  (-0.0365204 0.0205458 0)
  (-0.0351106 0.0205184 0)
  (-0.0322129 0.0190745 0)
  (-0.0280246 0.0158456 0)
  (-0.0226569 0.0118296 0)
  (-0.0163528 0.0101227 0)
  (-0.0154272 0.0119751 0)
  (0.00229617 0.0374876 0)
  (0.0478482 0.0797312 0)
  (-0.142494 0.0774663 0)
  (0.655033 0.0126852 0)
  (-0.565432 0.389702 0)
  (0.181995 0.354334 0)
  (0.000724597 -0.230286 0)
  (0.000324243 -0.155354 0)
  (-0.0302691 -0.0382777 0)
  (-0.0409069 -0.00283746 0)
  (-0.0508358 0.00686697 0)
  (-0.0544642 0.00771413 0)
  (-0.0548778 0.00699302 0)
  (-0.0535854 0.00646925 0)
  (-0.0511961 0.00636432 0)
  (-0.0479932 0.00656814 0)
  (-0.0441762 0.00693375 0)
  (-0.0399132 0.00734601 0)
  (-0.0354624 0.007649 0)
  (-0.0313237 0.007523 0)
  (-0.0286371 0.0066203 0)
  (-0.0289708 0.00471224 0)
  (-0.032151 0.00309207 0)
  (-0.0374788 0.00295457 0)
  (-0.043654 0.00434791 0)
  (-0.0489634 0.006523 0)
  (-0.0526524 0.00897115 0)
  (-0.0547735 0.011496 0)
  (-0.0555188 0.013978 0)
  (-0.0552861 0.0162377 0)
  (-0.0543873 0.0182058 0)
  (-0.0529189 0.0197494 0)
  (-0.0508374 0.0206792 0)
  (-0.0480168 0.0207491 0)
  (-0.0443265 0.0196798 0)
  (-0.0397697 0.0172557 0)
  (-0.0345984 0.0135988 0)
  (-0.029033 0.00968401 0)
  (-0.0230512 0.0071595 0)
  (-0.0167263 0.00796525 0)
  (-0.00171455 0.021822 0)
  (0.0420746 0.0585274 0)
  (-0.112885 0.0479063 0)
  (0.642054 0.0443909 0)
  (0.0758007 -0.152311 0)
  (0.0446149 -0.110473 0)
  (-0.0362836 0.00951148 0)
  (-0.0587972 0.0232099 0)
  (-0.0675297 0.0209172 0)
  (-0.069774 0.0172206 0)
  (-0.0701027 0.014505 0)
  (-0.0697361 0.0128711 0)
  (-0.0689847 0.0120124 0)
  (-0.0679767 0.0116613 0)
  (-0.0668153 0.01166 0)
  (-0.0656015 0.0119383 0)
  (-0.0644525 0.0124413 0)
  (-0.0635627 0.0130441 0)
  (-0.0633047 0.0135334 0)
  (-0.0641593 0.0137355 0)
  (-0.066055 0.014005 0)
  (-0.0684011 0.0147512 0)
  (-0.0704676 0.0159247 0)
  (-0.0717466 0.0172422 0)
  (-0.0720673 0.0185673 0)
  (-0.0714394 0.0198397 0)
  (-0.0699246 0.0209929 0)
  (-0.0676394 0.0219045 0)
  (-0.064699 0.0224485 0)
  (-0.061193 0.0224788 0)
  (-0.0572106 0.0218387 0)
  (-0.0528676 0.0203668 0)
  (-0.048342 0.0179214 0)
  (-0.0439225 0.0144534 0)
  (-0.0400235 0.0101403 0)
  (-0.0370664 0.00544375 0)
  (-0.0351961 0.000709109 0)
  (-0.0326602 0.000845119 0)
  (-0.0243016 0.0117999 0)
  (-0.0127444 0.0347426 0)
  (-0.14221 0.0267562 0)
  (0.38765 0.0666936 0)
  (-0.207513 -0.134353 0)
  (-0.0891426 -0.0876741 0)
  (-0.101301 -0.0674304 0)
  (-0.0955625 -0.0699955 0)
  (-0.0896464 -0.0777903 0)
  (-0.0864462 -0.0839952 0)
  (-0.0851592 -0.0878822 0)
  (-0.0848038 -0.0900144 0)
  (-0.0848718 -0.0909527 0)
  (-0.0850977 -0.091049 0)
  (-0.0853211 -0.0905047 0)
  (-0.0854249 -0.0894725 0)
  (-0.0853219 -0.0881642 0)
  (-0.0849952 -0.0869293 0)
  (-0.0845623 -0.0862134 0)
  (-0.0842447 -0.086313 0)
  (-0.084128 -0.0870048 0)
  (-0.0840634 -0.0878122 0)
  (-0.0837976 -0.0884221 0)
  (-0.0831285 -0.0886891 0)
  (-0.081933 -0.0884888 0)
  (-0.0801235 -0.087764 0)
  (-0.0776352 -0.0865706 0)
  (-0.074447 -0.0850676 0)
  (-0.0705891 -0.0834684 0)
  (-0.0661504 -0.0820346 0)
  (-0.0612932 -0.0810768 0)
  (-0.0562695 -0.0809512 0)
  (-0.0514468 -0.0820239 0)
  (-0.047348 -0.0845616 0)
  (-0.0446851 -0.0885175 0)
  (-0.0442472 -0.0931639 0)
  (-0.0463092 -0.096261 0)
  (-0.0484867 -0.0954195 0)
  (-0.0477309 -0.0824482 0)
  (-0.0548546 -0.0565445 0)
  (-0.112946 -0.0487622 0)
  (0.307013 -0.0273652 0)
  (-0.293272 -0.148272 0)
  (-0.133589 0.0507439 0)
  (-0.118369 0.368096 0)
  (-0.124279 0.304598 0)
  (-0.12402 0.291556 0)
  (-0.115793 0.294482 0)
  (-0.108633 0.300255 0)
  (-0.104246 0.304288 0)
  (-0.102067 0.306532 0)
  (-0.101279 0.307589 0)
  (-0.101268 0.307897 0)
  (-0.101608 0.30771 0)
  (-0.101987 0.307192 0)
  (-0.102152 0.306512 0)
  (-0.101893 0.305927 0)
  (-0.101076 0.305794 0)
  (-0.099711 0.306472 0)
  (-0.0979501 0.308099 0)
  (-0.0959497 0.310433 0)
  (-0.0937543 0.31307 0)
  (-0.0913279 0.315685 0)
  (-0.0886194 0.318062 0)
  (-0.0855703 0.320046 0)
  (-0.0821101 0.32156 0)
  (-0.0781842 0.322606 0)
  (-0.0737913 0.323226 0)
  (-0.0690081 0.32347 0)
  (-0.0640026 0.3234 0)
  (-0.0590399 0.323104 0)
  (-0.0544731 0.322734 0)
  (-0.0507278 0.322534 0)
  (-0.0483044 0.322858 0)
  (-0.0477453 0.324091 0)
  (-0.0491508 0.326236 0)
  (-0.0508293 0.327332 0)
  (-0.0501575 0.326041 0)
  (-0.0514191 0.315996 0)
  (-0.0765608 0.301216 0)
  (-0.136223 0.305826 0)
  (0.396211 0.346758 0)
)
;

boundaryField
{
  floor
  {
    type noSlip;
  }
  ceiling
  {
    type noSlip;
  }
  sWall
  {
    type noSlip;
  }
  nWall
  {
    type noSlip;
  }
  sideWalls
  {
    type empty;
  }
  glass1
  {
    type noSlip;
  }
  glass2
  {
    type noSlip;
  }
  sun
  {
    type noSlip;
  }
  heatsource1
  {
    type noSlip;
  }
  heatsource2
  {
    type noSlip;
  }
  Table_master
  {
    type noSlip;
  }
  Table_slave
  {
    type noSlip;
  }
  inlet
  {
    type fixedValue;
    value uniform (0.277164 -0.114805 0);
  }
  outlet
  {
    type zeroGradient;
  }
} 	// ************************************************************************* //

