/*--------------------------------*- C++ -*----------------------------------*\
  =========                 |
  \\      /  F ield         | OpenFOAM: The Open Source CFD Toolbox
   \\    /   O peration     | Website:  https://openfoam.org
    \\  /    A nd           | Version:  6
     \\/     M anipulation  |
\*---------------------------------------------------------------------------*/
FoamFile
{
    version     2.0;
    format      ascii;
    class       volScalarField;
    location    "400";
    object      alphat;
}
// * * * * * * * * * * * * * * * * * * * * * * * * * * * * * * * * * * * * * //

dimensions      [1 -1 -1 0 0 0 0];

internalField   nonuniform List<scalar> 
459
(
0.00117904
0.00127955
0.00129434
0.00135264
0.00140601
0.00145503
0.00150178
0.00154897
0.00158766
0.00160971
0.00160905
0.00158096
0.00152483
0.00144831
0.00136568
0.000508386
0.00062314
0.000681942
0.000663841
0.000635266
0.000603278
0.00056798
0.000534091
0.000503274
0.000475634
0.000450871
0.000428814
0.00040897
0.000390847
0.000373886
0.000357269
0.000339767
0.000331756
0.00030655
0.0016351
0.00378725
0.00354775
0.004116
0.00464616
0.00518682
0.00569156
0.00608532
0.00641978
0.00670285
0.00688766
0.00691157
0.00667705
0.00597893
0.00424309
0.00138091
0.000911804
0.000577497
0.001077
0.00141992
0.00165434
0.00176792
0.00176206
0.00149228
0.00132207
0.00119443
0.0010931
0.00101018
0.000937615
0.000872346
0.000811649
0.000754283
0.000705001
0.000657448
0.000797241
0.000424764
0.00201895
0.00519035
0.00431371
0.00555151
0.0061063
0.00650551
0.00680877
0.00704358
0.00727951
0.00753618
0.00778257
0.00796957
0.00802639
0.00787744
0.00736789
0.00598566
0.0013356
0.00115434
0.00154674
0.00186791
0.00213668
0.00231234
0.0022456
0.000801172
0.000715822
0.000646962
0.000591055
0.000545198
0.000507183
0.000475409
0.000448837
0.00042702
0.000460894
0.000528225
0.000895997
0.000501334
0.00239105
0.00677327
0.00427075
0.00589836
0.00645432
0.00661517
0.00667138
0.00674123
0.00688802
0.00712258
0.0074132
0.00771607
0.00794886
0.00805821
0.00798406
0.00749475
0.0058072
0.00153209
0.00192835
0.00242188
0.00282226
0.00310576
0.00327481
0.00307293
0.000896407
0.00082875
0.000783485
0.000750867
0.000723033
0.00069391
0.000665535
0.000634715
0.00059734
0.000562706
0.000568099
0.00104588
0.000558899
0.00277
0.00882413
0.00472653
0.00559618
0.00642079
0.00649321
0.00638101
0.00631737
0.00643228
0.00666401
0.00698004
0.00734494
0.0076425
0.00779655
0.00776106
0.00749165
0.00684496
0.00557376
0.00505209
0.00480289
0.00466616
0.00459839
0.00456563
0.00445621
0.00388231
0.00364374
0.00352023
0.00341993
0.0032971
0.00311817
0.0028028
0.00239378
0.00192619
0.00144558
0.00106399
0.00104862
0.000749139
0.000697741
0.000838422
0.000939279
0.00316907
0.0110422
0.0066891
0.0053678
0.00600886
0.00633279
0.0063036
0.00613462
0.00624836
0.00646259
0.0067784
0.00714766
0.00746747
0.00762725
0.00755711
0.00725838
0.00679793
0.00628218
0.00593403
0.00569851
0.00551983
0.00538933
0.00528228
0.00515352
0.00494702
0.00476929
0.00460873
0.00444551
0.00426856
0.00407017
0.00379782
0.00340722
0.00289809
0.00229885
0.00173834
0.00126355
0.00100181
0.000876309
0.00126613
0.000980841
0.0035409
0.01265
0.00975054
0.00697181
0.00630516
0.00637309
0.00641996
0.00633381
0.00632759
0.00647791
0.00678802
0.0071768
0.00750983
0.0076514
0.0075204
0.00713855
0.00664586
0.00624782
0.00604606
0.0059156
0.00575047
0.0055346
0.00528541
0.00504074
0.00482553
0.00465052
0.00449359
0.00434131
0.00419156
0.00404884
0.00391429
0.00368444
0.00329455
0.00277889
0.0022621
0.00177287
0.00144959
0.00137111
0.00143127
0.00111583
0.00361642
0.0115233
0.0100554
0.00900847
0.00816062
0.00761677
0.00702476
0.00657793
0.00643737
0.00660718
0.00699052
0.00743012
0.0077529
0.00781435
0.00754828
0.00701911
0.00643648
0.00607018
0.00594714
0.00571494
0.00535036
0.00494866
0.00459821
0.00433863
0.00415889
0.00402744
0.00391877
0.00382527
0.00375099
0.00370605
0.00370236
0.00371924
0.00352973
0.00318124
0.00286972
0.00272861
0.00289869
0.00343351
0.00426631
0.00174524
0.00352166
0.00420135
0.00472561
0.00495641
0.00508228
0.00511919
0.00525437
0.00559822
0.00615106
0.00683066
0.00749218
0.00797771
0.00815966
0.00795651
0.00737436
0.0065991
0.00600631
0.00563009
0.00528051
0.00480609
0.00430347
0.0038969
0.00362021
0.00344495
0.00332981
0.00324319
0.00316715
0.00309337
0.00301723
0.00293477
0.00284249
0.00273971
0.00265262
0.00258959
0.00257634
0.0026032
0.00259731
0.00249238
0.00232593
0.001629
0.00205112
0.00390172
0.0051397
0.00604515
0.00689788
0.00765744
0.00829436
0.00874161
0.00891303
0.00875538
0.00826793
0.00745489
0.00640383
0.00546938
0.0048803
0.00441068
0.00389091
0.00338731
0.00301643
0.00278673
0.00265486
0.00257927
0.00253346
0.00250296
0.00248073
0.00246391
0.00245216
0.00244726
0.00245319
0.00248098
0.00251598
0.00255667
0.00259612
0.00260535
0.00253665
0.00237491
0.00213371
0.00133654
0.00246275
0.00532443
0.00713434
0.00784079
0.00846433
0.00891606
0.00899233
0.00882364
0.00825493
0.00731699
0.00619089
0.00509732
0.00420985
0.00355901
0.00304854
0.00258427
0.00223011
0.00201869
0.00190021
0.00184374
0.00182786
0.00183773
0.00186602
0.00190934
0.00196603
0.00203479
0.00211352
0.00219799
0.00229035
0.00239469
0.0025088
0.00262616
0.00273035
0.00280319
0.00278808
0.00281447
0.00275175
0.00135738
0.00213077
0.00225441
0.00234439
0.00246584
0.00232712
0.00217136
0.00203165
0.00189424
0.00176763
0.00162341
0.00145762
0.00126791
0.00107147
0.000892024
0.000750766
0.000656423
0.000603877
0.00058119
0.000577564
0.000585588
0.000600955
0.000620921
0.000644177
0.000670432
0.000699622
0.00073183
0.000767272
0.000806363
0.000849853
0.000899097
0.00095481
0.00101607
0.00108362
0.00115822
0.00123994
0.00134027
0.00137013
0.00133554
0.00125106
0.00115971
)
;

boundaryField
{
    floor
    {
        type            compressible::alphatWallFunction;
        Prt             0.85;
        value           nonuniform List<scalar> 
29
(
0.000192837
7.05255e-05
8.78336e-05
9.6547e-05
9.38751e-05
8.96386e-05
8.48681e-05
7.95679e-05
7.44405e-05
6.97428e-05
6.54985e-05
6.16694e-05
5.82364e-05
5.51285e-05
5.22731e-05
4.95853e-05
4.69367e-05
4.41296e-05
4.28385e-05
3.87494e-05
3.87488e-05
5.7603e-05
6.94447e-05
7.81964e-05
0.000192835
7.05246e-05
8.09982e-05
0.00016385
0.000215304
)
;
    }
    ceiling
    {
        type            compressible::alphatWallFunction;
        Prt             0.85;
        value           nonuniform List<scalar> 
43
(
0.000293998
0.000309943
0.00032149
0.000337108
0.00031943
0.000299417
0.00028133
0.000263404
0.000246758
0.000227631
0.000205404
0.000179616
0.000152443
0.000127111
0.000106746
9.28903e-05
8.50688e-05
8.16661e-05
8.11209e-05
8.23272e-05
8.46317e-05
8.76151e-05
9.10754e-05
9.49634e-05
9.92645e-05
0.000103985
0.000109151
0.000114815
0.000121079
0.000128125
0.000136043
0.000144686
0.000154147
0.000164517
0.000175788
0.000189513
0.000193575
0.00018887
0.000177317
0.000164726
0.000469235
0.000551878
0.000336476
)
;
    }
    sWall
    {
        type            compressible::alphatWallFunction;
        Prt             0.85;
        value           uniform 0.000292784;
    }
    nWall
    {
        type            compressible::alphatWallFunction;
        Prt             0.85;
        value           nonuniform List<scalar> 6(0.000133514 0.00013939 0.000158293 0.000188673 0.000191507 0.000164397);
    }
    sideWalls
    {
        type            empty;
    }
    glass1
    {
        type            compressible::alphatWallFunction;
        Prt             0.85;
        value           nonuniform List<scalar> 9(0.00016312 0.000224074 0.000274045 0.000321601 0.000369298 0.00041884 0.000464465 0.000473802 0.000462472);
    }
    glass2
    {
        type            compressible::alphatWallFunction;
        Prt             0.85;
        value           nonuniform List<scalar> 2(0.00024201 0.000226712);
    }
    sun
    {
        type            compressible::alphatWallFunction;
        Prt             0.85;
        value           nonuniform List<scalar> 
14
(
0.00016729
0.000181098
0.00018312
0.00019107
0.000198315
0.000204941
0.000211239
0.000217572
0.000222749
0.000225692
0.000225603
0.00022185
0.00021433
0.00020403
)
;
    }
    heatsource1
    {
        type            compressible::alphatWallFunction;
        Prt             0.85;
        value           nonuniform List<scalar> 3(9.89861e-05 0.000119433 0.000133838);
    }
    heatsource2
    {
        type            compressible::alphatWallFunction;
        Prt             0.85;
        value           nonuniform List<scalar> 4(0.000195032 0.000129931 0.00012993 0.000188869);
    }
    Table_master
    {
        type            compressible::alphatWallFunction;
        Prt             0.85;
        value           nonuniform List<scalar> 9(0.00011406 0.000101638 9.14853e-05 8.3145e-05 7.62313e-05 7.0445e-05 6.55668e-05 6.14554e-05 5.80566e-05);
    }
    Table_slave
    {
        type            compressible::alphatWallFunction;
        Prt             0.85;
        value           nonuniform List<scalar> 9(0.000127739 0.000118042 0.000111502 0.000106762 0.000102697 9.8423e-05 9.42384e-05 8.96683e-05 8.40895e-05);
    }
    inlet
    {
        type            fixedValue;
        value           uniform 1.94e-05;
    }
    outlet
    {
        type            zeroGradient;
    }
}


// ************************************************************************* //
