/*--------------------------------*- C++ -*----------------------------------*\
  =========                 |
  \\      /  F ield         | OpenFOAM: The Open Source CFD Toolbox
   \\    /   O peration     | Website:  https://openfoam.org
    \\  /    A nd           | Version:  6
     \\/     M anipulation  |
\*---------------------------------------------------------------------------*/
FoamFile
{
    version     2.0;
    format      ascii;
    class       volScalarField;
    location    "400";
    object      nut;
}
// * * * * * * * * * * * * * * * * * * * * * * * * * * * * * * * * * * * * * //

dimensions      [0 2 -1 0 0 0 0];

internalField   nonuniform List<scalar> 
459
(
0.00101591
0.00110155
0.00111424
0.00116442
0.00121035
0.00125253
0.00129277
0.00133337
0.00136665
0.00138558
0.00138496
0.00136072
0.00131236
0.00124648
0.00117534
0.000437585
0.000536328
0.000586927
0.000571348
0.000546755
0.000519223
0.000488845
0.000459678
0.000433155
0.000409366
0.000388053
0.00036907
0.000351991
0.000336392
0.000321794
0.000307492
0.000292428
0.000285533
0.00026385
0.00140975
0.00326093
0.0030545
0.0035438
0.00400033
0.00446588
0.00490048
0.00523946
0.00552728
0.00577067
0.00592931
0.00594936
0.00574703
0.0051458
0.00365166
0.00118839
0.000784656
0.00049708
0.000926958
0.00122208
0.00142384
0.00152159
0.00151654
0.00128435
0.00113784
0.00102798
0.000940766
0.00086939
0.000806933
0.000750754
0.000698512
0.000649139
0.000606726
0.000565803
0.000686113
0.000365584
0.00174183
0.00446989
0.00371447
0.00478052
0.00525854
0.00560257
0.00586392
0.0060662
0.00626919
0.00648966
0.00670095
0.00686093
0.00690894
0.00678008
0.00634113
0.00515138
0.00114942
0.000993519
0.00133124
0.00160768
0.00183904
0.00199024
0.0019328
0.000689567
0.000616099
0.000556825
0.0005087
0.000469226
0.000436503
0.000409152
0.000386278
0.000367498
0.000396649
0.000454593
0.0007711
0.000431486
0.00206418
0.00583441
0.00367796
0.00507995
0.00555929
0.00569837
0.00574724
0.00580766
0.00593391
0.00613516
0.00638418
0.00664351
0.00684267
0.00693591
0.0068716
0.00645031
0.00499792
0.00131861
0.00165968
0.00208452
0.0024292
0.00267328
0.00281886
0.00264512
0.000771617
0.000713386
0.000674429
0.000646356
0.000622399
0.00059733
0.000572905
0.000546373
0.000514196
0.000484345
0.000488953
0.00090013
0.00048104
0.00239282
0.00760312
0.00407108
0.00482029
0.00553122
0.00559438
0.00549848
0.00544415
0.00554295
0.00574155
0.00601212
0.0063245
0.00657917
0.00671078
0.00667974
0.00644775
0.00589124
0.0047973
0.00434846
0.00413414
0.00401662
0.00395843
0.00393034
0.00383623
0.00334223
0.0031369
0.00303061
0.00294429
0.00283855
0.0026845
0.00241297
0.0020608
0.00165821
0.0012444
0.000915837
0.000902536
0.000644785
0.000600669
0.000721869
0.000808729
0.00273907
0.00951763
0.00576287
0.00462427
0.00517703
0.00545693
0.00543284
0.00528795
0.00538555
0.00556873
0.00583881
0.00615477
0.00642846
0.00656494
0.00650413
0.00624703
0.00585096
0.00540734
0.00510798
0.00490553
0.00475196
0.00463981
0.00454779
0.00443703
0.00425932
0.00410636
0.00396816
0.00382765
0.00367529
0.00350444
0.00326989
0.0029335
0.00249507
0.00197906
0.00149641
0.0010876
0.000862286
0.000754324
0.00108993
0.000844432
0.00306198
0.0109095
0.00840496
0.00600875
0.00543419
0.00549326
0.00553467
0.00546066
0.00545431
0.00558189
0.00584666
0.00617923
0.00646428
0.00658525
0.00647232
0.00614396
0.00572036
0.00537823
0.00520498
0.00509302
0.00495112
0.00476545
0.00455102
0.00434043
0.00415518
0.00400454
0.00386943
0.0037383
0.00360933
0.00348639
0.00337044
0.00317241
0.00283659
0.00239248
0.00194742
0.00152613
0.00124779
0.00118025
0.00123206
0.00096062
0.00312957
0.00995186
0.00867953
0.00777297
0.0070398
0.00657009
0.00605905
0.00567217
0.00554847
0.00569182
0.00601916
0.00639546
0.00667206
0.00672468
0.00649611
0.00604141
0.00554067
0.00522597
0.00512055
0.00492094
0.00460721
0.00426143
0.00395974
0.00373625
0.00358151
0.00346833
0.00337475
0.00329422
0.00323022
0.00319148
0.00318822
0.00320264
0.00303932
0.00273912
0.00247077
0.00234915
0.00249554
0.00295608
0.00367331
0.0015033
0.0030507
0.00363609
0.00408629
0.00428262
0.00438871
0.00441842
0.00453257
0.00482533
0.0052976
0.00587926
0.0064463
0.00686317
0.00702004
0.00684635
0.00634671
0.00568063
0.00517129
0.00484791
0.00454721
0.00413885
0.00370613
0.00335606
0.00311782
0.00296692
0.00286778
0.00279319
0.0027277
0.00266414
0.00259856
0.00252752
0.00244804
0.00235953
0.00228456
0.00223033
0.00221903
0.00224235
0.00223752
0.00214736
0.00200409
0.00140385
0.00172952
0.0033179
0.00439117
0.00517417
0.00590914
0.00656532
0.00711719
0.00750679
0.00765937
0.00752832
0.0071126
0.00641583
0.00551297
0.00470938
0.00420263
0.00379847
0.00335098
0.00291734
0.00259798
0.00240018
0.00228663
0.00222154
0.0021821
0.00215584
0.00213671
0.00212223
0.00211212
0.00210792
0.00211305
0.002137
0.0021672
0.00220231
0.0022364
0.0022445
0.00218548
0.00204628
0.00183855
0.00115172
0.00208109
0.00453026
0.00609209
0.00670952
0.00725309
0.00764849
0.00772128
0.00758323
0.00709961
0.00629617
0.0053291
0.00438883
0.00362525
0.00306507
0.00262559
0.00222581
0.00192083
0.00173875
0.00163672
0.0015881
0.00157444
0.00158295
0.00160734
0.00164466
0.00169351
0.00175276
0.00182059
0.00189336
0.00197294
0.00206284
0.00216118
0.00226232
0.00235216
0.00241502
0.00240212
0.002425
0.00237092
0.00116963
0.00181341
0.00191816
0.00199469
0.0021094
0.00199548
0.00186433
0.00174596
0.00162898
0.00152084
0.00139725
0.00125487
0.00109175
0.000922716
0.000768247
0.000646623
0.000565385
0.000520137
0.000500603
0.000497487
0.000504403
0.000517645
0.000534848
0.000554886
0.000577507
0.000602657
0.000630406
0.000660942
0.000694622
0.000732092
0.000774519
0.00082252
0.000875301
0.0009335
0.000997785
0.0010682
0.00115468
0.00118044
0.00115066
0.00107788
0.000999289
)
;

boundaryField
{
    floor
    {
        type            nutkWallFunction;
        Cmu             0.09;
        kappa           0.41;
        E               9.8;
        value           nonuniform List<scalar> 
29
(
0.000141162
5.16675e-05
6.43336e-05
7.07097e-05
6.87542e-05
6.56537e-05
6.21623e-05
5.82831e-05
5.45302e-05
5.10917e-05
4.79849e-05
4.51819e-05
4.26688e-05
4.03935e-05
3.83029e-05
3.6335e-05
3.43957e-05
3.23402e-05
3.13948e-05
2.84012e-05
2.84012e-05
4.22058e-05
5.08746e-05
5.72817e-05
0.000141162
5.16674e-05
5.93353e-05
0.000119962
0.000157605
)
;
    }
    ceiling
    {
        type            nutkWallFunction;
        Cmu             0.09;
        kappa           0.41;
        E               9.8;
        value           nonuniform List<scalar> 
43
(
0.000212856
0.00022434
0.000232689
0.000245226
0.000232888
0.000218564
0.000205537
0.000192563
0.000180475
0.00016654
0.000150314
0.000131464
0.000111588
9.30516e-05
7.81466e-05
6.80045e-05
6.22794e-05
5.97889e-05
5.93903e-05
6.0274e-05
6.19618e-05
6.41466e-05
6.66807e-05
6.95279e-05
7.26777e-05
7.61345e-05
7.99174e-05
8.40656e-05
8.86524e-05
9.38126e-05
9.96107e-05
0.000105941
0.000112869
0.000120465
0.00012872
0.000138775
0.000141754
0.00013831
0.00012985
0.000120642
0.000345418
0.000405905
0.000241967
)
;
    }
    sWall
    {
        type            nutkWallFunction;
        Cmu             0.09;
        kappa           0.41;
        E               9.8;
        value           uniform 0.000212915;
    }
    nWall
    {
        type            nutkWallFunction;
        Cmu             0.09;
        kappa           0.41;
        E               9.8;
        value           nonuniform List<scalar> 6(9.79502e-05 0.000102246 0.000116086 0.000138442 0.000140515 0.000120648);
    }
    sideWalls
    {
        type            empty;
    }
    glass1
    {
        type            nutkWallFunction;
        Cmu             0.09;
        kappa           0.41;
        E               9.8;
        value           nonuniform List<scalar> 9(0.00012268 0.000168167 0.000205395 0.000240791 0.000276268 0.000313092 0.000346996 0.000354055 0.000345845);
    }
    glass2
    {
        type            nutkWallFunction;
        Cmu             0.09;
        kappa           0.41;
        E               9.8;
        value           nonuniform List<scalar> 2(0.000178589 0.000167362);
    }
    sun
    {
        type            nutkWallFunction;
        Cmu             0.09;
        kappa           0.41;
        E               9.8;
        value           nonuniform List<scalar> 
14
(
0.000122599
0.000132609
0.000134084
0.000139901
0.000145202
0.00015005
0.000154657
0.000159289
0.000163075
0.000165223
0.000165152
0.0001624
0.000156892
0.000149353
)
;
    }
    heatsource1
    {
        type            nutkWallFunction;
        Cmu             0.09;
        kappa           0.41;
        E               9.8;
        value           nonuniform List<scalar> 3(7.24318e-05 8.74046e-05 9.79492e-05);
    }
    heatsource2
    {
        type            nutkWallFunction;
        Cmu             0.09;
        kappa           0.41;
        E               9.8;
        value           nonuniform List<scalar> 4(0.000142664 9.50398e-05 9.50398e-05 0.00013816);
    }
    Table_master
    {
        type            nutkWallFunction;
        Cmu             0.09;
        kappa           0.41;
        E               9.8;
        value           nonuniform List<scalar> 9(8.34466e-05 7.43575e-05 6.6929e-05 6.08266e-05 5.5768e-05 5.15343e-05 4.79651e-05 4.49568e-05 4.247e-05);
    }
    Table_slave
    {
        type            nutkWallFunction;
        Cmu             0.09;
        kappa           0.41;
        E               9.8;
        value           nonuniform List<scalar> 9(9.34619e-05 8.63678e-05 8.15835e-05 7.81155e-05 7.51417e-05 7.20149e-05 6.8953e-05 6.5609e-05 6.15266e-05);
    }
    inlet
    {
        type            calculated;
        value           uniform 0.000100623;
    }
    outlet
    {
        type            calculated;
        value           nonuniform List<scalar> 2(0.00181341 0.00191816);
    }
}


// ************************************************************************* //
