/*--------------------------------*- C++ -*----------------------------------*\
  =========                 |
  \\      /  F ield         | OpenFOAM: The Open Source CFD Toolbox
   \\    /   O peration     | Website:  https://openfoam.org
    \\  /    A nd           | Version:  6
     \\/     M anipulation  |
\*---------------------------------------------------------------------------*/
FoamFile
{
    version     2.0;
    format      ascii;
    class       surfaceScalarField;
    location    "200";
    object      phi;
}
// * * * * * * * * * * * * * * * * * * * * * * * * * * * * * * * * * * * * * //

dimensions      [1 0 -1 0 0 0 0];

internalField   nonuniform List<scalar> 
852
(
-0.00246435
0.00253155
-0.0025791
0.000114902
-0.0025665
-1.24364e-05
-0.00259387
2.75192e-05
-0.00262078
2.70707e-05
-0.0026303
9.67433e-06
-0.00261507
-1.50706e-05
-0.00256727
-4.76431e-05
-0.00247655
-9.05649e-05
-0.00233094
-0.000145454
-0.00211886
-0.000211923
-0.00182939
-0.000289314
-0.00143715
-0.000392096
-0.000857877
-0.000579116
-0.000854554
-0.000742065
0.000748457
-0.000713141
-2.88151e-05
-0.000504602
-0.000208436
-0.000409142
-9.53634e-05
-0.00042762
1.85808e-05
-0.000500219
7.27053e-05
-0.00049604
-4.06826e-06
-0.00033309
-0.000162845
-0.000138359
-0.000194634
0.000182273
-0.000320523
0.000379951
-0.00019757
0.000519305
-0.000139248
0.000635429
-0.000116021
0.000747389
-0.000111857
0.000858497
-0.000111005
0.000978676
-0.000120077
0.00109372
-0.000114948
0.000961515
0.000132302
0.000967932
-0.00177043
0.00447046
-0.0022813
0.000625934
-0.00243259
0.000139016
-0.00251364
0.000108728
-0.00255882
7.24087e-05
-0.00257721
2.82155e-05
-0.00257116
-2.09674e-05
-0.00253825
-8.04033e-05
-0.00247183
-0.000156825
-0.00236225
-0.000254886
-0.00219669
-0.000377337
-0.0019577
-0.000528151
-0.00163124
-0.000718411
-0.0012565
-0.000953713
-0.000940815
-0.00117009
0.000158225
-0.00109894
0.000158331
0.00104425
-0.000281392
0.00092015
9.5406e-05
0.000507084
0.000204753
0.000299693
0.00011215
0.00024754
7.08503e-05
0.000116739
0.000203615
-4.74588e-05
0.000160216
-0.000148754
-6.14497e-05
-9.40985e-05
-0.000249196
1.54838e-05
-0.000430006
6.13207e-05
-0.000243307
7.21179e-05
-0.000149947
5.57718e-05
-9.9578e-05
1.62743e-06
-5.76172e-05
-4.44838e-05
-6.47929e-05
6.51501e-05
-0.000229617
0.000334844
-0.000384548
0.000388264
7.89693e-05
0.00137207
-0.00126492
0.0059793
-0.00189304
0.00125422
-0.00213889
0.000385034
-0.00227051
0.000240517
-0.00233836
0.000140412
-0.00237391
6.39242e-05
-0.00238899
-5.73329e-06
-0.00238648
-8.2764e-05
-0.00236536
-0.000177799
-0.00232084
-0.00029927
-0.00224653
-0.000451501
-0.00213676
-0.000637779
-0.00199565
-0.000859376
-0.00184953
-0.00109969
-0.00172385
-0.00129563
-0.00146681
-0.00135584
-0.00130833
-0.00048466
0.000219294
-0.000638128
0.000248989
-0.000575488
0.000142225
-0.000471486
8.25589e-06
-0.000275429
-0.000125101
0.000263732
-0.000335439
0.000424221
0.000363031
0.0001141
-0.000315659
-0.000558733
-0.000708444
-0.000807783
-0.000865154
-0.000929692
-0.00101653
-0.000142671
-0.0015104
0.000109433
-0.00159111
0.000159796
-0.000196087
-0.000867574
0.00715065
-0.00147697
0.0018638
-0.00168735
0.000595605
-0.00180586
0.000359215
-0.00189511
0.000229834
-0.00196452
0.000133494
-0.00201744
4.7344e-05
-0.00205674
-4.33216e-05
-0.00208571
-0.000148691
-0.00210867
-0.000276171
-0.00212975
-0.000430281
-0.002157
-0.000610394
-0.00220755
-0.000808683
-0.00230681
-0.00100029
-0.00246261
-0.00113969
-0.00265558
-0.00116273
-0.00308193
-0.000881847
-0.00255967
-0.000507913
-0.00214594
-0.000194302
-0.0018758
-2.1036e-05
-0.00169905
-3.43977e-05
-0.00158368
-0.000106978
-0.00149732
-0.00021133
-0.00154514
-0.000287473
-0.0012844
-0.000260742
-0.00101149
-0.000272917
-0.000721021
-0.000290478
-0.000420003
-0.000301028
-0.00011976
-0.000300254
0.000160151
-0.000279925
0.000401401
-0.000241265
0.000592279
-0.000190894
0.000706675
-0.000114412
0.000651114
-8.69748e-05
0.000730821
2.98655e-05
0.000695509
0.000195256
0.000518293
-0.000546952
0.00805216
-0.00107169
0.00238874
-0.00103321
0.000557349
-0.00096748
0.00029371
-0.00104694
0.0003095
-0.00119692
0.000283665
-0.00134222
0.000192801
-0.0014649
7.95106e-05
-0.00155981
-5.36387e-05
-0.00163703
-0.000198822
-0.00171441
-0.000352767
-0.00180692
-0.000517755
-0.0019273
-0.000688164
-0.00208217
-0.000845297
-0.00226748
-0.000954239
-0.0024707
-0.000959382
-0.00255748
-0.000794927
-0.00250287
-0.000562376
-0.00233078
-0.000366256
-0.00211092
-0.000240758
-0.00192759
-0.000217593
-0.00177961
-0.000254808
-0.00166644
-0.000324359
-0.00156778
-0.000385995
-0.00140644
-0.000421939
-0.0012217
-0.00045752
-0.00102647
-0.000485572
-0.00082924
-0.000498118
-0.000639837
-0.000489523
-0.000461722
-0.000457909
-0.000291786
-0.000411071
-0.000116091
-0.000366461
0.000112939
-0.000343314
0.000406481
-0.000380388
0.000877109
-0.000440624
0.00152306
-0.000450555
0.0025767
-0.000535201
0.00297097
-0.00039433
0.00234922
0.000621674
0.00239677
-0.00045274
0.00890447
-0.00071564
0.00265186
-0.000139524
-1.85148e-05
0.000288249
-0.000133808
0.000270988
0.000327001
3.73073e-05
0.000517565
-0.000243009
0.000473312
-0.000510845
0.00034751
-0.000739108
0.00017477
-0.000912108
-2.56897e-05
-0.0010445
-0.00022025
-0.00117919
-0.000382934
-0.00133185
-0.000535374
-0.00150668
-0.000670341
-0.00169758
-0.000763208
-0.00187837
-0.000778457
-0.00197725
-0.000695911
-0.00198179
-0.000557694
-0.00191371
-0.0004342
-0.00180304
-0.000351284
-0.00169419
-0.000326305
-0.00160236
-0.000346499
-0.00153187
-0.000394709
-0.00146904
-0.000448684
-0.00139497
-0.000495873
-0.00131532
-0.000537029
-0.0012372
-0.000563564
-0.00116828
-0.0005669
-0.00111523
-0.000542449
-0.00107903
-0.000493977
-0.00105389
-0.000436087
-0.00102736
-0.000392872
-0.000974518
-0.000396031
-0.000870221
-0.000484561
-0.000630171
-0.000680547
-7.91062e-05
-0.00100149
0.000779101
-0.00139328
0.00162903
-0.00124414
0.00176888
0.000481946
0.00421918
-0.000685738
0.0100338
9.7047e-05
0.00186929
0.0014898
-0.00141103
0.0019728
-0.000616579
0.00177241
0.000527623
0.00146016
0.000830037
0.00112014
0.000813526
0.000770157
0.000697676
0.000436114
0.000508972
0.000128197
0.000282371
-0.000129103
3.71833e-05
-0.000332117
-0.000179797
-0.00052121
-0.00034616
-0.000716694
-0.000474734
-0.000914547
-0.000565229
-0.00109191
-0.000600962
-0.00121581
-0.000571885
-0.00127092
-0.000502441
-0.00127414
-0.000430849
-0.00124634
-0.000378943
-0.00121344
-0.000359066
-0.00119078
-0.000369027
-0.00118499
-0.000400354
-0.00119325
-0.000440291
-0.00121143
-0.000477559
-0.00124453
-0.000503792
-0.00130048
-0.000507481
-0.00138912
-0.000478135
-0.00151965
-0.000411797
-0.00169691
-0.000316589
-0.00191781
-0.000215067
-0.00217072
-0.000139841
-0.00243952
-0.000127108
-0.00270425
-0.000219703
-0.00292546
-0.000459217
-0.0030263
-0.00090053
-0.00283044
-0.00158901
-0.00188633
-0.00218813
-0.000197428
-0.00120684
0.00408609
0.00252136
0.00801511
0.00392146
0.000469396
0.00447728
-0.00196666
0.00387856
-1.76572e-05
0.00322557
0.00118081
0.00273034
0.00132546
0.00228464
0.00125941
0.00189131
0.00109117
0.00155914
0.000841297
0.00127364
0.000568005
0.000995745
0.000315212
0.000724755
9.13167e-05
0.00047801
-9.92959e-05
0.00024968
-0.000246286
3.08991e-05
-0.000346328
-0.000165046
-0.000404894
-0.000317616
-0.000419188
-0.000419457
-0.00040047
-0.000480812
-0.000369362
-0.000517234
-0.000342386
-0.000546346
-0.000329818
-0.000581495
-0.000333742
-0.000630859
-0.000350854
-0.0006974
-0.000373614
-0.000783207
-0.000391618
-0.000895746
-0.000391121
-0.00104689
-0.00035621
-0.00125404
-0.000270854
-0.00153776
-0.000127948
-0.0019176
6.33779e-05
-0.00241566
0.000283119
-0.00304998
0.000494596
-0.00380903
0.00063207
-0.00465056
0.000621953
-0.00550574
0.000396089
-0.00635248
-5.36653e-05
-0.00735674
-0.000584629
-0.00839435
-0.0011504
-0.00744199
-0.00215907
-0.00304878
0.00857712
0.00904135
0.0076953
-0.000620452
0.00470955
0.00296824
0.00379521
0.00209532
0.00320958
0.00191125
0.0027516
0.00171755
0.00243479
0.00140813
0.00221368
0.00106254
0.00203763
0.000744193
0.00187485
0.00047811
0.00169846
0.000267834
0.00149586
0.000103423
0.00127821
-2.85189e-05
0.00106222
-0.00013022
0.000858211
-0.00020077
0.000680455
-0.00024131
0.000537055
-0.000256945
0.000425395
-0.000257575
0.000336414
-0.000253275
0.000258276
-0.000251549
0.000180355
-0.000255688
9.48876e-05
-0.000265253
-2.07105e-06
-0.000276522
-0.000110087
-0.000283468
-0.000226255
-0.00027482
-0.000345882
-0.000236452
-0.000462343
-0.000154261
-0.000570613
-1.95491e-05
-0.000682421
0.000175314
-0.000810685
0.00041151
-0.000957881
0.000641918
-0.0011247
0.000799019
-0.00132243
0.000819809
-0.00160535
0.000679136
-0.00207702
0.000418129
-0.00273937
7.78555e-05
-0.00342736
-0.000462276
-0.00324296
-0.00234333
-0.00596491
-0.0039652
0.00380947
-0.00184635
0.000849559
0.00045448
-0.000205361
0.00148519
0.000880693
0.00186212
0.00134077
0.00207167
0.00119872
0.00220209
0.000932253
0.00227252
0.000673896
0.00229343
0.000457326
0.00227291
0.000288476
0.00221346
0.000162999
0.00211268
7.2381e-05
0.00197801
4.57078e-06
0.00182413
-4.67779e-05
0.00166575
-8.28069e-05
0.00151501
-0.000106081
0.00137826
-0.000120705
0.00125571
-0.0001306
0.00114323
-0.000138936
0.00103517
-0.000147496
0.000926584
-0.000156538
0.000814951
-0.000164758
0.000700896
-0.000169281
0.000590574
-0.000164366
0.000495685
-0.000141431
0.000431048
-8.9493e-05
0.000410239
1.39117e-06
0.000447403
0.000138281
0.000543911
0.000315133
0.000688733
0.000497226
0.000859995
0.000627885
0.00102778
0.000652151
0.00116654
0.000540502
0.00129336
0.00029144
0.00147277
-0.000101421
0.00174185
-0.000731222
0.00151059
-0.00211194
-0.00438234
-0.0015901
0.00539983
-0.000967052
0.000226679
-0.000290248
-0.000882015
0.000515601
7.49868e-05
0.00114961
0.000706905
0.00166372
0.000684754
0.00204764
0.000548469
0.00231721
0.000404461
0.00249233
0.000282331
0.00259364
0.000187298
0.00263923
0.000117526
0.00264278
6.89563e-05
0.00261076
3.67172e-05
0.00254788
1.6221e-05
0.00246258
2.6159e-06
0.00236344
-6.81652e-06
0.00225726
-1.43947e-05
0.0021485
-2.1723e-05
0.00203948
-2.97837e-05
0.00193068
-3.85748e-05
0.00182171
-4.74361e-05
0.00171252
-5.54447e-05
0.00160485
-6.14853e-05
0.00150438
-6.37639e-05
0.00142213
-5.90559e-05
0.0013741
-4.13286e-05
0.00137831
-2.69249e-06
0.00146368
5.30467e-05
0.00164204
0.000136903
0.00190399
0.000235407
0.00221717
0.000314845
0.00253152
0.000337934
0.00278974
0.000282413
0.00294005
0.000141258
0.00293627
-9.75041e-05
0.00267727
-0.000472085
0.00170155
-0.00113609
-0.00259337
-0.00459893
-0.00484756
0.000553169
0.000779962
-0.000102783
-3.01917e-05
0.000673869
0.00135579
0.0019015
0.00230333
0.00258316
0.00276811
0.00288347
0.00295045
0.00298542
0.00300016
0.0030016
0.00299397
0.00297916
0.0029575
0.0029283
0.00289087
0.00284519
0.00279215
0.00273376
0.0026738
0.0026193
0.00258328
0.00258664
0.00264643
0.00279068
0.00303392
0.00335696
0.00370338
0.00399453
0.00414484
0.00405676
0.00359451
0.00246854
)
;

boundaryField
{
    floor
    {
        type            calculated;
        value           nonuniform List<scalar> 
29
(
0
0
0
0
0
0
0
0
0
0
0
0
0
0
0
0
0
0
0
0
-6.32867e-06
-1.57935e-05
-2.28231e-05
-1.87369e-05
-3.17141e-06
-6.27656e-06
-1.43016e-05
-1.5898e-05
-1.42164e-05
)
;
    }
    ceiling
    {
        type            calculated;
        value           nonuniform List<scalar> 
43
(
-6.82679e-07
-7.8842e-07
-7.0683e-07
4.87842e-08
8.70466e-07
2.52377e-06
2.98267e-06
2.97241e-06
2.88746e-06
2.76945e-06
2.63077e-06
2.47441e-06
2.29871e-06
2.09966e-06
1.87191e-06
1.60796e-06
1.30147e-06
9.43612e-07
5.30673e-07
6.2802e-08
-4.57113e-07
-1.02439e-06
-1.6341e-06
-2.28233e-06
-2.9664e-06
-3.68357e-06
-4.42759e-06
-5.18273e-06
-5.92007e-06
-6.61405e-06
-7.21663e-06
-7.69665e-06
-8.05924e-06
-8.34336e-06
-8.60482e-06
-8.90631e-06
-9.28502e-06
-9.70135e-06
-9.97419e-06
-9.98385e-06
6.71861e-06
5.34633e-06
-6.75925e-08
)
;
    }
    sWall
    {
        type            calculated;
        value           uniform -0.000115137;
    }
    nWall
    {
        type            calculated;
        value           nonuniform List<scalar> 6(-4.76225e-05 -5.34041e-05 -6.42192e-05 -7.18468e-05 -8.72747e-05 -0.000114707);
    }
    sideWalls
    {
        type            empty;
        value           nonuniform 0();
    }
    glass1
    {
        type            calculated;
        value           nonuniform List<scalar> 9(-6.70444e-05 -0.000168345 -0.000243771 -0.000303629 -0.000354415 -0.000399419 -0.00044342 -0.00050251 -0.000568573);
    }
    glass2
    {
        type            calculated;
        value           nonuniform List<scalar> 2(-0.000306993 -0.000326701);
    }
    sun
    {
        type            calculated;
        value           uniform 0;
    }
    heatsource1
    {
        type            calculated;
        value           nonuniform List<scalar> 3(2.04503e-07 2.04591e-07 2.04925e-07);
    }
    heatsource2
    {
        type            calculated;
        value           nonuniform List<scalar> 4(5.14336e-08 5.16086e-08 0 0);
    }
    Table_master
    {
        type            calculated;
        value           nonuniform List<scalar> 9(-1.55188e-07 -1.55318e-07 -1.55447e-07 -1.55503e-07 -1.55402e-07 -1.55294e-07 -1.55205e-07 -1.55125e-07 -1.55021e-07);
    }
    Table_slave
    {
        type            calculated;
        value           nonuniform List<scalar> 9(1.53975e-07 1.54064e-07 1.54149e-07 1.54239e-07 1.54333e-07 1.54375e-07 1.54333e-07 1.54272e-07 1.54237e-07);
    }
    inlet
    {
        type            calculated;
        value           uniform -0.000464513;
    }
    outlet
    {
        type            calculated;
        value           nonuniform List<scalar> 2(0.00471494 0.000249612);
    }
}


// ************************************************************************* //
