// -*- C++ -*-
// File generated by PyFoam - sorry for the ugliness

FoamFile
{
 version 2.0;
 format ascii;
 class volVectorField;
 location "200";
 object U;
}

dimensions [ 0 1 -1 0 0 0 0 ];

internalField nonuniform List<vector> 459
(
  (0.104621 0.0668445 0)
  (-0.139043 -0.00101482 0)
  (-0.109646 -0.00126566 0)
  (-0.110746 -3.83017e-06 0)
  (-0.11208 -0.00011964 0)
  (-0.112945 -0.000734532 0)
  (-0.112892 -0.00159793 0)
  (-0.111623 -0.0027283 0)
  (-0.108792 -0.00420888 0)
  (-0.103939 -0.00611128 0)
  (-0.0962525 -0.00852138 0)
  (-0.0843249 -0.0116988 0)
  (-0.0674727 -0.0164817 0)
  (-0.051622 -0.0243076 0)
  (-0.0596921 -0.033904 0)
  (0.0288742 0.0151436 0)
  (-0.0380237 -0.00838269 0)
  (-0.0236473 -0.00863093 0)
  (-0.0203409 -0.00344324 0)
  (-0.0188165 -0.000271519 0)
  (-0.0211707 -0.00132018 0)
  (-0.0223835 -0.00641111 0)
  (-0.0170555 -0.00919706 0)
  (-0.0087857 -0.0110892 0)
  (-0.000700667 -0.0144271 0)
  (0.0119556 -0.0100896 0)
  (0.019684 -0.00750597 0)
  (0.0251441 -0.00586604 0)
  (0.0298135 -0.00481283 0)
  (0.0344547 -0.00404127 0)
  (0.0388339 -0.00444328 0)
  (0.0432477 -0.00605695 0)
  (0.0507812 -0.000158412 0)
  (-0.00941534 0.0229166 0)
  (0.303483 0.146958 0)
  (-0.162475 0.0133546 0)
  (-0.0996312 0.00180438 0)
  (-0.106275 0.00284937 0)
  (-0.109069 0.00225928 0)
  (-0.110481 0.00103934 0)
  (-0.110777 -0.000537375 0)
  (-0.109988 -0.00256374 0)
  (-0.107952 -0.00521094 0)
  (-0.104291 -0.00860956 0)
  (-0.0983934 -0.0128403 0)
  (-0.089381 -0.0181012 0)
  (-0.0767302 -0.0251443 0)
  (-0.0617981 -0.0352485 0)
  (-0.0479138 -0.0469392 0)
  (-0.0344083 -0.0513427 0)
  (0.0251346 0.00450907 0)
  (0.124283 0.0149786 0)
  (0.0503467 0.00871938 0)
  (0.0222984 0.00336051 0)
  (0.012627 0.00189516 0)
  (0.0105592 0.00341405 0)
  (0.00697757 0.00826649 0)
  (0.00345659 0.00601468 0)
  (-0.00521331 -0.00627858 0)
  (0.00015666 -0.0111155 0)
  (-0.0056617 -0.0173151 0)
  (0.000730548 -0.0104045 0)
  (0.00314877 -0.00692162 0)
  (0.00274208 -0.0053967 0)
  (0.00166111 -0.00450227 0)
  (0.000555364 -0.00551769 0)
  (0.00176541 -0.0118222 0)
  (0.00419233 -0.0181257 0)
  (0.0311828 -0.00346836 0)
  (-0.0829218 0.0485849 0)
  (0.459844 0.223243 0)
  (-0.19951 0.0397659 0)
  (-0.0811698 0.0108152 0)
  (-0.0941995 0.00710725 0)
  (-0.0991917 0.00410473 0)
  (-0.101374 0.00145787 0)
  (-0.102462 -0.00114737 0)
  (-0.10272 -0.00417816 0)
  (-0.102252 -0.00803337 0)
  (-0.100872 -0.0129978 0)
  (-0.0982747 -0.0192356 0)
  (-0.0941378 -0.0268966 0)
  (-0.0884543 -0.0361719 0)
  (-0.0818674 -0.0467019 0)
  (-0.0754214 -0.0557939 0)
  (-0.0712759 -0.0582934 0)
  (-0.0767464 -0.0530018 0)
  (0.0825667 -0.00369276 0)
  (-0.0359211 0.00747925 0)
  (-0.0279024 0.00957194 0)
  (-0.0225332 0.00517001 0)
  (-0.0160444 0.000645858 0)
  (-0.00983216 -0.00393519 0)
  (0.0202309 0.00282731 0)
  (0.0225571 -0.00145363 0)
  (0.0173617 -0.00834579 0)
  (-0.0082264 -0.0156431 0)
  (-0.0206914 -0.010213 0)
  (-0.0276878 -0.00710441 0)
  (-0.0333066 -0.00525783 0)
  (-0.0376588 -0.00402124 0)
  (-0.0390071 -0.00349753 0)
  (-0.0325997 -0.00371025 0)
  (-0.0454176 0.00385568 0)
  (-0.0757272 0.0195765 0)
  (-0.164558 0.0378564 0)
  (0.579418 0.284041 0)
  (-0.228968 0.0691005 0)
  (-0.0582771 0.0218311 0)
  (-0.0715105 0.0131956 0)
  (-0.0795447 0.00756809 0)
  (-0.0831369 0.00353152 0)
  (-0.0856749 0.000139684 0)
  (-0.0876736 -0.0034217 0)
  (-0.0890661 -0.00771906 0)
  (-0.0901162 -0.0131577 0)
  (-0.0909443 -0.0199152 0)
  (-0.0917854 -0.0279817 0)
  (-0.0931442 -0.0370522 0)
  (-0.0958847 -0.0459529 0)
  (-0.101391 -0.0517825 0)
  (-0.112125 -0.049242 0)
  (-0.127114 -0.0288484 0)
  (-0.123016 0.0204239 0)
  (-0.0943501 0.00381785 0)
  (-0.0882474 0.00635544 0)
  (-0.076273 0.00230267 0)
  (-0.0702836 -0.0028708 0)
  (-0.066548 -0.0085602 0)
  (-0.0658297 -0.0134948 0)
  (-0.0615813 -0.0112063 0)
  (-0.0494071 -0.0114666 0)
  (-0.0371615 -0.012338 0)
  (-0.0245796 -0.0130722 0)
  (-0.012199 -0.0134735 0)
  (0.000906932 -0.013023 0)
  (0.0121457 -0.0115571 0)
  (0.0212228 -0.00953113 0)
  (0.0300965 -0.00586702 0)
  (0.0299858 -0.00365158 0)
  (0.0321012 0.00316905 0)
  (0.0388481 0.00579342 0)
  (-0.0746657 0.00487491 0)
  (0.670601 0.330685 0)
  (-0.24833 0.0967928 0)
  (-0.0344829 0.0291413 0)
  (-0.033905 0.0170856 0)
  (-0.0417543 0.0124069 0)
  (-0.0483959 0.00826304 0)
  (-0.0548093 0.00399661 0)
  (-0.0606548 -0.000416252 0)
  (-0.0653107 -0.00533284 0)
  (-0.0687542 -0.0109292 0)
  (-0.071874 -0.017406 0)
  (-0.0753554 -0.0247402 0)
  (-0.079784 -0.0326342 0)
  (-0.0856922 -0.0402006 0)
  (-0.0934681 -0.0459553 0)
  (-0.102538 -0.0478029 0)
  (-0.10921 -0.0421489 0)
  (-0.109806 -0.0258049 0)
  (-0.103885 -0.0139219 0)
  (-0.0954978 -0.00689015 0)
  (-0.0864125 -0.00613681 0)
  (-0.0793523 -0.00821087 0)
  (-0.074031 -0.0116635 0)
  (-0.0696894 -0.0146175 0)
  (-0.064079 -0.0152321 0)
  (-0.0564975 -0.0166141 0)
  (-0.0482589 -0.0178057 0)
  (-0.0398012 -0.0185277 0)
  (-0.0315243 -0.0185181 0)
  (-0.0236165 -0.0174821 0)
  (-0.0161997 -0.0155302 0)
  (-0.00888403 -0.0132259 0)
  (-0.000149419 -0.0108766 0)
  (0.0107242 -0.0105419 0)
  (0.0277081 -0.0085866 0)
  (0.0572163 -0.00260458 0)
  (0.0744514 0.00464232 0)
  (0.12062 -0.00198599 0)
  (0.139624 0.01744 0)
  (-0.0435064 0.0692239 0)
  (0.729723 0.36853 0)
  (-0.264623 0.112296 0)
  (-0.00978736 0.0206708 0)
  (0.0181572 0.0120243 0)
  (0.0157592 0.0189461 0)
  (0.00719474 0.0186033 0)
  (-0.00465129 0.0137922 0)
  (-0.016535 0.00791438 0)
  (-0.0273947 0.000984659 0)
  (-0.0361818 -0.00632561 0)
  (-0.0421214 -0.0131549 0)
  (-0.0476235 -0.0198278 0)
  (-0.0536811 -0.0265251 0)
  (-0.0607637 -0.0325715 0)
  (-0.0689455 -0.0366764 0)
  (-0.0773791 -0.037129 0)
  (-0.08363 -0.0326598 0)
  (-0.0858049 -0.0250363 0)
  (-0.0841652 -0.0182035 0)
  (-0.0800086 -0.0136622 0)
  (-0.0750162 -0.0124898 0)
  (-0.0706371 -0.0136237 0)
  (-0.0672176 -0.0161164 0)
  (-0.064455 -0.0187217 0)
  (-0.0615209 -0.0206129 0)
  (-0.0581361 -0.0224038 0)
  (-0.0546731 -0.0237457 0)
  (-0.0514716 -0.0242781 0)
  (-0.0488652 -0.0237677 0)
  (-0.0470094 -0.0222455 0)
  (-0.0457892 -0.0201732 0)
  (-0.0447843 -0.0183453 0)
  (-0.0431413 -0.0177914 0)
  (-0.0396096 -0.0198994 0)
  (-0.0312214 -0.0247508 0)
  (-0.0150872 -0.0328902 0)
  (0.00790474 -0.0494167 0)
  (0.038007 -0.0517421 0)
  (0.109812 0.0152304 0)
  (-0.0743541 0.12775 0)
  (0.75545 0.402646 0)
  (-0.267075 0.0786068 0)
  (0.0458949 -0.0637099 0)
  (0.0903664 -0.0175032 0)
  (0.0852084 0.0195745 0)
  (0.0698373 0.0293476 0)
  (0.0550146 0.0277433 0)
  (0.0404107 0.0223618 0)
  (0.0257757 0.0144387 0)
  (0.0122021 0.00498227 0)
  (-0.00117638 -0.00515533 0)
  (-0.0101648 -0.0131431 0)
  (-0.0182455 -0.0195969 0)
  (-0.0265069 -0.0250239 0)
  (-0.0351399 -0.0288446 0)
  (-0.0435365 -0.0299271 0)
  (-0.0501963 -0.0276574 0)
  (-0.0540214 -0.0234589 0)
  (-0.0551027 -0.0193195 0)
  (-0.0543368 -0.0164104 0)
  (-0.052824 -0.0153885 0)
  (-0.051522 -0.0159863 0)
  (-0.0508855 -0.0176936 0)
  (-0.0509441 -0.0197825 0)
  (-0.0514755 -0.0217046 0)
  (-0.0524787 -0.0232712 0)
  (-0.0542657 -0.0240781 0)
  (-0.0572546 -0.0237664 0)
  (-0.0619285 -0.0222452 0)
  (-0.0685923 -0.0198845 0)
  (-0.0772433 -0.0174358 0)
  (-0.0875639 -0.0157193 0)
  (-0.098799 -0.0158514 0)
  (-0.11017 -0.0197637 0)
  (-0.120563 -0.029906 0)
  (-0.128237 -0.0484774 0)
  (-0.129354 -0.0728559 0)
  (-0.112056 -0.0832503 0)
  (-0.0349534 -0.0259544 0)
  (-0.160796 0.233926 0)
  (0.855138 0.4062 0)
  (-0.0116691 0.0342011 0)
  (0.130334 -0.117118 0)
  (0.196651 -0.0407994 0)
  (0.166512 0.0185298 0)
  (0.127229 0.0379156 0)
  (0.10487 0.0408626 0)
  (0.0887464 0.0368732 0)
  (0.0738154 0.0285528 0)
  (0.0605856 0.0183722 0)
  (0.0490451 0.00807744 0)
  (0.03679 -0.00168984 0)
  (0.0255531 -0.00971109 0)
  (0.0156061 -0.0157241 0)
  (0.00602569 -0.0199218 0)
  (-0.00327019 -0.0221099 0)
  (-0.0108488 -0.0218515 0)
  (-0.016301 -0.0200096 0)
  (-0.0196978 -0.0178103 0)
  (-0.0216345 -0.0160771 0)
  (-0.0228799 -0.0153131 0)
  (-0.0241454 -0.0155472 0)
  (-0.0258944 -0.0165476 0)
  (-0.0283369 -0.0178724 0)
  (-0.0315514 -0.0190179 0)
  (-0.0356846 -0.0194536 0)
  (-0.0411385 -0.0185411 0)
  (-0.0485574 -0.0156852 0)
  (-0.0589195 -0.0106755 0)
  (-0.0729702 -0.00393032 0)
  (-0.0913552 0.00339733 0)
  (-0.115719 0.00900311 0)
  (-0.146075 0.0101356 0)
  (-0.181447 0.00450968 0)
  (-0.220072 -0.0084739 0)
  (-0.258266 -0.0265615 0)
  (-0.288276 -0.0436482 0)
  (-0.314615 -0.0498859 0)
  (-0.37801 -0.0294672 0)
  (-0.603388 0.0394767 0)
  (0.989504 0.355871 0)
  (0.465371 0.15345 0)
  (0.179275 0.0235828 0)
  (0.294767 0.0728739 0)
  (0.210897 0.0835704 0)
  (0.14639 0.0791509 0)
  (0.122318 0.0703048 0)
  (0.109996 0.0581674 0)
  (0.0996465 0.0442958 0)
  (0.0911598 0.0308567 0)
  (0.084118 0.0191819 0)
  (0.0772595 0.00956287 0)
  (0.0691664 0.00157092 0)
  (0.0597432 -0.00494647 0)
  (0.0503501 -0.00970065 0)
  (0.0411533 -0.0128108 0)
  (0.0328024 -0.0143053 0)
  (0.0258361 -0.0144674 0)
  (0.0203923 -0.0139237 0)
  (0.0161821 -0.0132661 0)
  (0.0127102 -0.0129139 0)
  (0.00945689 -0.0130224 0)
  (0.00601718 -0.0135408 0)
  (0.00215501 -0.0142421 0)
  (-0.00229333 -0.0147515 0)
  (-0.00709822 -0.0144551 0)
  (-0.0121725 -0.0126497 0)
  (-0.0172633 -0.00862598 0)
  (-0.0221206 -0.00199019 0)
  (-0.0260947 0.0071419 0)
  (-0.0312601 0.0178077 0)
  (-0.037419 0.0284492 0)
  (-0.0448441 0.036286 0)
  (-0.0535574 0.0381249 0)
  (-0.06405 0.030587 0)
  (-0.0794181 0.010413 0)
  (-0.101805 -0.0247204 0)
  (-0.100807 -0.0775441 0)
  (-0.133074 -0.16275 0)
  (-0.539362 -0.263755 0)
  (-1.46926 0.0279743 0)
  (0.080069 0.103708 0)
  (0.0118647 0.0661771 0)
  (0.0397151 0.0729754 0)
  (0.0697699 0.0716873 0)
  (0.0854695 0.0604574 0)
  (0.0926133 0.0463639 0)
  (0.096582 0.0332489 0)
  (0.0986052 0.0224055 0)
  (0.0987379 0.0139938 0)
  (0.0970895 0.00768662 0)
  (0.09372 0.00292287 0)
  (0.0883904 -0.000850873 0)
  (0.0820129 -0.00376485 0)
  (0.07512 -0.00580735 0)
  (0.0683235 -0.00705833 0)
  (0.0620744 -0.00774262 0)
  (0.0565091 -0.00811754 0)
  (0.0515086 -0.00840024 0)
  (0.0468283 -0.00871488 0)
  (0.0422185 -0.00908245 0)
  (0.0375061 -0.00942196 0)
  (0.0326302 -0.00956773 0)
  (0.0277409 -0.00918746 0)
  (0.0232128 -0.00781569 0)
  (0.0196599 -0.00494421 0)
  (0.0178802 -0.000168365 0)
  (0.0183837 0.00707802 0)
  (0.0212386 0.0163554 0)
  (0.026315 0.0258285 0)
  (0.0328246 0.0328042 0)
  (0.0398317 0.0347388 0)
  (0.046374 0.0306142 0)
  (0.051311 0.0222778 0)
  (0.0581595 0.0133611 0)
  (0.071545 -0.00178454 0)
  (0.129417 -0.0715317 0)
  (-0.161954 -0.212069 0)
  (-0.652534 0.156576 0)
  (0.184074 0.0358064 0)
  (-0.0193994 -0.0366673 0)
  (-0.00978538 0.0177162 0)
  (0.0366654 0.0444759 0)
  (0.0625553 0.0414731 0)
  (0.0807008 0.0319973 0)
  (0.094506 0.0223018 0)
  (0.104216 0.0140755 0)
  (0.110213 0.00764637 0)
  (0.113294 0.00291155 0)
  (0.11424 -0.000373076 0)
  (0.113586 -0.00252158 0)
  (0.111426 -0.00381794 0)
  (0.108108 -0.00447211 0)
  (0.104022 -0.00462931 0)
  (0.0995076 -0.00444876 0)
  (0.0948197 -0.00405991 0)
  (0.0901078 -0.00354516 0)
  (0.0854202 -0.00293992 0)
  (0.0807425 -0.0022373 0)
  (0.0760495 -0.00139219 0)
  (0.0713604 -0.000327733 0)
  (0.0668167 0.00110475 0)
  (0.0627669 0.00315419 0)
  (0.0598151 0.00620743 0)
  (0.0588466 0.0106222 0)
  (0.0605513 0.0157562 0)
  (0.0660952 0.0218391 0)
  (0.0755434 0.0280543 0)
  (0.0879628 0.032647 0)
  (0.101616 0.0337999 0)
  (0.114244 0.0305548 0)
  (0.123339 0.0227311 0)
  (0.127178 0.00901583 0)
  (0.122713 -0.0148787 0)
  (0.152925 -0.064485 0)
  (-0.184847 -0.150937 0)
  (0.027302 -0.200684 0)
  (-0.182117 -0.00806351 0)
  (-0.324562 0.219483 0)
  (0.223435 0.0250948 0)
  (0.0394145 -0.0261883 0)
  (-0.0424185 0.00988719 0)
  (0.0174526 0.0401911 0)
  (0.0456449 0.039074 0)
  (0.0703315 0.0343405 0)
  (0.0908426 0.0296688 0)
  (0.105981 0.0257768 0)
  (0.116132 0.0226802 0)
  (0.122481 0.020206 0)
  (0.126212 0.0181311 0)
  (0.128235 0.0162175 0)
  (0.129168 0.0142277 0)
  (0.129427 0.0119788 0)
  (0.129226 0.00930419 0)
  (0.128697 0.00612572 0)
  (0.127888 0.00242043 0)
  (0.126785 -0.00179178 0)
  (0.125349 -0.00646795 0)
  (0.123557 -0.0115635 0)
  (0.121422 -0.0170361 0)
  (0.119004 -0.0228361 0)
  (0.116419 -0.0288709 0)
  (0.113884 -0.0349482 0)
  (0.111794 -0.0406903 0)
  (0.111038 -0.0454934 0)
  (0.112119 -0.0477716 0)
  (0.116198 -0.0468324 0)
  (0.12433 -0.0432642 0)
  (0.136527 -0.039012 0)
  (0.151179 -0.0364116 0)
  (0.16536 -0.0371356 0)
  (0.175699 -0.0421628 0)
  (0.178404 -0.0513672 0)
  (0.168242 -0.0633727 0)
  (0.180237 -0.08327 0)
  (-0.198665 -0.126925 0)
)
;

boundaryField
{
  floor
  {
    type noSlip;
  }
  ceiling
  {
    type noSlip;
  }
  sWall
  {
    type noSlip;
  }
  nWall
  {
    type noSlip;
  }
  sideWalls
  {
    type empty;
  }
  glass1
  {
    type noSlip;
  }
  glass2
  {
    type noSlip;
  }
  sun
  {
    type noSlip;
  }
  heatsource1
  {
    type noSlip;
  }
  heatsource2
  {
    type noSlip;
  }
  Table_master
  {
    type noSlip;
  }
  Table_slave
  {
    type noSlip;
  }
  inlet
  {
    type fixedValue;
    value uniform (0.1 0 0);
  }
  outlet
  {
    type zeroGradient;
  }
} 	// ************************************************************************* //

