/*--------------------------------*- C++ -*----------------------------------*\
  =========                 |
  \\      /  F ield         | OpenFOAM: The Open Source CFD Toolbox
   \\    /   O peration     | Website:  https://openfoam.org
    \\  /    A nd           | Version:  6
     \\/     M anipulation  |
\*---------------------------------------------------------------------------*/
FoamFile
{
    version     2.0;
    format      ascii;
    class       surfaceScalarField;
    location    "1500";
    object      phi;
}
// * * * * * * * * * * * * * * * * * * * * * * * * * * * * * * * * * * * * * //

dimensions      [1 0 -1 0 0 0 0];

internalField   nonuniform List<scalar> 
852
(
0.00451
-0.00448263
0.00863501
-0.0041249
0.0108551
-0.00221998
0.0120052
-0.00115
0.0126724
-0.000667111
0.0130174
-0.000344839
0.013076
-5.85054e-05
0.0128781
0.000198031
0.0124382
0.00043998
0.0117482
0.000690099
0.0107767
0.000971643
0.00945801
0.00131881
0.00764781
0.00181031
0.00494114
0.00270678
0.00493995
-0.000444648
0.000447095
-0.000479713
3.51126e-05
-0.000410102
-6.95618e-05
-0.000369253
-4.07949e-05
-0.00034117
-2.80237e-05
-0.000251153
-8.99542e-05
-3.93944e-05
-0.000211697
0.000163967
-0.000203308
0.000266957
-0.000102941
0.000340616
-7.36107e-05
0.000401426
-6.07632e-05
0.000454913
-5.34405e-05
0.000506676
-5.17166e-05
0.000544066
-3.73448e-05
0.000539185
4.92445e-06
0.000499368
3.9861e-05
0.000487926
1.14863e-05
0.000464541
2.3427e-05
0.000466767
0.00488968
-0.00929481
0.00743497
-0.00667008
0.00878861
-0.0035735
0.00960282
-0.0019641
0.0101168
-0.00118097
0.0104034
-0.000631373
0.0104872
-0.000142146
0.0103662
0.000319133
0.0100358
0.000770534
0.00948508
0.0012409
0.008702
0.00175484
0.00768476
0.00233616
0.00647984
0.00301534
0.00538784
0.0037989
0.00572251
0.00460539
0.00218988
0.00353269
0.00218994
0.000660332
-0.000208419
0.000636963
5.85203e-05
0.000408093
0.000159349
0.000216076
0.000151271
5.07911e-05
0.000137316
-0.000124346
8.52387e-05
-0.000106206
-0.000229774
-3.10569e-05
-0.000278401
1.43385e-06
-0.000135381
1.16202e-05
-8.37473e-05
1.06238e-05
-5.97158e-05
-1.38981e-06
-4.13744e-05
-3.35632e-05
-1.94888e-05
-8.60821e-05
1.52335e-05
-0.000131726
5.06273e-05
-0.000138294
4.6485e-05
-0.000106254
-2.05157e-05
-0.000131653
4.88664e-05
0.000340736
0.00354446
-0.0127141
0.00510487
-0.00823037
0.00588426
-0.00435277
0.00641524
-0.00249497
0.00679951
-0.00156511
0.00704821
-0.000879964
0.00718596
-0.000279774
0.0071999
0.000305302
0.00706182
0.000908734
0.00674906
0.00155378
0.00625455
0.00224946
0.00559607
0.00299475
0.00483645
0.00377508
0.00407982
0.00455565
0.00334076
0.00534456
0.00187848
0.00499508
0.00406854
-0.000134545
-6.98863e-05
-0.000142132
6.61568e-05
-9.15473e-05
0.000108815
-5.007e-05
0.000109847
2.53774e-06
8.47658e-05
5.86903e-05
2.91538e-05
-0.00017088
-0.000449069
-0.000584243
-0.000667782
-0.000727285
-0.000768439
-0.000787703
-0.000772241
-0.000721377
-0.000616659
-5.81316e-05
-0.000655622
1.8572e-05
-0.000627523
2.09099e-05
-0.000282156
0.0021223
-0.0146647
0.00296219
-0.00907014
0.00339557
-0.00478604
0.0036053
-0.00270458
0.00381798
-0.00177768
0.00400457
-0.00106644
0.00416393
-0.000439022
0.00426123
0.000208119
0.00425253
0.000917545
0.00410957
0.00169686
0.0038211
0.00253804
0.00339197
0.00342399
0.00283828
0.00432888
0.0021735
0.00522054
0.00145378
0.0060644
0.000637944
0.00581102
-7.82405e-05
0.00478482
-0.00085111
0.000773208
-0.000973021
5.2087e-05
-0.000986621
7.98184e-05
-0.0010139
0.000136158
-0.00107831
0.000174318
-0.00116927
0.000175794
-0.00127525
0.000135219
-0.00134971
7.43929e-05
-0.00135993
1.01643e-05
-0.00132703
-3.2967e-05
-0.00126483
-6.22619e-05
-0.00118178
-8.31061e-05
-0.00108188
-9.9968e-05
-0.000964299
-0.000117637
-0.000823285
-0.00014107
-0.000649905
-0.00017343
-0.000471923
-0.000236003
-0.000172664
-0.000280563
0.000160842
-0.000312457
-0.000120585
0.000953683
-0.0154006
0.00132301
-0.00943935
0.00144323
-0.00490614
0.00122846
-0.00248971
0.00131315
-0.00186226
0.00148704
-0.00124021
0.00166387
-0.00061575
0.00178495
8.71581e-05
0.00181607
0.000886537
0.00174548
0.00176756
0.0015639
0.00271973
0.00126599
0.00372202
0.000849501
0.00474549
0.000336325
0.00573383
-0.000146653
0.00654749
-0.000604643
0.00626913
-0.000714315
0.00489459
-0.00110059
0.00115956
-0.00134155
0.000293121
-0.00144159
0.000179937
-0.00148795
0.000182601
-0.00150398
0.000190422
-0.00150151
0.00017341
-0.00149105
0.000124848
-0.00147253
5.59529e-05
-0.00144898
-1.32938e-05
-0.00141351
-6.83459e-05
-0.00136717
-0.000108514
-0.00131213
-0.000138047
-0.00124938
-0.000162627
-0.00117695
-0.000189972
-0.00108726
-0.000230663
-0.000963533
-0.000297064
-0.000801857
-0.000397576
-0.000543493
-0.000538822
-0.000128507
-0.000727334
0.000631632
-0.000880617
0.00141434
-0.000782802
0.00139248
2.17608e-05
0.00141502
-1.63133e-05
-0.015121
9.93027e-06
-0.00946547
-0.000260109
-0.00463598
-0.000787094
-0.00196261
-0.000780826
-0.00186841
-0.00064243
-0.0013785
-0.000502116
-0.000755953
-0.00042049
5.64382e-06
-0.000402251
0.000868409
-0.000438542
0.00180397
-0.000539709
0.00282101
-0.000713501
0.00389592
-0.000956536
0.00498864
-0.00122841
0.00600582
-0.00139021
0.0067094
-0.00145576
0.00633478
-0.0012073
0.00464623
-0.00134843
0.00130078
-0.00150521
0.000449977
-0.00157693
0.000251746
-0.00158747
0.000193228
-0.00155762
0.00016066
-0.00150689
0.000122759
-0.00145315
7.12046e-05
-0.00140703
9.92453e-06
-0.00137131
-4.89279e-05
-0.00134391
-9.56488e-05
-0.00132357
-0.000128763
-0.00131131
-0.000150216
-0.00130916
-0.000164683
-0.00131791
-0.000181129
-0.00133411
-0.000214366
-0.00134763
-0.000283454
-0.00133858
-0.000406528
-0.00127382
-0.000603479
-0.00110687
-0.000894196
-0.000718245
-0.00126914
4.51802e-05
-0.00154613
0.000621402
-0.000554363
0.00206311
-0.000986272
-0.0138275
-0.00165899
-0.00879263
-0.00224403
-0.00405082
-0.00288593
-0.00132061
-0.00293109
-0.00182314
-0.00282291
-0.00148657
-0.00269946
-0.00087929
-0.00259622
-9.7479e-05
-0.00251965
0.00079195
-0.00247166
0.00175609
-0.00244352
0.00279299
-0.00243176
0.00388428
-0.00242428
0.00498127
-0.00237977
0.00596142
-0.00220422
0.00653395
-0.00191301
0.00604368
-0.00144844
0.00418176
-0.00144732
0.00129974
-0.00148853
0.000491278
-0.00148369
0.000246996
-0.00143436
0.00014399
-0.00135568
8.20729e-05
-0.00126708
3.42486e-05
-0.0011861
-9.68641e-06
-0.00112507
-5.10161e-05
-0.00108712
-8.67818e-05
-0.00106902
-0.000113653
-0.00106935
-0.000128339
-0.00109083
-0.000128648
-0.00114045
-0.000114971
-0.00122837
-9.31148e-05
-0.00136419
-7.8447e-05
-0.00155015
-9.74051e-05
-0.00177523
-0.000181351
-0.00201636
-0.000362255
-0.00224767
-0.000662791
-0.00243021
-0.0010865
-0.00244225
-0.00153399
-0.00151881
-0.00147771
0.000575007
-0.00358934
-0.00989019
-0.00556745
-0.0068144
-0.00560644
-0.0040117
-0.00571268
-0.00121426
-0.00529079
-0.00224493
-0.00494572
-0.00183152
-0.00471669
-0.00110821
-0.00454303
-0.000271029
-0.00438771
0.00063674
-0.00422242
0.00159092
-0.00402043
0.0025911
-0.00376718
0.00363114
-0.00344914
0.00466334
-0.00304481
0.00555721
-0.00252572
0.00601497
-0.00194759
0.00546565
-0.0013728
0.00360706
-0.00126429
0.00119133
-0.00120956
0.000436651
-0.00112248
0.000160007
-0.00100039
2.19972e-05
-0.000865655
-5.25695e-05
-0.000746279
-8.50336e-05
-0.000656829
-9.90416e-05
-0.00059864
-0.000109109
-0.000566392
-0.000118934
-0.000554423
-0.000125525
-0.000558953
-0.000123713
-0.000579572
-0.000107931
-0.00062055
-7.3896e-05
-0.000692767
-2.08006e-05
-0.000820562
4.94433e-05
-0.00104335
0.000125474
-0.00140154
0.00017694
-0.00191107
0.000147363
-0.00256798
-5.7812e-06
-0.00342466
-0.000229723
-0.00447534
-0.000483213
-0.00449177
-0.00146118
-0.00380649
-0.00952649
-0.0163559
-0.0114623
-0.00890518
-0.00801184
-0.00466465
-0.00690529
-0.00335136
-0.0064176
-0.0023191
-0.00619023
-0.00133547
-0.0060328
-0.000428343
-0.00583863
0.000442679
-0.00555457
0.00130697
-0.00515918
0.00219582
-0.00463604
0.00310811
-0.00397892
0.00400633
-0.00319718
0.00477557
-0.00233432
0.00515222
-0.00151069
0.00464211
-0.000821799
0.00291827
-0.000639164
0.00100879
-0.000527841
0.000325427
-0.000372702
4.96776e-06
-0.000199182
-0.000151423
-5.88146e-05
-0.000192838
4.02175e-05
-0.000183967
0.000103997
-0.000162722
0.000140607
-0.00014562
0.000157091
-0.000135319
0.000159366
-0.000127701
0.000152695
-0.000116943
0.000142037
-9.71728e-05
0.000131816
-6.35734e-05
0.000125392
-1.42763e-05
0.000126901
4.80345e-05
0.000142103
0.000110372
0.000174461
0.000144681
0.000221258
0.000100664
0.000257256
-4.16797e-05
0.000272143
-0.000244511
0.000286998
-0.000497969
0.0001288
-0.00130289
-0.00355598
-0.00918792
0.000131668
-0.0072732
-0.00657926
-0.00694845
-0.003676
-0.00699855
-0.00226889
-0.00702644
-0.00130748
-0.00695118
-0.000503498
-0.00673916
0.000230776
-0.00637559
0.000943506
-0.00581404
0.00163439
-0.00503681
0.002331
-0.00404942
0.00301905
-0.00288837
0.00361463
-0.00166673
0.00393069
-0.000501711
0.0034772
0.000389598
0.00202706
0.000643164
0.000755322
0.000779801
0.000188893
0.000887381
-0.000102508
0.000954365
-0.000218304
0.000986781
-0.000225152
0.00100073
-0.000197817
0.00100561
-0.000167501
0.00100451
-0.000144415
0.000997929
-0.000128637
0.000986592
-0.000116263
0.000972645
-0.000102894
0.000960378
-8.4803e-05
0.000956228
-5.93192e-05
0.00096744
-2.53845e-05
0.0010069
8.67412e-06
0.00108586
3.15169e-05
0.0012064
2.42479e-05
0.00135375
-4.65819e-05
0.00150677
-0.000194597
0.00166063
-0.000398269
0.00176518
-0.000602414
0.00143613
-0.00097373
-0.00209357
-0.000453999
0.000559774
-0.00399195
-0.00304118
-0.00579284
-0.001875
-0.00686448
-0.00119714
-0.00745166
-0.000720187
-0.00763309
-0.000321962
-0.00746293
6.07315e-05
-0.00700709
0.000487775
-0.00626454
0.000891944
-0.00522417
0.00129074
-0.00389805
0.00169304
-0.0023278
0.00204449
-0.000578437
0.00218143
0.00108952
0.00180935
0.002109
0.00100768
0.00245071
0.000413722
0.00251806
0.00012164
0.00242844
-1.27819e-05
0.00227612
-6.58782e-05
0.00214192
-9.08432e-05
0.00204277
-9.85701e-05
0.00197411
-9.87396e-05
0.00192511
-9.53097e-05
0.00188567
-8.90865e-05
0.00184963
-8.01275e-05
0.00181552
-6.8679e-05
0.00178612
-5.52948e-05
0.00176774
-4.08406e-05
0.00176942
-2.6958e-05
0.00179491
-1.6713e-05
0.00184302
-1.64843e-05
0.00190942
-4.20479e-05
0.00196953
-0.000106582
0.00199355
-0.00021851
0.0019894
-0.000394014
0.00204891
-0.000661825
0.0021379
-0.00106262
7.23652e-05
0.00475411
-0.000348177
0.000164741
-0.00293698
-0.00487328
-0.00613249
-0.00691473
-0.00729855
-0.00729936
-0.00687268
-0.0060414
-0.00481078
-0.00317718
-0.00119129
0.000932901
0.00268741
0.00364174
0.00400329
0.00407424
0.0040127
0.00390054
0.00376562
0.00362464
0.00348458
0.00334865
0.00321938
0.00309937
0.00299107
0.00289643
0.00281656
0.00275093
0.00269591
0.00264144
0.00256166
0.00241749
0.00216133
0.00172932
0.00102859
-7.34317e-05
)
;

boundaryField
{
    floor
    {
        type            calculated;
        value           nonuniform List<scalar> 
29
(
0
0
0
0
0
0
0
0
0
0
0
0
0
0
0
0
0
0
0
0
-2.18499e-06
-5.57483e-06
-4.44654e-06
-5.78259e-07
1.30815e-06
-2.40018e-06
-4.77896e-06
-3.93274e-06
-2.66283e-07
)
;
    }
    ceiling
    {
        type            calculated;
        value           nonuniform List<scalar> 
43
(
0.000108145
0.000101529
4.70266e-05
6.06722e-05
6.14065e-05
6.21793e-05
6.21606e-05
6.19691e-05
6.16493e-05
6.12046e-05
6.07704e-05
6.0229e-05
5.9551e-05
5.87147e-05
5.7343e-05
5.49477e-05
5.34492e-05
5.22804e-05
5.07999e-05
4.88585e-05
4.63916e-05
4.41761e-05
4.25232e-05
4.14186e-05
4.07252e-05
4.02912e-05
3.99887e-05
3.97256e-05
3.94463e-05
3.91286e-05
3.87776e-05
3.84178e-05
3.80881e-05
3.78336e-05
3.76991e-05
3.77464e-05
3.81023e-05
3.90133e-05
3.9497e-05
3.78037e-05
1.79761e-05
1.51842e-05
2.60369e-05
)
;
    }
    sWall
    {
        type            calculated;
        value           uniform -0.000107795;
    }
    nWall
    {
        type            calculated;
        value           nonuniform List<scalar> 6(-2.26376e-05 -2.6595e-05 -3.06082e-05 -2.61858e-05 -2.7935e-05 -3.87847e-05);
    }
    sideWalls
    {
        type            empty;
        value           nonuniform 0();
    }
    glass1
    {
        type            calculated;
        value           nonuniform List<scalar> 9(-2.72616e-05 -7.739e-05 -0.000125056 -0.000171649 -0.000217644 -0.00026311 -0.000307152 -0.000347836 -0.000381557);
    }
    glass2
    {
        type            calculated;
        value           nonuniform List<scalar> 2(-0.00011018 -0.000121607);
    }
    sun
    {
        type            calculated;
        value           uniform 0;
    }
    heatsource1
    {
        type            calculated;
        value           nonuniform List<scalar> 3(2.01167e-07 2.0126e-07 2.01338e-07);
    }
    heatsource2
    {
        type            calculated;
        value           nonuniform List<scalar> 4(4.92023e-08 4.96067e-08 0 0);
    }
    Table_master
    {
        type            calculated;
        value           nonuniform List<scalar> 9(-1.52546e-07 -1.52495e-07 -1.5241e-07 -1.52345e-07 -1.52288e-07 -1.52233e-07 -1.52179e-07 -1.52125e-07 -1.52046e-07);
    }
    Table_slave
    {
        type            calculated;
        value           nonuniform List<scalar> 9(1.51246e-07 1.5123e-07 1.51219e-07 1.51222e-07 1.51238e-07 1.51263e-07 1.51296e-07 1.5134e-07 1.51373e-07);
    }
    inlet
    {
        type            calculated;
        value           uniform 0.000151233;
    }
    outlet
    {
        type            calculated;
        value           nonuniform List<scalar> 2(-0.00475419 0.00500108);
    }
}


// ************************************************************************* //
