// -*- C++ -*-
// File generated by PyFoam - sorry for the ugliness

FoamFile
{
 version 2.0;
 format ascii;
 class volVectorField;
 location "1300";
 object U;
}

dimensions [ 0 1 -1 0 0 0 0 ];

internalField nonuniform List<vector> 459
(
  (0.0569342 0.0779853 0)
  (-0.15215 0.0170533 0)
  (-0.163098 0.0146129 0)
  (-0.189524 0.0118549 0)
  (-0.211627 0.00826518 0)
  (-0.228847 0.00435347 0)
  (-0.240478 8.9408e-05 0)
  (-0.24564 -0.00465281 0)
  (-0.243124 -0.00999827 0)
  (-0.232279 -0.0161723 0)
  (-0.212461 -0.022997 0)
  (-0.183029 -0.0304589 0)
  (-0.144214 -0.0396443 0)
  (-0.103387 -0.0533597 0)
  (-0.0872291 -0.0725329 0)
  (0.0526862 0.0163125 0)
  (0.00331905 -0.0148671 0)
  (0.0229694 -0.0131497 0)
  (0.0377288 -0.0097532 0)
  (0.0469946 -0.00701473 0)
  (0.0523824 -0.00475943 0)
  (0.0549634 -0.00263418 0)
  (0.0553281 -0.0014023 0)
  (0.0544498 -0.000863269 0)
  (0.0531775 -0.000611066 0)
  (0.0518279 -0.000437862 0)
  (0.0503968 -0.00028484 0)
  (0.048806 -0.000103826 0)
  (0.0469001 0.000227768 0)
  (0.0442622 0.00103827 0)
  (0.0399998 0.0027442 0)
  (0.0332109 0.00374906 0)
  (0.0337608 0.00195515 0)
  (-0.0311945 0.0153151 0)
  (0.24295 0.162778 0)
  (-0.153814 0.0485418 0)
  (-0.135109 0.0432056 0)
  (-0.164162 0.0375744 0)
  (-0.186371 0.0307543 0)
  (-0.203748 0.0231792 0)
  (-0.215842 0.0145869 0)
  (-0.221875 0.00462569 0)
  (-0.220594 -0.0069265 0)
  (-0.211575 -0.0195883 0)
  (-0.194851 -0.0321396 0)
  (-0.171085 -0.0434773 0)
  (-0.142533 -0.0538939 0)
  (-0.115176 -0.0651282 0)
  (-0.0963985 -0.0733272 0)
  (-0.0716651 -0.0545648 0)
  (-0.0344306 -0.0407274 0)
  (0.0920485 -0.0296612 0)
  (0.0435757 -0.0222863 0)
  (0.039709 -0.0158005 0)
  (0.0456891 -0.0110406 0)
  (0.0505553 -0.007849 0)
  (0.0540151 -0.00479471 0)
  (0.0559967 -0.00027667 0)
  (0.055879 0.00233498 0)
  (0.0552796 0.00330114 0)
  (0.0549706 0.00362364 0)
  (0.0548712 0.0037768 0)
  (0.0548075 0.00390808 0)
  (0.0547233 0.0041355 0)
  (0.054579 0.00471418 0)
  (0.0538785 0.00638652 0)
  (0.0504481 0.0114611 0)
  (0.0416219 0.0142079 0)
  (0.0440402 0.0122799 0)
  (-0.0676178 0.0349032 0)
  (0.409375 0.245432 0)
  (-0.184304 0.0824856 0)
  (-0.10374 0.0720204 0)
  (-0.134828 0.0599295 0)
  (-0.1547 0.0480486 0)
  (-0.170785 0.0353204 0)
  (-0.182529 0.0209624 0)
  (-0.188962 0.0044477 0)
  (-0.188363 -0.0142561 0)
  (-0.180111 -0.0343799 0)
  (-0.164796 -0.0537663 0)
  (-0.143877 -0.0701677 0)
  (-0.120162 -0.0826479 0)
  (-0.0975641 -0.0908133 0)
  (-0.0777291 -0.0911112 0)
  (-0.0558472 -0.0772179 0)
  (-0.0371193 -0.0686894 0)
  (0.0643689 -0.0482683 0)
  (0.0170023 -0.0301389 0)
  (0.0233614 -0.0198794 0)
  (0.0329775 -0.015652 0)
  (0.0399605 -0.0129865 0)
  (0.0452712 -0.0107043 0)
  (0.0489823 -0.00761593 0)
  (0.0485438 -0.00511101 0)
  (0.0483856 -0.00394676 0)
  (0.0494381 -0.00341435 0)
  (0.0509937 -0.00312273 0)
  (0.0526254 -0.00292791 0)
  (0.0543565 -0.00271334 0)
  (0.0565942 -0.00222566 0)
  (0.0602784 0.000255784 0)
  (0.059046 0.0159396 0)
  (0.0462585 0.0248753 0)
  (0.0544654 0.026916 0)
  (-0.0968479 0.0559881 0)
  (0.553307 0.31296 0)
  (-0.228211 0.115954 0)
  (-0.0688369 0.0972539 0)
  (-0.102813 0.0795032 0)
  (-0.118103 0.0645586 0)
  (-0.13121 0.0486453 0)
  (-0.141583 0.0301594 0)
  (-0.147867 0.0081414 0)
  (-0.147445 -0.0175429 0)
  (-0.139429 -0.0450754 0)
  (-0.125426 -0.0706598 0)
  (-0.107554 -0.0909013 0)
  (-0.0885701 -0.104213 0)
  (-0.0712128 -0.109795 0)
  (-0.0566494 -0.10646 0)
  (-0.0447775 -0.093962 0)
  (-0.0379439 -0.0713245 0)
  (-0.0215118 -0.00259992 0)
  (0.00994784 -0.0466196 0)
  (0.00966823 -0.0370346 0)
  (0.0165552 -0.0280903 0)
  (0.0240644 -0.0229478 0)
  (0.0299968 -0.0190615 0)
  (0.0344187 -0.0148243 0)
  (0.0409632 -0.0111994 0)
  (0.0515945 -0.00989314 0)
  (0.0615927 -0.00906743 0)
  (0.0704615 -0.00826832 0)
  (0.0780739 -0.00710897 0)
  (0.0836275 -0.00529028 0)
  (0.0857382 -0.00264582 0)
  (0.0823135 0.00118087 0)
  (0.0715431 0.0065931 0)
  (0.0581113 0.0254 0)
  (0.0436917 0.0400872 0)
  (0.0608305 0.0491925 0)
  (-0.130166 0.0759775 0)
  (0.672475 0.366952 0)
  (-0.273282 0.146714 0)
  (-0.0328876 0.112811 0)
  (-0.0679584 0.0925055 0)
  (-0.0773955 0.0762969 0)
  (-0.0858573 0.0586602 0)
  (-0.0933352 0.0373211 0)
  (-0.098189 0.0108497 0)
  (-0.096339 -0.0211393 0)
  (-0.0875976 -0.0554127 0)
  (-0.0751631 -0.0856825 0)
  (-0.0612376 -0.107807 0)
  (-0.047846 -0.120454 0)
  (-0.0366289 -0.123385 0)
  (-0.0281552 -0.117276 0)
  (-0.0222393 -0.104014 0)
  (-0.0169269 -0.0856146 0)
  (-0.00570594 -0.0591012 0)
  (0.00588111 -0.0540591 0)
  (0.00869969 -0.0434112 0)
  (0.0121328 -0.0344518 0)
  (0.0164522 -0.0284797 0)
  (0.0208016 -0.0240578 0)
  (0.0254739 -0.0199942 0)
  (0.031886 -0.0159933 0)
  (0.0399436 -0.0140447 0)
  (0.0479933 -0.0130851 0)
  (0.0557204 -0.0119321 0)
  (0.0629127 -0.00969243 0)
  (0.0689339 -0.00554258 0)
  (0.0728828 0.0011078 0)
  (0.0728615 0.00973556 0)
  (0.0684006 0.0203396 0)
  (0.0611156 0.0362525 0)
  (0.0494026 0.0531894 0)
  (0.0688925 0.0706582 0)
  (-0.0203843 0.0898201 0)
  (0.0452351 0.028235 0)
  (-0.0601506 -0.0327789 0)
  (-0.272395 -0.0558212 0)
  (0.753759 0.41369 0)
  (-0.312119 0.170574 0)
  (-0.00522163 0.111055 0)
  (-0.0288559 0.098251 0)
  (-0.0322423 0.0837717 0)
  (-0.0358327 0.065019 0)
  (-0.0393105 0.0418522 0)
  (-0.04116 0.0124044 0)
  (-0.0339256 -0.0254358 0)
  (-0.0238153 -0.0654408 0)
  (-0.0143088 -0.0979273 0)
  (-0.00618047 -0.119571 0)
  (-9.5103e-05 -0.130196 0)
  (0.00342604 -0.130276 0)
  (0.00457396 -0.121568 0)
  (0.00394806 -0.106281 0)
  (0.00301331 -0.0866694 0)
  (0.00490257 -0.065848 0)
  (0.00701727 -0.0545217 0)
  (0.00628764 -0.0445083 0)
  (0.00615679 -0.0366728 0)
  (0.00732093 -0.0313354 0)
  (0.00943445 -0.0275407 0)
  (0.0126074 -0.0244829 0)
  (0.0171083 -0.0221089 0)
  (0.0226958 -0.021088 0)
  (0.0287341 -0.0205955 0)
  (0.0350366 -0.0196247 0)
  (0.0415266 -0.0171914 0)
  (0.0479851 -0.0121166 0)
  (0.0539939 -0.0031819 0)
  (0.0585646 0.00915349 0)
  (0.0597848 0.0231672 0)
  (0.0599993 0.0394005 0)
  (0.0580088 0.0568441 0)
  (0.0777309 0.0774473 0)
  (0.0575831 0.0886052 0)
  (0.0937224 0.0642464 0)
  (0.115775 0.0436607 0)
  (-0.126596 -0.00551766 0)
  (0.788377 0.456142 0)
  (-0.329225 0.160546 0)
  (0.0164358 0.0648223 0)
  (0.0264244 0.0897258 0)
  (0.0259163 0.0908542 0)
  (0.0238206 0.0704653 0)
  (0.024282 0.0427458 0)
  (0.026937 0.00792234 0)
  (0.0421367 -0.0359758 0)
  (0.0510255 -0.0754794 0)
  (0.054565 -0.104769 0)
  (0.0542775 -0.12294 0)
  (0.0509816 -0.130498 0)
  (0.0452234 -0.128224 0)
  (0.0375922 -0.117833 0)
  (0.028892 -0.10169 0)
  (0.0203103 -0.082736 0)
  (0.0133866 -0.0643297 0)
  (0.00753682 -0.0511001 0)
  (0.00186748 -0.0415611 0)
  (-0.00203282 -0.0351893 0)
  (-0.00404922 -0.0313171 0)
  (-0.00469733 -0.0287887 0)
  (-0.00410683 -0.0270784 0)
  (-0.0023662 -0.0260958 0)
  (0.000319371 -0.025888 0)
  (0.00357991 -0.025948 0)
  (0.0073288 -0.0255445 0)
  (0.0117206 -0.023794 0)
  (0.017007 -0.0194391 0)
  (0.0234785 -0.0107483 0)
  (0.0336892 0.00373536 0)
  (0.0411645 0.0194117 0)
  (0.0484495 0.0349378 0)
  (0.0561699 0.0499166 0)
  (0.0770506 0.0665967 0)
  (0.0900806 0.0703605 0)
  (0.119504 0.0499736 0)
  (0.157935 0.0440662 0)
  (-0.0352039 0.0947839 0)
  (0.887729 0.466353 0)
  (-0.0975548 0.141315 0)
  (0.0946053 -0.0107998 0)
  (0.147914 0.0231336 0)
  (0.134416 0.0515055 0)
  (0.120337 0.042448 0)
  (0.118423 0.0160167 0)
  (0.124745 -0.0197369 0)
  (0.135853 -0.0525601 0)
  (0.13616 -0.0808396 0)
  (0.128192 -0.102206 0)
  (0.115457 -0.115598 0)
  (0.100199 -0.120341 0)
  (0.0835033 -0.116232 0)
  (0.0658562 -0.104835 0)
  (0.0480878 -0.0885801 0)
  (0.0314108 -0.0705561 0)
  (0.0167016 -0.053875 0)
  (0.00401409 -0.0415942 0)
  (-0.0060906 -0.0340749 0)
  (-0.0128133 -0.0304056 0)
  (-0.0176849 -0.0283517 0)
  (-0.0211256 -0.0271997 0)
  (-0.023468 -0.0266862 0)
  (-0.024968 -0.0267238 0)
  (-0.025902 -0.0271886 0)
  (-0.0265104 -0.0277691 0)
  (-0.0268593 -0.0280238 0)
  (-0.0268096 -0.0273764 0)
  (-0.0259852 -0.0250783 0)
  (-0.0236543 -0.0202317 0)
  (-0.0178395 -0.0118195 0)
  (-0.000635287 0.00145011 0)
  (0.011203 0.0146018 0)
  (0.0238681 0.022611 0)
  (0.0436762 0.0286093 0)
  (0.0609811 0.0194793 0)
  (0.0786132 -0.00605683 0)
  (0.137187 0.0413739 0)
  (-0.412148 0.207635 0)
  (1.02388 0.428205 0)
  (0.487894 0.28227 0)
  (0.498677 0.197896 0)
  (0.493503 0.1699 0)
  (0.420645 0.14693 0)
  (0.353923 0.110832 0)
  (0.315458 0.0690392 0)
  (0.293074 0.0271769 0)
  (0.263762 -0.0141543 0)
  (0.230047 -0.0486531 0)
  (0.196104 -0.0738331 0)
  (0.163971 -0.0898256 0)
  (0.134535 -0.0963416 0)
  (0.107085 -0.0930402 0)
  (0.0802995 -0.0823238 0)
  (0.0545553 -0.067203 0)
  (0.0313312 -0.0509939 0)
  (0.0110131 -0.0367031 0)
  (-0.00605337 -0.0272634 0)
  (-0.0172263 -0.0239447 0)
  (-0.0257867 -0.022791 0)
  (-0.0327738 -0.0223472 0)
  (-0.0386783 -0.0223078 0)
  (-0.0439142 -0.0225856 0)
  (-0.048806 -0.023125 0)
  (-0.0536723 -0.0237978 0)
  (-0.0588242 -0.0243351 0)
  (-0.0645536 -0.0243153 0)
  (-0.0711642 -0.0231291 0)
  (-0.0790528 -0.0199409 0)
  (-0.0887713 -0.0137272 0)
  (-0.10066 -0.00354623 0)
  (-0.113394 0.0106792 0)
  (-0.126057 0.0269445 0)
  (-0.148701 0.0447158 0)
  (-0.183736 0.0633427 0)
  (-0.233988 0.0795369 0)
  (-0.290065 0.0910653 0)
  (-0.357759 0.0976092 0)
  (-0.619242 0.0999312 0)
  (-0.476494 0.00884656 0)
  (0.172007 0.123453 0)
  (0.250913 0.130157 0)
  (0.24547 0.108049 0)
  (0.243087 0.0731365 0)
  (0.23785 0.0345851 0)
  (0.225518 0.000900176 0)
  (0.205659 -0.0253436 0)
  (0.180093 -0.0450365 0)
  (0.152406 -0.0597022 0)
  (0.125053 -0.0671378 0)
  (0.0978496 -0.0646161 0)
  (0.0690342 -0.0550211 0)
  (0.0404134 -0.041748 0)
  (0.0154433 -0.0282033 0)
  (-0.00637398 -0.0172287 0)
  (-0.0200669 -0.014043 0)
  (-0.0301267 -0.0142211 0)
  (-0.0388124 -0.0147812 0)
  (-0.0466804 -0.0152107 0)
  (-0.0541067 -0.0155475 0)
  (-0.0613633 -0.0158289 0)
  (-0.0686777 -0.0160259 0)
  (-0.0762481 -0.0160057 0)
  (-0.0842155 -0.0155098 0)
  (-0.0926232 -0.0141607 0)
  (-0.101376 -0.0114926 0)
  (-0.110213 -0.00699954 0)
  (-0.118654 -0.00016431 0)
  (-0.125684 0.00953133 0)
  (-0.130358 0.0229749 0)
  (-0.133594 0.0407825 0)
  (-0.136854 0.0612643 0)
  (-0.140999 0.0803662 0)
  (-0.142916 0.0886702 0)
  (-0.125502 0.0661329 0)
  (-0.082195 -0.0267768 0)
  (-0.279344 -0.203686 0)
  (-0.215336 0.186524 0)
  (0.108295 0.116524 0)
  (0.0830178 0.0873903 0)
  (0.102686 0.0817256 0)
  (0.127412 0.0619958 0)
  (0.142035 0.0343203 0)
  (0.144948 0.0106868 0)
  (0.139524 -0.00703299 0)
  (0.12549 -0.0216406 0)
  (0.105707 -0.0354799 0)
  (0.0821134 -0.0428314 0)
  (0.0580684 -0.0392278 0)
  (0.0321527 -0.0308432 0)
  (0.00620076 -0.0214625 0)
  (-0.013033 -0.0161874 0)
  (-0.0240659 -0.0167664 0)
  (-0.0322809 -0.0194714 0)
  (-0.0397818 -0.0213222 0)
  (-0.0470757 -0.0220958 0)
  (-0.0542918 -0.0223263 0)
  (-0.0615227 -0.0222975 0)
  (-0.0688151 -0.0221198 0)
  (-0.0762015 -0.0218268 0)
  (-0.0836758 -0.021379 0)
  (-0.0911475 -0.0206414 0)
  (-0.0983957 -0.0193609 0)
  (-0.105022 -0.017148 0)
  (-0.110389 -0.013448 0)
  (-0.113557 -0.00743902 0)
  (-0.113486 0.00180133 0)
  (-0.108848 0.0145699 0)
  (-0.0983516 0.0315288 0)
  (-0.0818325 0.0517738 0)
  (-0.0603453 0.0707168 0)
  (-0.0369814 0.0814925 0)
  (0.00293325 0.0661903 0)
  (0.142452 -0.00434309 0)
  (-0.207519 -0.115131 0)
  (0.901503 0.0644943 0)
  (-0.34805 -0.42616 0)
  (-0.331672 0.0873276 0)
  (-0.146603 0.0247517 0)
  (-0.10626 0.0262456 0)
  (-0.0438854 0.0401785 0)
  (0.021355 0.032521 0)
  (0.0549411 0.0137993 0)
  (0.0749143 -0.00187541 0)
  (0.0805012 -0.0142949 0)
  (0.0733758 -0.0253329 0)
  (0.0537674 -0.0367612 0)
  (0.0167138 -0.0287448 0)
  (-0.0190178 0.00847665 0)
  (-0.0310835 0.0257047 0)
  (-0.0393932 0.0376004 0)
  (-0.04215 0.0467739 0)
  (-0.042578 0.0534895 0)
  (-0.0434096 0.0567602 0)
  (-0.0455998 0.0566609 0)
  (-0.04908 0.0548754 0)
  (-0.0534716 0.0524901 0)
  (-0.0584768 0.0499262 0)
  (-0.0639023 0.0473267 0)
  (-0.0696158 0.0447699 0)
  (-0.0754919 0.042329 0)
  (-0.0813573 0.0400799 0)
  (-0.0869422 0.0380905 0)
  (-0.091825 0.0364041 0)
  (-0.0953136 0.0350258 0)
  (-0.0962088 0.0339503 0)
  (-0.0924574 0.033791 0)
  (-0.0811714 0.0363397 0)
  (-0.0606005 0.0425317 0)
  (-0.0316645 0.0526866 0)
  (0.0168678 0.0663243 0)
  (0.0606155 0.0673092 0)
  (0.102921 0.0526552 0)
  (0.163867 0.0233423 0)
  (-0.215621 -0.0324329 0)
)
;

boundaryField
{
  floor
  {
    type noSlip;
  }
  ceiling
  {
    type noSlip;
  }
  sWall
  {
    type noSlip;
  }
  nWall
  {
    type noSlip;
  }
  sideWalls
  {
    type empty;
  }
  glass1
  {
    type noSlip;
  }
  glass2
  {
    type noSlip;
  }
  sun
  {
    type noSlip;
  }
  heatsource1
  {
    type noSlip;
  }
  heatsource2
  {
    type noSlip;
  }
  Table_master
  {
    type noSlip;
  }
  Table_slave
  {
    type noSlip;
  }
  inlet
  {
    type fixedValue;
    value uniform (0.212132 -0.212132 0);
  }
  outlet
  {
    type zeroGradient;
  }
} 	// ************************************************************************* //

