/*--------------------------------*- C++ -*----------------------------------*\
  =========                 |
  \\      /  F ield         | OpenFOAM: The Open Source CFD Toolbox
   \\    /   O peration     | Website:  https://openfoam.org
    \\  /    A nd           | Version:  6
     \\/     M anipulation  |
\*---------------------------------------------------------------------------*/
FoamFile
{
    version     2.0;
    format      ascii;
    class       surfaceScalarField;
    location    "200";
    object      phi;
}
// * * * * * * * * * * * * * * * * * * * * * * * * * * * * * * * * * * * * * //

dimensions      [1 0 -1 0 0 0 0];

internalField   nonuniform List<scalar> 
852
(
0.00435001
-0.00432113
0.00854817
-0.00419804
0.0108302
-0.00228186
0.012015
-0.00118468
0.012709
-0.000693922
0.0130797
-0.000370601
0.0131642
-8.43306e-05
0.0129916
0.000172671
0.0125766
0.000415188
0.0119092
0.000667521
0.0109555
0.000953792
0.00964588
0.00130973
0.00782862
0.00181738
0.0050808
0.00274793
0.00507984
-0.000367842
0.000368936
-0.000390779
2.29355e-05
-0.000336869
-5.39128e-05
-0.000313227
-2.36473e-05
-0.000318793
5.56028e-06
-0.000302835
-1.59632e-05
-0.000183683
-0.000119157
-9.67666e-06
-0.000174007
0.00012689
-0.000136563
0.000225965
-9.90669e-05
0.000297333
-7.13587e-05
0.000346946
-4.96015e-05
0.000364536
-1.75784e-05
0.000344655
1.9893e-05
0.000295841
4.88188e-05
0.000235562
6.0277e-05
0.000233874
1.68687e-06
0.000249781
-1.58905e-05
0.000250693
0.0049893
-0.00922868
0.00753706
-0.00674567
0.00889017
-0.00363484
0.00971336
-0.00200773
0.0102401
-0.00122057
0.0105411
-0.000671481
0.0106421
-0.000185181
0.0105415
0.000273439
0.0102324
0.000724355
0.00970277
0.00119731
0.0089385
0.00171819
0.00793521
0.00231313
0.00673696
0.00301575
0.00564971
0.0038353
0.00603731
0.00469236
0.00239208
0.0036453
0.00239214
0.00037177
7.94051e-10
0.000259136
0.000135569
6.44797e-05
0.000140753
-3.29087e-05
7.37582e-05
-5.94741e-05
3.21367e-05
-0.000158661
8.32314e-05
-0.000129042
-0.000148768
-8.94518e-05
-0.000213581
-6.97268e-05
-0.00015626
-6.52871e-05
-0.000103475
-7.94977e-05
-5.71171e-05
-0.000115033
-1.40367e-05
-0.000158928
2.63493e-05
-0.000192776
5.37705e-05
-0.000198664
5.47351e-05
-0.00015711
1.87527e-05
-0.000188447
3.30577e-05
-0.000240978
3.66748e-05
1.2076e-05
0.00364739
-0.0127439
0.00520347
-0.00830162
0.00598049
-0.00441172
0.00652124
-0.00254835
0.00691741
-0.00161661
0.00717815
-0.000932085
0.00733219
-0.000339091
0.00736706
0.000238696
0.00725322
0.000838328
0.00696745
0.0014832
0.00650188
0.00218389
0.0058728
0.00294234
0.00514184
0.00374684
0.00441195
0.0045653
0.00369005
0.00541438
0.00215187
0.00518359
0.00454413
-0.000264164
0.000267244
-0.000264923
0.000136353
-0.00023311
0.000108972
-0.000202373
4.30616e-05
-0.000156182
-1.39945e-05
2.04369e-05
-9.33179e-05
-0.000128153
-0.000341541
-0.000497585
-0.000600836
-0.000657735
-0.000671559
-0.000645
-0.000591016
-0.000536065
-0.000319714
-0.000197531
-0.000161672
-0.000124923
-7.57468e-05
-4.91951e-05
-6.20169e-05
0.0021801
-0.0147424
0.00301326
-0.00913464
0.00347511
-0.00487343
0.00370221
-0.00277532
0.00392621
-0.00184047
0.00412299
-0.00112872
0.00429843
-0.000514401
0.00441681
0.000120448
0.00443234
0.000822929
0.00432015
0.00159553
0.00406852
0.00243565
0.00368122
0.00332976
0.00317343
0.00425476
0.00255733
0.00518153
0.00189233
0.00607949
0.00110312
0.00597292
0.000491152
0.00515621
-0.00108639
0.00157515
-0.0010186
0.000199518
-0.00108157
0.000199385
-0.00115957
0.000187042
-0.0012603
0.000143865
-0.0013538
7.95828e-05
-0.00146384
1.67974e-05
-0.00145759
-6.31051e-06
-0.00142413
-3.35189e-05
-0.00136726
-5.6935e-05
-0.00129323
-7.40845e-05
-0.00120536
-8.79201e-05
-0.00110335
-0.000102053
-0.000981888
-0.000121515
-0.000827803
-0.000154134
-0.000615565
-0.000212289
-0.000501158
-0.000311845
-0.000263783
-0.000362207
4.08493e-05
-0.000353741
-2.06714e-05
0.000977271
-0.015489
0.00134678
-0.00950401
0.0015267
-0.0050532
0.00132288
-0.00257136
0.00141454
-0.001932
0.00159643
-0.00131047
0.001788
-0.00070584
0.00192826
-1.968e-05
0.00198409
0.000767239
0.00194727
0.00163248
0.00180684
0.0025762
0.00155853
0.0035782
0.00120116
0.00461224
0.000751703
0.00563111
0.000307702
0.00652362
-0.000192534
0.00647327
-0.000498538
0.00546231
-0.000867218
0.00194386
-0.00122286
0.00055523
-0.00134114
0.00031773
-0.00140341
0.000249393
-0.00144627
0.000186804
-0.00147931
0.000112703
-0.0015041
4.16718e-05
-0.00149634
-1.39807e-05
-0.001471
-5.87643e-05
-0.00143493
-9.29087e-05
-0.00139058
-0.000118343
-0.0013395
-0.000138896
-0.00128118
-0.000160281
-0.00121144
-0.000191147
-0.00112134
-0.000244141
-0.00100072
-0.0003328
-0.000855878
-0.000456593
-0.000612699
-0.000605291
-0.000196787
-0.000769559
0.00062397
-0.000841335
0.0012022
-0.000578329
0.00066035
0.000541774
0.000684692
-9.29287e-06
-0.0152004
3.08076e-05
-0.00954396
-0.000200559
-0.00482169
-0.00071482
-0.00205696
-0.000693034
-0.00195364
-0.00054337
-0.00146
-0.00039805
-0.000851023
-0.000295222
-0.000122372
-0.000242805
0.000714959
-0.000247563
0.00163737
-0.000311315
0.00264009
-0.000439298
0.00370631
-0.00063256
0.00480563
-0.000867182
0.00586586
-0.00104285
0.0066994
-0.00119011
0.00662064
-0.00107619
0.00534846
-0.00112334
0.00199104
-0.00129285
0.000724815
-0.00137586
0.000400807
-0.00140173
0.00027535
-0.00140159
0.00018674
-0.00139232
0.000103517
-0.00137898
2.84195e-05
-0.00136021
-3.26538e-05
-0.00133972
-7.91709e-05
-0.00132071
-0.000111823
-0.0013055
-0.000133459
-0.00129642
-0.000147882
-0.00129542
-0.000161183
-0.00130274
-0.000183725
-0.0013154
-0.000231384
-0.00132585
-0.000322255
-0.00131359
-0.000468755
-0.00123768
-0.000681102
-0.00103741
-0.000969738
-0.000558847
-0.00131981
0.000408186
-0.00154527
0.00127513
-0.000325061
0.00198607
-0.000979753
-0.0138937
-0.0016545
-0.00886906
-0.00222802
-0.00424803
-0.00282476
-0.00146009
-0.00284579
-0.00193247
-0.00271888
-0.00158677
-0.00257899
-0.000990776
-0.00246796
-0.000233268
-0.00238543
0.000632566
-0.00232329
0.00157537
-0.00227345
0.00259037
-0.0022348
0.00366779
-0.00220277
0.00477373
-0.00215219
0.0058154
-0.00201155
0.00655887
-0.00179675
0.00640593
-0.00139258
0.00494435
-0.00128172
0.00188022
-0.00129504
0.000738213
-0.00128601
0.000391861
-0.00124684
0.00023627
-0.00119163
0.000131612
-0.00113467
4.66511e-05
-0.0010849
-2.12623e-05
-0.00104717
-7.02971e-05
-0.00102318
-0.000103066
-0.00101215
-0.000122767
-0.00101495
-0.000130562
-0.00103553
-0.000127212
-0.00108132
-0.000115293
-0.00116275
-0.000102198
-0.00129038
-0.000103665
-0.00146832
-0.000144215
-0.00168614
-0.000250838
-0.00191814
-0.000449009
-0.00212813
-0.000759652
-0.00225559
-0.00119226
-0.00215913
-0.00164165
-0.000959703
-0.00152442
0.00105709
-0.00360204
-0.00992045
-0.00562572
-0.00684523
-0.00563673
-0.00423688
-0.00567225
-0.00142443
-0.0052342
-0.00237038
-0.00488027
-0.00194055
-0.00464912
-0.00122179
-0.00448129
-0.000400959
-0.00433238
0.000483789
-0.00417054
0.00141365
-0.00396883
0.00238879
-0.0037142
0.00341329
-0.00339806
0.00445771
-0.00300717
0.00542462
-0.00251926
0.00607106
-0.00198447
0.00587122
-0.00141426
0.00437419
-0.00119203
0.00165805
-0.00110078
0.000647044
-0.00100812
0.000299292
-0.000893477
0.000121724
-0.000769531
7.76428e-06
-0.000658982
-6.37998e-05
-0.0005793
-0.000100851
-0.000530186
-0.00011932
-0.000504257
-0.000128904
-0.000495488
-0.000131447
-0.000500785
-0.000125175
-0.000521018
-0.000106889
-0.000562409
-7.38112e-05
-0.000638872
-2.56425e-05
-0.000777639
3.51952e-05
-0.00102031
9.85524e-05
-0.00140799
0.000136936
-0.00195543
9.85214e-05
-0.00266283
-5.21607e-05
-0.00359175
-0.000263254
-0.00473421
-0.0004991
-0.00477168
-0.00148686
-0.00359279
-0.00952819
-0.0163872
-0.0114844
-0.00913957
-0.00801834
-0.00489034
-0.00691688
-0.00347171
-0.0064406
-0.0024167
-0.00622817
-0.00143408
-0.00608935
-0.000539647
-0.00591661
0.000311177
-0.00565406
0.00115123
-0.00528077
0.00201563
-0.00477963
0.00291228
-0.0041443
0.0038225
-0.00338309
0.00466352
-0.00253078
0.00521884
-0.00170094
0.00504146
-0.00100027
0.00367358
-0.000689233
0.00134709
-0.000537751
0.000495655
-0.000384358
0.000146002
-0.000200265
-6.22598e-05
-3.63479e-05
-0.000156044
7.6584e-05
-0.00017663
0.000144274
-0.000168443
0.000180397
-0.000155351
0.000195476
-0.000143893
0.000197119
-0.000133002
0.000190922
-0.000118892
0.000181177
-9.70573e-05
0.000171013
-6.35596e-05
0.000162217
-1.6759e-05
0.000156332
4.11679e-05
0.000156761
9.82126e-05
0.000163569
0.000130219
0.00016825
9.39301e-05
0.000157759
-4.15799e-05
0.000143798
-0.000249204
0.000170591
-0.000525806
1.68697e-05
-0.00133306
-0.00344284
-0.0092818
6.49019e-05
-0.0073514
-0.0068206
-0.00705278
-0.0037702
-0.00713694
-0.00233242
-0.00719892
-0.00137197
-0.00715628
-0.000582153
-0.00698002
0.000135044
-0.00665492
0.000826249
-0.00613526
0.00149609
-0.00539979
0.00217692
-0.00444814
0.00287096
-0.003312
0.00352748
-0.00207447
0.0039814
-0.000909533
0.00387659
0.00012147
0.00264263
0.000488001
0.000980647
0.000655685
0.00032807
0.000804902
-3.10868e-06
0.000920834
-0.000178083
0.000982354
-0.000217456
0.00100856
-0.000202733
0.00101642
-0.000176203
0.00101411
-0.00015295
0.00100563
-0.000135316
0.0009934
-0.000120686
0.000979939
-0.000105345
0.0009689
-8.59347e-05
0.000965403
-5.99798e-05
0.000975144
-2.6418e-05
0.00100831
8.08093e-06
0.00107383
3.27766e-05
0.00117256
3.15798e-05
0.00129275
-2.61818e-05
0.0014147
-0.000163439
0.00153945
-0.000373875
0.00165843
-0.000644699
0.0014723
-0.00114684
-0.00194205
-0.00035382
0.000394266
-0.00417767
-0.00299663
-0.00604777
-0.00189997
-0.00714673
-0.00123333
-0.00776269
-0.000755878
-0.0079865
-0.000358223
-0.00786139
1.00596e-05
-0.0074606
0.00042558
-0.00678064
0.000816257
-0.00580445
0.00120084
-0.0045269
0.00159353
-0.00298988
0.00199056
-0.00128125
0.00227287
0.000468868
0.00212655
0.00182412
0.00128746
0.00228358
0.000521282
0.00242765
0.000184097
0.00240853
1.61156e-05
0.0022786
-4.80507e-05
0.00214288
-8.16359e-05
0.00203493
-9.46779e-05
0.00195687
-9.80425e-05
0.001901
-9.69863e-05
0.00185835
-9.25692e-05
0.0018225
-8.47484e-05
0.00179092
-7.36799e-05
0.00176496
-5.98932e-05
0.00174933
-4.42709e-05
0.00175138
-2.83893e-05
0.00177453
-1.50003e-05
0.00181679
-9.40147e-06
0.0018743
-2.58513e-05
0.0019261
-7.79043e-05
0.001935
-0.000172262
0.00188435
-0.000323137
0.00177846
-0.000538736
0.00153879
-0.000907078
-0.000372235
0.00489845
-0.000677542
-0.00032838
-0.00338266
-0.00533968
-0.00663044
-0.0074436
-0.00785892
-0.00790573
-0.00753669
-0.0067767
-0.00563178
-0.00409378
-0.00215828
6.00983e-05
0.00213431
0.00337098
0.00384244
0.00397803
0.00394734
0.00385483
0.00373108
0.00359616
0.00345918
0.00332412
0.00319401
0.00307206
0.00296144
0.00286484
0.00278411
0.00271953
0.00266864
0.00262364
0.00256242
0.0024493
0.00224186
0.00188336
0.00130875
0.000365941
)
;

boundaryField
{
    floor
    {
        type            calculated;
        value           nonuniform List<scalar> 
29
(
0
0
0
0
0
0
0
0
0
0
0
0
0
0
0
0
0
0
0
0
-8.85483e-07
-2.32823e-06
-1.60225e-06
-4.24957e-07
1.07562e-06
-1.09422e-06
-2.83824e-06
-3.05729e-06
2.40093e-06
)
;
    }
    ceiling
    {
        type            calculated;
        value           nonuniform List<scalar> 
43
(
8.92535e-05
8.35517e-05
4.52955e-05
5.77795e-05
5.71841e-05
5.75497e-05
5.74159e-05
5.7222e-05
5.69913e-05
5.66655e-05
5.63807e-05
5.6046e-05
5.56402e-05
5.51614e-05
5.45923e-05
5.24336e-05
5.08932e-05
4.99244e-05
4.86024e-05
4.69104e-05
4.45584e-05
4.22156e-05
4.03442e-05
3.90284e-05
3.81718e-05
3.76336e-05
3.72848e-05
3.70255e-05
3.67878e-05
3.65346e-05
3.6255e-05
3.59594e-05
3.56742e-05
3.54356e-05
3.52811e-05
3.52555e-05
3.54374e-05
3.59438e-05
3.58129e-05
3.77967e-05
1.6627e-05
1.39504e-05
2.46098e-05
)
;
    }
    sWall
    {
        type            calculated;
        value           uniform -0.000124426;
    }
    nWall
    {
        type            calculated;
        value           nonuniform List<scalar> 6(-2.43544e-05 -2.6178e-05 -3.06466e-05 -2.84064e-05 -3.09494e-05 -4.40179e-05);
    }
    sideWalls
    {
        type            empty;
        value           nonuniform 0();
    }
    glass1
    {
        type            calculated;
        value           nonuniform List<scalar> 9(-2.87575e-05 -8.1626e-05 -0.000132038 -0.000181488 -0.000230512 -0.000279226 -0.000326728 -0.000371116 -0.000408739);
    }
    glass2
    {
        type            calculated;
        value           nonuniform List<scalar> 2(-0.000121712 -0.000132999);
    }
    sun
    {
        type            calculated;
        value           uniform 0;
    }
    heatsource1
    {
        type            calculated;
        value           nonuniform List<scalar> 3(2.01435e-07 2.01553e-07 2.01903e-07);
    }
    heatsource2
    {
        type            calculated;
        value           nonuniform List<scalar> 4(4.92941e-08 4.97102e-08 0 0);
    }
    Table_master
    {
        type            calculated;
        value           nonuniform List<scalar> 9(-1.52202e-07 -1.5214e-07 -1.52052e-07 -1.51973e-07 -1.51911e-07 -1.51865e-07 -1.51823e-07 -1.51781e-07 -1.5171e-07);
    }
    Table_slave
    {
        type            calculated;
        value           nonuniform List<scalar> 9(1.51297e-07 1.51287e-07 1.51285e-07 1.51291e-07 1.51302e-07 1.51317e-07 1.51334e-07 1.51357e-07 1.51359e-07);
    }
    inlet
    {
        type            calculated;
        value           uniform 7.75031e-05;
    }
    outlet
    {
        type            calculated;
        value           nonuniform List<scalar> 2(-0.00486301 0.00549274);
    }
}


// ************************************************************************* //
