/*--------------------------------*- C++ -*----------------------------------*\
  =========                 |
  \\      /  F ield         | OpenFOAM: The Open Source CFD Toolbox
   \\    /   O peration     | Website:  https://openfoam.org
    \\  /    A nd           | Version:  6
     \\/     M anipulation  |
\*---------------------------------------------------------------------------*/
FoamFile
{
    version     2.0;
    format      ascii;
    class       volScalarField;
    location    "1200";
    object      T;
}
// * * * * * * * * * * * * * * * * * * * * * * * * * * * * * * * * * * * * * //

dimensions      [0 0 0 1 0 0 0];

internalField   nonuniform List<scalar> 
459
(
303.462
303.196
303.185
303.182
303.18
303.177
303.173
303.169
303.163
303.154
303.142
303.13
303.118
303.108
303.104
303.14
303.123
303.118
303.117
303.118
303.118
303.118
303.118
303.119
303.119
303.119
303.119
303.119
303.119
303.118
303.118
303.117
303.117
303.129
303.646
303.239
303.218
303.222
303.228
303.231
303.232
303.229
303.221
303.204
303.18
303.154
303.128
303.108
303.093
303.083
303.071
303.138
303.118
303.112
303.111
303.11
303.109
303.107
303.104
303.102
303.099
303.096
303.093
303.091
303.088
303.086
303.086
303.087
303.088
303.112
303.836
303.29
303.252
303.264
303.281
303.294
303.304
303.306
303.297
303.271
303.231
303.186
303.146
303.116
303.097
303.088
303.082
303.107
303.108
303.11
303.114
303.116
303.117
303.113
303.109
303.105
303.101
303.097
303.093
303.09
303.086
303.082
303.081
303.079
303.08
303.105
304.025
303.351
303.285
303.302
303.331
303.359
303.383
303.396
303.387
303.347
303.286
303.217
303.159
303.12
303.097
303.09
303.089
303.095
303.1
303.109
303.118
303.125
303.131
303.135
303.138
303.141
303.143
303.145
303.147
303.147
303.147
303.146
303.144
303.121
303.1
303.086
303.104
304.208
303.429
303.322
303.332
303.368
303.41
303.452
303.482
303.471
303.414
303.329
303.237
303.164
303.117
303.094
303.088
303.091
303.099
303.11
303.123
303.135
303.146
303.154
303.16
303.165
303.17
303.173
303.176
303.177
303.176
303.172
303.167
303.16
303.143
303.118
303.096
303.1
303.161
303.199
303.208
304.37
303.53
303.388
303.371
303.4
303.444
303.502
303.548
303.526
303.448
303.342
303.238
303.156
303.105
303.084
303.083
303.094
303.109
303.127
303.144
303.16
303.172
303.181
303.187
303.193
303.197
303.2
303.202
303.201
303.198
303.192
303.184
303.174
303.158
303.135
303.111
303.103
303.126
303.138
303.172
304.514
303.692
303.546
303.497
303.496
303.524
303.579
303.598
303.547
303.441
303.314
303.2
303.119
303.077
303.067
303.079
303.102
303.128
303.153
303.173
303.189
303.201
303.209
303.215
303.219
303.222
303.224
303.224
303.223
303.218
303.21
303.199
303.186
303.17
303.15
303.128
303.115
303.12
303.127
303.155
304.73
304.114
303.952
303.837
303.767
303.739
303.724
303.652
303.519
303.36
303.213
303.105
303.047
303.032
303.049
303.083
303.123
303.159
303.188
303.207
303.219
303.228
303.234
303.239
303.242
303.244
303.244
303.243
303.24
303.236
303.228
303.217
303.204
303.19
303.175
303.16
303.154
303.166
303.184
303.314
305.036
304.752
304.489
304.257
304.074
303.928
303.768
303.531
303.288
303.096
302.981
302.937
302.948
302.994
303.054
303.114
303.169
303.201
303.222
303.236
303.245
303.251
303.256
303.259
303.261
303.262
303.262
303.261
303.26
303.258
303.257
303.258
303.262
303.27
303.286
303.31
303.343
303.376
303.399
303.453
296.938
299.486
300.901
301.449
301.695
301.933
302.165
302.387
302.592
302.767
302.911
303.034
303.129
303.185
303.219
303.238
303.251
303.259
303.265
303.27
303.273
303.276
303.278
303.28
303.282
303.284
303.286
303.288
303.291
303.294
303.3
303.309
303.324
303.344
303.367
303.389
303.404
303.421
297.56
299.631
300.701
301.328
301.731
302.05
302.333
302.596
302.821
302.978
303.089
303.164
303.21
303.238
303.254
303.265
303.272
303.277
303.281
303.284
303.287
303.29
303.293
303.295
303.298
303.3
303.303
303.305
303.308
303.312
303.316
303.324
303.334
303.348
303.363
303.38
303.375
303.403
301.458
299.755
299.587
301.193
301.906
302.299
302.578
302.787
302.934
303.044
303.123
303.177
303.215
303.239
303.255
303.264
303.271
303.275
303.279
303.282
303.285
303.288
303.291
303.294
303.297
303.3
303.303
303.305
303.308
303.311
303.313
303.316
303.32
303.325
303.331
303.342
303.351
303.356
303.356
303.393
)
;

boundaryField
{
    floor
    {
        type            wallHeatTransfer;
        Tinf            uniform 305.2;
        alphaWall       uniform 0.24;
        value           nonuniform List<scalar> 
29
(
303.312
303.552
303.487
303.461
303.467
303.478
303.491
303.506
303.523
303.539
303.554
303.569
303.583
303.597
303.61
303.623
303.636
303.651
303.658
303.692
303.692
303.58
303.527
303.497
303.312
303.552
303.513
303.344
303.287
)
;
    }
    ceiling
    {
        type            wallHeatTransfer;
        Tinf            uniform 303.2;
        alphaWall       uniform 0.24;
        value           nonuniform List<scalar> 
43
(
301.573
299.981
299.82
301.317
301.99
302.361
302.623
302.819
302.956
303.057
303.13
303.179
303.213
303.234
303.246
303.253
303.258
303.261
303.264
303.267
303.27
303.273
303.276
303.279
303.281
303.284
303.287
303.29
303.293
303.296
303.299
303.302
303.306
303.311
303.317
303.328
303.336
303.34
303.34
303.372
304.951
304.69
297.91
)
;
    }
    sWall
    {
        type            wallHeatTransfer;
        Tinf            uniform 315.2;
        alphaWall       uniform 0.36;
        value           uniform 302.775;
    }
    nWall
    {
        type            wallHeatTransfer;
        Tinf            uniform 307.2;
        alphaWall       uniform 0.36;
        value           nonuniform List<scalar> 6(303.944 303.893 303.817 303.964 303.943 303.999);
    }
    sideWalls
    {
        type            empty;
    }
    glass1
    {
        type            wallHeatTransfer;
        Tinf            uniform 315.2;
        alphaWall       uniform 4.3;
        value           nonuniform List<scalar> 9(311.628 310.963 310.539 310.213 309.942 309.698 309.51 309.575 309.797);
    }
    glass2
    {
        type            wallHeatTransfer;
        Tinf            uniform 307.2;
        alphaWall       uniform 4.3;
        value           nonuniform List<scalar> 2(305.709 305.814);
    }
    sun
    {
        type            wallHeatTransfer;
        Tinf            uniform 305.2;
        alphaWall       uniform 0.24;
        value           nonuniform List<scalar> 
14
(
303.655
303.405
303.393
303.384
303.376
303.368
303.361
303.353
303.344
303.333
303.323
303.313
303.308
303.307
)
;
    }
    heatsource1
    {
        type            fixedGradient;
        gradient        uniform 0;
    }
    heatsource2
    {
        type            fixedGradient;
        gradient        uniform 0;
    }
    Table_master
    {
        type            zeroGradient;
    }
    Table_slave
    {
        type            zeroGradient;
    }
    inlet
    {
        type            fixedValue;
        value           uniform 293.15;
    }
    outlet
    {
        type            zeroGradient;
    }
}


// ************************************************************************* //
