/*--------------------------------*- C++ -*----------------------------------*\
  =========                 |
  \\      /  F ield         | OpenFOAM: The Open Source CFD Toolbox
   \\    /   O peration     | Website:  https://openfoam.org
    \\  /    A nd           | Version:  6
     \\/     M anipulation  |
\*---------------------------------------------------------------------------*/
FoamFile
{
    version     2.0;
    format      ascii;
    class       volVectorField;
    location    "370";
    object      U;
}
// * * * * * * * * * * * * * * * * * * * * * * * * * * * * * * * * * * * * * //

dimensions      [0 1 -1 0 0 0 0];

internalField   nonuniform List<vector> 
459
(
(-0.118077 -0.114542 0)
(0.155138 -0.0516251 0)
(0.189985 -0.0366597 0)
(0.194037 -0.0262327 0)
(0.20296 -0.0165068 0)
(0.207919 -0.00982459 0)
(0.205514 -0.00536618 0)
(0.198687 -0.00211322 0)
(0.189588 0.000525144 0)
(0.178742 0.00289083 0)
(0.165817 0.00535327 0)
(0.149925 0.00847855 0)
(0.129209 0.013449 0)
(0.0974192 0.0243136 0)
(0.0929002 0.0537157 0)
(-0.119677 0.000112762 0)
(0.0414109 -0.00827489 0)
(0.0331003 -0.0122616 0)
(0.0419021 -0.0111239 0)
(0.0543073 -0.00788038 0)
(0.0626011 -0.00493365 0)
(0.0664011 -0.00331888 0)
(0.0679592 -0.00255513 0)
(0.0689566 -0.00211057 0)
(0.0698232 -0.00179161 0)
(0.0704653 -0.00152703 0)
(0.0707412 -0.00122908 0)
(0.0703766 -0.000744267 0)
(0.0688865 0.000162314 0)
(0.0653262 0.00197057 0)
(0.0580096 0.00548436 0)
(0.0491913 0.0100318 0)
(-0.0233805 0.0216073 0)
(0.141658 -0.00639419 0)
(-0.288738 -0.152586 0)
(0.163531 -0.0538468 0)
(0.135171 -0.0459995 0)
(0.137328 -0.0259824 0)
(0.147689 -0.007425 0)
(0.151838 0.00388815 0)
(0.149466 0.00994955 0)
(0.144143 0.01357 0)
(0.137548 0.0161475 0)
(0.130006 0.0184689 0)
(0.121423 0.0212827 0)
(0.111656 0.025483 0)
(0.10097 0.0323417 0)
(0.0888378 0.0441537 0)
(0.0917646 0.0675694 0)
(0.0828881 0.0600771 0)
(0.0506278 0.0514133 0)
(-0.161851 -0.00349415 0)
(0.0459309 -0.0308448 0)
(0.0378336 -0.028223 0)
(0.0461938 -0.0214746 0)
(0.055634 -0.0128443 0)
(0.0604814 -0.00531204 0)
(0.0615789 -0.00228074 0)
(0.0615665 -0.00102445 0)
(0.0617522 -0.000316976 0)
(0.0620957 0.000204351 0)
(0.0624004 0.000688113 0)
(0.0626222 0.00136377 0)
(0.0626898 0.00249472 0)
(0.0624334 0.00454804 0)
(0.0611827 0.00859215 0)
(0.0557296 0.0179847 0)
(0.0498258 0.0256554 0)
(-0.0207517 0.0362669 0)
(0.198031 0.0193824 0)
(-0.412477 -0.194436 0)
(0.187199 -0.0987911 0)
(0.0763498 -0.0796639 0)
(0.0822561 -0.0408898 0)
(0.0918126 -0.0146498 0)
(0.0925081 -5.89167e-05 0)
(0.0896418 0.00856497 0)
(0.0863624 0.0142057 0)
(0.0831408 0.0183353 0)
(0.0798348 0.0219639 0)
(0.076411 0.026029 0)
(0.0730178 0.0314457 0)
(0.070129 0.0391362 0)
(0.067039 0.0498338 0)
(0.0691711 0.0650249 0)
(0.0622992 0.0622292 0)
(0.0471385 0.0765264 0)
(-0.100338 -0.0247272 0)
(0.0434668 -0.047155 0)
(0.0527002 -0.0438806 0)
(0.056487 -0.0318017 0)
(0.0605762 -0.0179992 0)
(0.0606875 -0.00583634 0)
(0.0558947 -0.00581123 0)
(0.0526616 -0.00480148 0)
(0.0510028 -0.00431569 0)
(0.049957 -0.00405746 0)
(0.0491479 -0.00389837 0)
(0.0486434 -0.00366045 0)
(0.048931 -0.00301536 0)
(0.0509809 -0.00142741 0)
(0.0569008 0.00319619 0)
(0.0550629 0.0232003 0)
(0.0504301 0.0354476 0)
(-0.0211976 0.0461782 0)
(0.23012 0.0439351 0)
(-0.508297 -0.213086 0)
(0.206676 -0.130394 0)
(0.0077727 -0.0944118 0)
(0.0289028 -0.0382635 0)
(0.0346999 -0.00989937 0)
(0.0318662 0.00372829 0)
(0.0306435 0.0114845 0)
(0.0308557 0.0165334 0)
(0.0316658 0.0202318 0)
(0.0327433 0.0235557 0)
(0.0341567 0.0273242 0)
(0.0361935 0.0322231 0)
(0.0392453 0.0388719 0)
(0.0430609 0.0476714 0)
(0.0515439 0.0599195 0)
(0.0622445 0.0664628 0)
(0.0761633 0.0808761 0)
(0.104051 -0.0515595 0)
(0.0972396 -0.0456139 0)
(0.0890682 -0.0504248 0)
(0.0770698 -0.0456695 0)
(0.069102 -0.0330784 0)
(0.0660634 -0.0185272 0)
(0.0668113 -0.00417503 0)
(0.0690852 -0.00106716 0)
(0.0675823 -0.000723343 0)
(0.0639363 -0.000387279 0)
(0.059264 -2.64273e-05 0)
(0.0537645 0.000379226 0)
(0.0472049 0.000904722 0)
(0.0392453 0.00173012 0)
(0.0294876 0.00337077 0)
(0.00332716 0.00646289 0)
(0.0216916 0.033952 0)
(0.0355442 0.041581 0)
(-0.0253537 0.0480256 0)
(0.249029 0.0769317 0)
(-0.558852 -0.210022 0)
(0.188267 -0.141966 0)
(-0.0569493 -0.0967507 0)
(-0.0118661 -0.0307232 0)
(-0.0138189 -0.00581959 0)
(-0.0168403 0.00456434 0)
(-0.0160708 0.0105551 0)
(-0.0138426 0.0146851 0)
(-0.0107338 0.0178616 0)
(-0.00692939 0.0206822 0)
(-0.00231262 0.0237129 0)
(0.0037012 0.0276203 0)
(0.0111925 0.0327476 0)
(0.0205848 0.0394824 0)
(0.0346562 0.0483354 0)
(0.0524784 0.0530301 0)
(0.0748879 0.0514987 0)
(0.0939926 0.00607587 0)
(0.0923336 -0.0180055 0)
(0.0795684 -0.0311076 0)
(0.0667296 -0.0314513 0)
(0.0565911 -0.023568 0)
(0.0497723 -0.0130708 0)
(0.0460365 -0.00340654 0)
(0.0427006 0.00205527 0)
(0.0392346 0.00488551 0)
(0.034981 0.00668365 0)
(0.0301911 0.00814396 0)
(0.0247868 0.00966664 0)
(0.018408 0.0115768 0)
(0.0110534 0.0141049 0)
(0.00413291 0.017036 0)
(-0.00840123 0.0166992 0)
(0.002012 0.0211389 0)
(0.0255846 0.0304057 0)
(-0.00622245 0.0301054 0)
(0.125735 0.0706467 0)
(0.0885016 0.066324 0)
(-0.0896977 0.0615552 0)
(0.320049 -0.0175009 0)
(-0.595822 -0.18954 0)
(0.152475 -0.136609 0)
(-0.0849804 -0.0980163 0)
(-0.0400761 -0.030798 0)
(-0.044527 -0.00538588 0)
(-0.0474357 0.00401395 0)
(-0.047341 0.0085004 0)
(-0.0453658 0.0113759 0)
(-0.0418701 0.013537 0)
(-0.0370474 0.0153343 0)
(-0.0308922 0.0170965 0)
(-0.0231387 0.0192267 0)
(-0.0135462 0.0220688 0)
(-0.00138488 0.0258798 0)
(0.0149396 0.0303393 0)
(0.0333117 0.0301555 0)
(0.0538582 0.0218472 0)
(0.064388 -0.00203013 0)
(0.0627005 -0.018924 0)
(0.0529973 -0.0246871 0)
(0.041475 -0.0222122 0)
(0.0310966 -0.0150747 0)
(0.0230858 -0.00655529 0)
(0.017283 0.00121435 0)
(0.0137684 0.00624973 0)
(0.0108873 0.00878091 0)
(0.00760424 0.0105305 0)
(0.00380632 0.0123989 0)
(-0.000744232 0.0148268 0)
(-0.00557316 0.0175951 0)
(-0.00957075 0.0200334 0)
(-0.0115832 0.0205337 0)
(-0.0135885 0.0156255 0)
(-0.00823867 0.00866978 0)
(0.00463734 0.00919781 0)
(-0.0125054 -0.00298485 0)
(0.0386371 0.036165 0)
(0.0373077 0.0597868 0)
(-0.123486 0.0711526 0)
(0.320951 -0.0368723 0)
(-0.637903 -0.15382 0)
(0.120936 -0.120154 0)
(-0.106242 -0.104465 0)
(-0.0588246 -0.0318894 0)
(-0.0631467 -0.00380279 0)
(-0.0655917 0.00481708 0)
(-0.0663919 0.00752489 0)
(-0.0652913 0.00855268 0)
(-0.0623082 0.00902175 0)
(-0.0575763 0.00920228 0)
(-0.0511734 0.00930215 0)
(-0.0430862 0.00955599 0)
(-0.0332779 0.0101105 0)
(-0.0216197 0.0110416 0)
(-0.00774172 0.0122094 0)
(0.00874078 0.011128 0)
(0.0229104 0.00594649 0)
(0.0283946 -0.00466769 0)
(0.026712 -0.0127042 0)
(0.0191169 -0.0147507 0)
(0.00955921 -0.0118398 0)
(0.000661108 -0.00604541 0)
(-0.00625662 0.000308062 0)
(-0.0101474 0.00527796 0)
(-0.0120406 0.00867754 0)
(-0.0136224 0.0110551 0)
(-0.0154507 0.0132234 0)
(-0.0175248 0.0155546 0)
(-0.0195863 0.0180024 0)
(-0.0210568 0.0200572 0)
(-0.0211979 0.020839 0)
(-0.0196972 0.0188678 0)
(-0.0177859 0.0125172 0)
(-0.0148405 0.00511184 0)
(-0.0118369 0.00217955 0)
(-0.0171736 0.00174835 0)
(0.000964704 0.0298982 0)
(0.0110749 0.0745253 0)
(-0.164492 0.0828229 0)
(0.400075 -0.0445641 0)
(-0.68823 -0.0877337 0)
(0.0922188 -0.0867425 0)
(-0.130108 -0.127725 0)
(-0.0705893 -0.0458975 0)
(-0.0731915 -0.00415052 0)
(-0.0737065 0.00661714 0)
(-0.0749949 0.0079459 0)
(-0.0747058 0.00704132 0)
(-0.0725545 0.00563828 0)
(-0.0686484 0.00406043 0)
(-0.0631373 0.00252115 0)
(-0.0562278 0.0011865 0)
(-0.0481251 0.000216791 0)
(-0.0390221 -0.000239318 0)
(-0.0291115 -0.000157796 0)
(-0.0189416 -6.19711e-05 0)
(-0.0105825 -0.000997595 0)
(-0.00697958 -0.00423696 0)
(-0.00841593 -0.00682535 0)
(-0.0137954 -0.00626329 0)
(-0.0202453 -0.00328558 0)
(-0.025816 0.000654186 0)
(-0.0292687 0.00426321 0)
(-0.0307541 0.0072342 0)
(-0.0312889 0.00983539 0)
(-0.0314664 0.0122401 0)
(-0.031505 0.0145687 0)
(-0.0313271 0.0168093 0)
(-0.030683 0.0187287 0)
(-0.0292412 0.0198077 0)
(-0.0267269 0.0193062 0)
(-0.0232754 0.0163359 0)
(-0.0197703 0.0106145 0)
(-0.0165532 0.00451943 0)
(-0.0135971 0.00104986 0)
(-0.0108678 0.00213873 0)
(0.00376287 0.0230192 0)
(0.0347421 0.0704977 0)
(-0.13088 0.0651743 0)
(0.67898 -0.000303989 0)
(-0.761434 0.0934433 0)
(0.0491178 -0.0442264 0)
(-0.160879 -0.160087 0)
(-0.0568332 -0.0625112 0)
(-0.0658238 0.000767406 0)
(-0.0694726 0.0130954 0)
(-0.0712928 0.0122503 0)
(-0.0709523 0.00937399 0)
(-0.0692271 0.00635729 0)
(-0.0662288 0.00337196 0)
(-0.0622446 0.000653362 0)
(-0.0577407 -0.00157199 0)
(-0.0529082 -0.00313383 0)
(-0.0479115 -0.00379232 0)
(-0.0429442 -0.00342398 0)
(-0.0383199 -0.00233468 0)
(-0.0347138 -0.00123867 0)
(-0.0332092 -0.000794139 0)
(-0.0341974 -0.000140686 0)
(-0.0369353 0.00163078 0)
(-0.0399847 0.00402791 0)
(-0.0420432 0.00646301 0)
(-0.0428985 0.00864127 0)
(-0.0428546 0.0106817 0)
(-0.0421811 0.0127448 0)
(-0.0410372 0.0148139 0)
(-0.0394828 0.0167906 0)
(-0.0374835 0.0185172 0)
(-0.034954 0.0197219 0)
(-0.0318203 0.0199716 0)
(-0.0281136 0.0187197 0)
(-0.0241369 0.0154715 0)
(-0.0204909 0.010304 0)
(-0.0173802 0.00448803 0)
(-0.0143439 -0.000297014 0)
(-0.00950174 -0.00135743 0)
(0.00594802 0.0108713 0)
(0.0370263 0.0423904 0)
(-0.0948046 0.0337702 0)
(0.66948 0.0388275 0)
(-0.156722 -0.0948068 0)
(-0.0132947 -0.0402508 0)
(-0.0391377 0.0170209 0)
(-0.056393 0.0186145 0)
(-0.0562783 0.0123392 0)
(-0.0535318 0.0062573 0)
(-0.0510942 0.000748325 0)
(-0.0489545 -0.00481805 0)
(-0.0474283 -0.00904134 0)
(-0.0463686 -0.0120359 0)
(-0.0457017 -0.0137503 0)
(-0.0453142 -0.0137883 0)
(-0.0451242 -0.0120106 0)
(-0.0450857 -0.00891623 0)
(-0.04527 -0.00534127 0)
(-0.0458954 -0.00195116 0)
(-0.0469352 0.00132053 0)
(-0.048105 0.00467454 0)
(-0.0489931 0.00691447 0)
(-0.0492572 0.00873239 0)
(-0.0488863 0.0102634 0)
(-0.047941 0.011629 0)
(-0.0464444 0.0128992 0)
(-0.0443928 0.014036 0)
(-0.0417857 0.0149383 0)
(-0.0386353 0.0154611 0)
(-0.0349905 0.0153934 0)
(-0.0309792 0.0144361 0)
(-0.0268659 0.0122334 0)
(-0.0231094 0.00849484 0)
(-0.0203303 0.00323644 0)
(-0.0191063 -0.00326926 0)
(-0.0195954 -0.00943093 0)
(-0.0198358 -0.0118209 0)
(-0.0155009 -0.00318229 0)
(-0.0120213 0.0170147 0)
(-0.134693 0.0152657 0)
(0.393998 0.066895 0)
(-0.242385 -0.17829 0)
(-0.0459669 -0.129423 0)
(-0.0514383 -0.101872 0)
(-0.045947 -0.0974527 0)
(-0.0362436 -0.099303 0)
(-0.0296577 -0.0990003 0)
(-0.0260959 -0.0974843 0)
(-0.024939 -0.0956443 0)
(-0.0255741 -0.0940369 0)
(-0.0273064 -0.0926935 0)
(-0.0297721 -0.0921177 0)
(-0.0328696 -0.0925928 0)
(-0.0363512 -0.0933515 0)
(-0.0397686 -0.0941327 0)
(-0.0428514 -0.095031 0)
(-0.0456326 -0.0961579 0)
(-0.0480197 -0.097082 0)
(-0.0495905 -0.0962206 0)
(-0.0503042 -0.0949765 0)
(-0.0504283 -0.0940467 0)
(-0.050046 -0.0932634 0)
(-0.0491621 -0.0923874 0)
(-0.0477356 -0.0912647 0)
(-0.0457126 -0.0898577 0)
(-0.0430587 -0.0882186 0)
(-0.0397811 -0.0864894 0)
(-0.0359581 -0.0849401 0)
(-0.0317861 -0.0840023 0)
(-0.0276434 -0.0842282 0)
(-0.0241453 -0.0860768 0)
(-0.0220774 -0.0893508 0)
(-0.0222446 -0.0921046 0)
(-0.0250622 -0.0923532 0)
(-0.0288433 -0.0935883 0)
(-0.0320153 -0.0914067 0)
(-0.0467515 -0.0740355 0)
(-0.109143 -0.0621386 0)
(0.318124 -0.0411623 0)
(-0.979582 -0.0606855 0)
(0.277795 0.140619 0)
(-0.0134134 0.586829 0)
(0.024275 0.476139 0)
(0.0409055 0.407584 0)
(0.0415556 0.387227 0)
(0.0379362 0.381364 0)
(0.0330664 0.374534 0)
(0.027574 0.367617 0)
(0.0211651 0.36175 0)
(0.0138175 0.357245 0)
(0.00575808 0.353689 0)
(-0.00376719 0.34921 0)
(-0.0132986 0.345334 0)
(-0.0221033 0.343394 0)
(-0.0297707 0.343049 0)
(-0.0360001 0.343924 0)
(-0.0408426 0.345842 0)
(-0.0444718 0.34817 0)
(-0.0469323 0.348124 0)
(-0.04823 0.348182 0)
(-0.0485732 0.348882 0)
(-0.0481418 0.349868 0)
(-0.0470183 0.350881 0)
(-0.0452362 0.351767 0)
(-0.0428188 0.352426 0)
(-0.039821 0.352773 0)
(-0.036362 0.35273 0)
(-0.0326555 0.352268 0)
(-0.0290331 0.35145 0)
(-0.0259576 0.350486 0)
(-0.0240742 0.349713 0)
(-0.0242892 0.349237 0)
(-0.0271011 0.347078 0)
(-0.0305545 0.340644 0)
(-0.0314229 0.337906 0)
(-0.0356275 0.3378 0)
(-0.0704598 0.327861 0)
(-0.148549 0.334829 0)
(0.434988 0.383759 0)
)
;

boundaryField
{
    floor
    {
        type            noSlip;
    }
    ceiling
    {
        type            noSlip;
    }
    sWall
    {
        type            noSlip;
    }
    nWall
    {
        type            noSlip;
    }
    sideWalls
    {
        type            empty;
    }
    glass1
    {
        type            noSlip;
    }
    glass2
    {
        type            noSlip;
    }
    sun
    {
        type            noSlip;
    }
    heatsource1
    {
        type            noSlip;
    }
    heatsource2
    {
        type            noSlip;
    }
    Table_master
    {
        type            noSlip;
    }
    Table_slave
    {
        type            noSlip;
    }
    inlet
    {
        type            fixedValue;
        value           uniform (0.2 0 0);
    }
    outlet
    {
        type            zeroGradient;
    }
}


// ************************************************************************* //
