/*--------------------------------*- C++ -*----------------------------------*\
  =========                 |
  \\      /  F ield         | OpenFOAM: The Open Source CFD Toolbox
   \\    /   O peration     | Website:  https://openfoam.org
    \\  /    A nd           | Version:  6
     \\/     M anipulation  |
\*---------------------------------------------------------------------------*/
FoamFile
{
    version     2.0;
    format      ascii;
    class       volScalarField;
    location    "370";
    object      epsilon;
}
// * * * * * * * * * * * * * * * * * * * * * * * * * * * * * * * * * * * * * //

dimensions      [0 2 -3 0 0 0 0];

internalField   nonuniform List<scalar> 
459
(
0.00030542
0.000399894
0.00042653
0.000494054
0.000563625
0.000636111
0.000715636
0.000795362
0.000856298
0.000883766
0.000865169
0.000795688
0.000679771
0.000522188
0.000270386
7.49882e-05
0.000160958
0.000143548
0.000128868
0.000116304
0.000102881
8.55779e-05
6.98053e-05
5.71227e-05
4.71696e-05
3.93919e-05
3.32407e-05
2.82809e-05
2.4184e-05
2.06832e-05
1.75335e-05
1.47451e-05
1.17679e-05
1.65427e-05
0.000758993
0.00107653
0.000371452
0.000361807
0.000380427
0.000412268
0.000461032
0.000523311
0.000581831
0.000617668
0.000616134
0.000573125
0.00049638
0.000405012
0.000295769
0.000373775
0.000111488
0.000205467
0.000390204
0.000193593
0.00013656
0.000108227
9.11327e-05
8.56499e-05
6.98588e-05
5.56074e-05
4.42431e-05
3.54312e-05
2.86765e-05
2.34638e-05
1.94552e-05
1.66469e-05
1.53231e-05
1.95489e-05
2.33185e-05
3.28531e-05
0.00137334
0.00258573
0.000449286
0.000339735
0.000356117
0.000401851
0.000471541
0.000558181
0.000636701
0.000684647
0.000690064
0.000651899
0.000577704
0.000488188
0.000395031
0.000345614
0.000423089
0.000332026
0.000270063
0.000192101
0.000148423
0.000120135
0.000108011
0.000226627
0.000150481
0.000104384
7.55496e-05
5.68085e-05
4.42235e-05
3.55298e-05
2.94621e-05
2.54077e-05
2.01628e-05
2.17467e-05
3.26202e-05
4.36209e-05
0.00221098
0.0052996
0.000690316
0.000339953
0.000344659
0.000407227
0.000509587
0.000632406
0.000727333
0.000778135
0.000781964
0.000741079
0.00065953
0.000563664
0.000473617
0.000404841
0.000367388
0.000735621
0.000461931
0.000300666
0.000214995
0.000164345
0.000132868
0.00012236
0.000304164
0.000228256
0.000186237
0.000160674
0.000143084
0.000128511
0.000113514
9.95715e-05
8.47384e-05
5.1427e-05
3.66494e-05
5.57326e-05
6.2119e-05
0.00335805
0.0093976
0.00131938
0.000391078
0.000345805
0.000430075
0.000613335
0.000785192
0.00088131
0.000919162
0.000907831
0.000849075
0.00074886
0.00062671
0.000505918
0.000404808
0.000332912
0.000307305
0.000269512
0.00023145
0.000196242
0.000165994
0.000141808
0.000125128
0.000125165
0.000118578
0.000112315
0.0001066
0.00010065
9.35314e-05
8.45842e-05
7.48826e-05
6.55478e-05
5.39411e-05
4.32464e-05
5.80819e-05
6.47148e-05
8.88961e-05
8.32642e-05
7.1226e-05
0.00494794
0.0139749
0.00290869
0.000696711
0.000468362
0.000552151
0.000916772
0.00108179
0.0011345
0.00113275
0.00109177
0.00100482
0.000870165
0.000706828
0.000545553
0.000413705
0.000325709
0.000279702
0.000251795
0.000227553
0.000203946
0.000181536
0.00016187
0.000146713
0.000138971
0.000135989
0.000134581
0.000132151
0.000127407
0.000119813
0.00010919
9.52024e-05
8.07023e-05
6.76074e-05
5.62866e-05
5.6704e-05
6.49722e-05
7.23e-05
0.000171499
0.000132128
0.00684811
0.016831
0.00620135
0.00222998
0.00143899
0.00147092
0.00160845
0.00159774
0.00152929
0.00145001
0.00135565
0.00122035
0.00103373
0.000817909
0.000612184
0.000450771
0.000349714
0.000299395
0.000273648
0.000254025
0.0002352
0.000217527
0.000202771
0.00019286
0.000189335
0.000190327
0.000191148
0.000188292
0.00018068
0.000169366
0.000156418
0.000142988
0.000125662
0.000110702
0.000100156
9.48762e-05
9.67622e-05
0.000104456
0.000275646
0.000216085
0.00735654
0.0199774
0.0105952
0.00664075
0.00464587
0.00357763
0.00285308
0.00237954
0.00207812
0.00188102
0.00171208
0.00150571
0.00124241
0.000957144
0.000701871
0.00051344
0.000405431
0.000356145
0.000333894
0.000318693
0.000306468
0.000297417
0.000292424
0.000292177
0.000296016
0.000300489
0.000300234
0.000291094
0.000272484
0.0002489
0.000228731
0.000219093
0.000222063
0.000228064
0.000251806
0.000290853
0.00035194
0.00042792
0.00157387
0.000414238
0.00686108
0.0117543
0.00973495
0.00728765
0.00551369
0.00430223
0.00348088
0.00294128
0.00261099
0.00239285
0.00216922
0.00186231
0.00148042
0.00110884
0.000818675
0.000628747
0.000546736
0.000514973
0.000503981
0.000500938
0.000503158
0.000509931
0.00051916
0.000530335
0.000541921
0.00054859
0.000542477
0.000516116
0.000466909
0.000402591
0.000342361
0.000305337
0.000301584
0.000330353
0.000386615
0.000477321
0.000603748
0.000764637
0.000942404
0.000517471
0.00447074
0.00614192
0.00510841
0.00433191
0.00379017
0.003473
0.00329668
0.00310919
0.00277568
0.00228386
0.00173314
0.00134172
0.00116183
0.00109201
0.00107735
0.00108419
0.00109885
0.00111709
0.00113966
0.00116682
0.00118912
0.00120829
0.00122663
0.00123679
0.00122449
0.00117095
0.00106021
0.000893817
0.000708348
0.000555656
0.000457082
0.00041015
0.000420366
0.000485501
0.000594944
0.00072575
0.000883509
0.000901013
0.00276087
0.00419367
0.00451395
0.0046332
0.00478221
0.00505464
0.00527944
0.00523947
0.00480254
0.00414519
0.00352313
0.00310092
0.002876
0.00279463
0.00280344
0.00285648
0.00292795
0.00300351
0.00307242
0.00312515
0.0031627
0.00319751
0.00324684
0.00330518
0.00334818
0.00333115
0.0031998
0.00292238
0.002537
0.00209355
0.00165394
0.00128003
0.00100669
0.000844238
0.000771478
0.000768637
0.00191047
0.00134229
0.00112372
0.00144115
0.00184389
0.0019857
0.00182112
0.00196524
0.00222379
0.00246781
0.00264357
0.00269598
0.00260367
0.00244515
0.00226641
0.00210953
0.00200714
0.00195087
0.00192283
0.0019093
0.00190119
0.00189285
0.00188148
0.00186798
0.00185725
0.00185147
0.00184343
0.0018251
0.00178415
0.00170916
0.00159869
0.00147068
0.00133275
0.00119795
0.00107778
0.000978201
0.000903199
0.000851353
0.000812423
0.000771787
0.000851834
0.00077405
)
;

boundaryField
{
    floor
    {
        Cmu             0.09;
        kappa           0.41;
        E               9.8;
        type            epsilonWallFunction;
        value           nonuniform List<scalar> 
29
(
0.000270386
7.49882e-05
0.000160958
0.000143548
0.000128868
0.000116304
0.000102881
8.55779e-05
6.98053e-05
5.71227e-05
4.71696e-05
3.93919e-05
3.32407e-05
2.82809e-05
2.4184e-05
2.06832e-05
1.75335e-05
1.47451e-05
1.17679e-05
1.65427e-05
1.65427e-05
3.28531e-05
4.36209e-05
6.2119e-05
0.000270386
7.49882e-05
0.000205467
0.000332026
0.000735621
)
;
    }
    ceiling
    {
        Cmu             0.09;
        kappa           0.41;
        E               9.8;
        type            epsilonWallFunction;
        value           nonuniform List<scalar> 
43
(
0.00112372
0.00144115
0.00184389
0.0019857
0.00182112
0.00196524
0.00222379
0.00246781
0.00264357
0.00269598
0.00260367
0.00244515
0.00226641
0.00210953
0.00200714
0.00195087
0.00192283
0.0019093
0.00190119
0.00189285
0.00188148
0.00186798
0.00185725
0.00185147
0.00184343
0.0018251
0.00178415
0.00170916
0.00159869
0.00147068
0.00133275
0.00119795
0.00107778
0.000978201
0.000903199
0.000851353
0.000812423
0.000771787
0.000851834
0.00077405
0.00686108
0.0117543
0.00276087
)
;
    }
    sWall
    {
        Cmu             0.09;
        kappa           0.41;
        E               9.8;
        type            epsilonWallFunction;
        value           uniform 0.00112372;
    }
    nWall
    {
        Cmu             0.09;
        kappa           0.41;
        E               9.8;
        type            epsilonWallFunction;
        value           nonuniform List<scalar> 6(7.1226e-05 0.000132128 0.000216085 0.000901013 0.00134229 0.00077405);
    }
    sideWalls
    {
        type            empty;
    }
    glass1
    {
        Cmu             0.09;
        kappa           0.41;
        E               9.8;
        type            epsilonWallFunction;
        value           nonuniform List<scalar> 9(0.00030542 0.000758993 0.00137334 0.00221098 0.00335805 0.00494794 0.00684811 0.00735654 0.00686108);
    }
    glass2
    {
        Cmu             0.09;
        kappa           0.41;
        E               9.8;
        type            epsilonWallFunction;
        value           nonuniform List<scalar> 2(0.000414238 0.000517471);
    }
    sun
    {
        Cmu             0.09;
        kappa           0.41;
        E               9.8;
        type            epsilonWallFunction;
        value           nonuniform List<scalar> 
14
(
0.00030542
0.000399894
0.00042653
0.000494054
0.000563625
0.000636111
0.000715636
0.000795362
0.000856298
0.000883766
0.000865169
0.000795688
0.000679771
0.000522188
)
;
    }
    heatsource1
    {
        Cmu             0.09;
        kappa           0.41;
        E               9.8;
        type            epsilonWallFunction;
        value           nonuniform List<scalar> 3(8.88961e-05 8.32642e-05 7.1226e-05);
    }
    heatsource2
    {
        Cmu             0.09;
        kappa           0.41;
        E               9.8;
        type            epsilonWallFunction;
        value           nonuniform List<scalar> 4(0.000373775 0.000111488 0.000111488 0.000423089);
    }
    Table_master
    {
        Cmu             0.09;
        kappa           0.41;
        E               9.8;
        type            epsilonWallFunction;
        value           nonuniform List<scalar> 9(0.000226627 0.000150481 0.000104384 7.55496e-05 5.68085e-05 4.42235e-05 3.55298e-05 2.94621e-05 2.54077e-05);
    }
    Table_slave
    {
        Cmu             0.09;
        kappa           0.41;
        E               9.8;
        type            epsilonWallFunction;
        value           nonuniform List<scalar> 9(0.000304164 0.000228256 0.000186237 0.000160674 0.000143084 0.000128511 0.000113514 9.95715e-05 8.47384e-05);
    }
    inlet
    {
        type            turbulentMixingLengthDissipationRateInlet;
        mixingLength    0.01;
        phi             phi;
        k               k;
        value           uniform 3.01869e-05;
    }
    outlet
    {
        type            zeroGradient;
    }
}


// ************************************************************************* //
