/*--------------------------------*- C++ -*----------------------------------*\
  =========                 |
  \\      /  F ield         | OpenFOAM: The Open Source CFD Toolbox
   \\    /   O peration     | Website:  https://openfoam.org
    \\  /    A nd           | Version:  6
     \\/     M anipulation  |
\*---------------------------------------------------------------------------*/
FoamFile
{
    version     2.0;
    format      ascii;
    class       volScalarField;
    location    "370";
    object      nut;
}
// * * * * * * * * * * * * * * * * * * * * * * * * * * * * * * * * * * * * * //

dimensions      [0 2 -1 0 0 0 0];

internalField   nonuniform List<scalar> 
459
(
0.000952077
0.00104157
0.0010642
0.00111763
0.0011678
0.00121585
0.00126455
0.00130986
0.00134249
0.0013567
0.00134712
0.00131006
0.00124308
0.00113846
0.000914253
0.000596177
0.000769047
0.00074025
0.000714099
0.000690092
0.000662447
0.000623009
0.000582108
0.000544474
0.000510814
0.000481036
0.000454569
0.000430732
0.000408839
0.000388075
0.000367282
0.000346678
0.000321571
0.00036023
0.0012896
0.00311933
0.00296488
0.00344271
0.00392547
0.00441126
0.00482766
0.00517619
0.00550974
0.00580089
0.00601308
0.00610581
0.00603916
0.00572496
0.00468818
0.00101838
0.0006804
0.000834235
0.00248616
0.00231597
0.00247436
0.00259678
0.002518
0.00190203
0.00161107
0.0014136
0.00126562
0.00114706
0.00104484
0.000953652
0.000868175
0.000786508
0.000718139
0.000721194
0.000679268
0.000452795
0.00157145
0.00422292
0.00364565
0.00450411
0.00491655
0.00522518
0.00547326
0.00571795
0.00601813
0.0063645
0.00672185
0.00702761
0.00722915
0.00721526
0.00668754
0.00495309
0.00106134
0.000978976
0.00205616
0.00267356
0.0031441
0.00341853
0.00315256
0.000861939
0.000751971
0.000665661
0.000597658
0.000543477
0.000499952
0.000464774
0.000436649
0.000415624
0.000472293
0.000617197
0.00077685
0.000497668
0.00184178
0.00533563
0.00360747
0.00468555
0.00496137
0.00502618
0.00509814
0.00525095
0.00552089
0.00590503
0.00637172
0.00682779
0.00722074
0.00744034
0.00737578
0.00668934
0.0042224
0.00127624
0.00192376
0.00265032
0.00341683
0.00402316
0.00434289
0.00391369
0.00095077
0.000864
0.000807351
0.000768582
0.000739444
0.000713438
0.000684532
0.000655273
0.000620971
0.000596662
0.00064059
0.000887846
0.000559908
0.00211709
0.00676907
0.00384254
0.00447285
0.00481112
0.00473118
0.00469693
0.00482178
0.00507948
0.00548508
0.00601643
0.00653064
0.00695241
0.00722627
0.00731798
0.00715212
0.0065699
0.00565481
0.00548456
0.00556449
0.00567909
0.0057339
0.00567476
0.00537334
0.00443503
0.00402833
0.00382041
0.0036905
0.00358297
0.00346286
0.00329071
0.00294731
0.00247043
0.0019326
0.00148174
0.00133259
0.000944383
0.000630963
0.000617347
0.000586035
0.00240909
0.00835538
0.00514874
0.00431338
0.0046749
0.00474434
0.00458975
0.0046972
0.0049298
0.00533019
0.00586237
0.00640841
0.00684395
0.00710142
0.00718835
0.00716552
0.00709804
0.00703026
0.00701941
0.00697304
0.00684493
0.00662927
0.00634076
0.00598763
0.0055705
0.0052552
0.00502874
0.00485709
0.00471616
0.00458161
0.00441822
0.00415877
0.00375465
0.00321974
0.00263905
0.00218203
0.00169795
0.00130554
0.00140033
0.000720074
0.00268474
0.00953637
0.00734583
0.00532986
0.00499612
0.00498862
0.00483914
0.00480484
0.0049811
0.00539349
0.00596883
0.00655522
0.00700427
0.00724564
0.00731191
0.00732388
0.00739912
0.00751322
0.00753545
0.00739182
0.00710407
0.00672422
0.00630951
0.00591003
0.00556681
0.00530914
0.00511707
0.00496871
0.00485357
0.0047576
0.00464945
0.00449478
0.0042707
0.00391518
0.00345985
0.00299135
0.00248258
0.00198007
0.00182601
0.000848374
0.0027496
0.0088372
0.00758208
0.00667017
0.00611709
0.00551981
0.00504954
0.00491303
0.0051396
0.00566892
0.00635176
0.00698835
0.00742788
0.00763025
0.00765618
0.00763102
0.00762546
0.00758397
0.00741948
0.00710976
0.00671574
0.00629899
0.00591523
0.00559505
0.00534448
0.00514805
0.00498001
0.00482824
0.00469786
0.00459319
0.00448993
0.00435368
0.00420999
0.00409168
0.00383124
0.00353188
0.00317813
0.00260129
0.00273993
0.00105389
0.00268643
0.00321448
0.0037211
0.0038578
0.00387095
0.00394643
0.00420253
0.00469312
0.00542191
0.00629231
0.00712162
0.00772282
0.00802479
0.00807476
0.00794424
0.00770017
0.00740268
0.00712226
0.006845
0.00655447
0.00626443
0.00599743
0.005773
0.00558565
0.00541824
0.00524966
0.00506036
0.00484234
0.00460417
0.00436168
0.00409905
0.00375561
0.00333274
0.00294415
0.0026411
0.00237754
0.00215053
0.00196228
0.00183634
0.00113503
0.00211816
0.00362212
0.00432171
0.0050365
0.00574672
0.00649513
0.00724032
0.00790414
0.00836055
0.00849416
0.0083443
0.00801576
0.0076033
0.00724646
0.00700958
0.00685814
0.00674731
0.00665075
0.00655488
0.00645244
0.00634845
0.00623754
0.00611278
0.00595951
0.00575655
0.00548168
0.00512149
0.00468577
0.00421221
0.00372692
0.00325832
0.0028551
0.00254176
0.00232669
0.00217923
0.00205399
0.00197078
0.00136549
0.00198334
0.00382539
0.00518643
0.00622455
0.00703043
0.00773637
0.00835456
0.00886746
0.00909647
0.00890218
0.00845345
0.00799478
0.00766025
0.00746393
0.00737593
0.00735086
0.00735525
0.00736902
0.00737797
0.00736782
0.00732864
0.00727028
0.0072143
0.00715732
0.00707847
0.00693975
0.00669327
0.00630177
0.00579394
0.00520482
0.00458144
0.00398594
0.0034631
0.00304006
0.00271368
0.00248086
0.00323256
0.00155953
0.00146983
0.00159692
0.00173364
0.00177699
0.00172645
0.00177081
0.00184529
0.00191046
0.00195479
0.00196764
0.00194494
0.00190464
0.00185706
0.00181319
0.00178336
0.00176653
0.00175803
0.00175389
0.0017514
0.00174884
0.00174533
0.00174114
0.0017378
0.001736
0.00173348
0.00172771
0.0017147
0.00169033
0.00165309
0.00160774
0.00155582
0.00150149
0.0014495
0.00140341
0.00136659
0.00133992
0.00131918
0.00129681
0.00134018
0.00129808
)
;

boundaryField
{
    floor
    {
        type            nutkWallFunction;
        Cmu             0.09;
        kappa           0.41;
        E               9.8;
        value           nonuniform List<scalar> 
29
(
0.000110587
7.18564e-05
9.31472e-05
8.9644e-05
8.64487e-05
8.3503e-05
8.00957e-05
7.52047e-05
7.00927e-05
6.53505e-05
6.10749e-05
5.72636e-05
5.38515e-05
5.07574e-05
4.78966e-05
4.51655e-05
4.24119e-05
3.96638e-05
3.62866e-05
4.14762e-05
4.14762e-05
5.3622e-05
5.93955e-05
6.72992e-05
0.000110587
7.18564e-05
0.000101024
0.000118262
0.000152802
)
;
    }
    ceiling
    {
        type            nutkWallFunction;
        Cmu             0.09;
        kappa           0.41;
        E               9.8;
        value           nonuniform List<scalar> 
43
(
0.000174738
0.000188989
0.000204185
0.00020901
0.000203442
0.000208363
0.000216582
0.000223745
0.000228603
0.000230011
0.000227532
0.000223121
0.000217898
0.00021307
0.00020978
0.000207922
0.000206982
0.000206525
0.00020625
0.000205966
0.000205578
0.000205114
0.000204745
0.000204545
0.000204266
0.000203627
0.000202184
0.00019948
0.00019534
0.000190283
0.000184475
0.000178374
0.000172514
0.000167299
0.000163119
0.000160084
0.000157719
0.000155163
0.000160113
0.000155309
0.000307284
0.00036259
0.000231578
)
;
    }
    sWall
    {
        type            nutkWallFunction;
        Cmu             0.09;
        kappa           0.41;
        E               9.8;
        value           uniform 0.000174782;
    }
    nWall
    {
        type            nutkWallFunction;
        Cmu             0.09;
        kappa           0.41;
        E               9.8;
        value           nonuniform List<scalar> 6(7.05713e-05 8.71758e-05 0.000102725 0.000163012 0.000184912 0.000155325);
    }
    sideWalls
    {
        type            empty;
    }
    glass1
    {
        type            nutkWallFunction;
        Cmu             0.09;
        kappa           0.41;
        E               9.8;
        value           nonuniform List<scalar> 9(0.000115131 0.000154466 0.00018641 0.000216454 0.000246561 0.000278039 0.000307386 0.00031425 0.00030758);
    }
    glass2
    {
        type            nutkWallFunction;
        Cmu             0.09;
        kappa           0.41;
        E               9.8;
        value           nonuniform List<scalar> 2(0.000127096 0.00013656);
    }
    sun
    {
        type            nutkWallFunction;
        Cmu             0.09;
        kappa           0.41;
        E               9.8;
        value           nonuniform List<scalar> 
14
(
0.000115084
0.000125625
0.000128274
0.000134503
0.000140322
0.000145869
0.000151464
0.00015665
0.000160372
0.000161988
0.000160898
0.00015667
0.000148998
0.000136921
)
;
    }
    heatsource1
    {
        type            nutkWallFunction;
        Cmu             0.09;
        kappa           0.41;
        E               9.8;
        value           nonuniform List<scalar> 3(7.6188e-05 7.44929e-05 7.0577e-05);
    }
    heatsource2
    {
        type            nutkWallFunction;
        Cmu             0.09;
        kappa           0.41;
        E               9.8;
        value           nonuniform List<scalar> 4(0.000122908 8.231e-05 8.231e-05 0.000127944);
    }
    Table_master
    {
        type            nutkWallFunction;
        Cmu             0.09;
        kappa           0.41;
        E               9.8;
        value           nonuniform List<scalar> 9(0.000104351 9.10717e-05 8.04883e-05 7.20339e-05 6.52142e-05 5.96754e-05 5.51552e-05 5.15105e-05 4.87667e-05);
    }
    Table_slave
    {
        type            nutkWallFunction;
        Cmu             0.09;
        kappa           0.41;
        E               9.8;
        value           nonuniform List<scalar> 9(0.000114933 0.000104598 9.77857e-05 9.30912e-05 8.95446e-05 8.63651e-05 8.28148e-05 7.92029e-05 7.49436e-05);
    }
    inlet
    {
        type            calculated;
        value           uniform 6.7082e-05;
    }
    outlet
    {
        type            calculated;
        value           nonuniform List<scalar> 2(0.00146983 0.00159692);
    }
}


// ************************************************************************* //
