/*--------------------------------*- C++ -*----------------------------------*\
  =========                 |
  \\      /  F ield         | OpenFOAM: The Open Source CFD Toolbox
   \\    /   O peration     | Website:  https://openfoam.org
    \\  /    A nd           | Version:  6
     \\/     M anipulation  |
\*---------------------------------------------------------------------------*/
FoamFile
{
    version     2.0;
    format      ascii;
    class       surfaceScalarField;
    location    "370";
    object      phi;
}
// * * * * * * * * * * * * * * * * * * * * * * * * * * * * * * * * * * * * * //

dimensions      [1 0 -1 0 0 0 0];

internalField   nonuniform List<scalar> 
852
(
-0.00252744
0.00256974
-0.00342296
0.00089552
-0.00410602
0.000683047
-0.00463183
0.000525813
-0.00496772
0.000335877
-0.00508641
0.000118685
-0.00496192
-0.000124487
-0.00457819
-0.000383738
-0.00395734
-0.000620856
-0.00316486
-0.000792486
-0.00229298
-0.000871885
-0.00143765
-0.000855336
-0.000683883
-0.000753768
-0.000117632
-0.000566256
-0.000121323
0.000127012
-0.000131981
0.000299192
-0.000172186
0.000625624
-0.000326438
0.000952934
-0.000327317
0.00122589
-0.000272962
0.00142842
-0.000202536
0.00153722
-0.000108816
0.00157782
-4.06062e-05
0.00159201
-1.41997e-05
0.00159483
-2.82563e-06
0.00158883
5.98963e-06
0.00157359
1.52298e-05
0.00154432
2.92678e-05
0.00148689
5.7419e-05
0.00136769
0.000119188
0.00112862
0.000239059
0.000717136
0.000411474
2.72862e-05
0.000689839
2.04888e-05
-0.00183257
0.00451709
-0.00270978
0.00177273
-0.00341824
0.0013915
-0.00394232
0.00104988
-0.00427848
0.000672036
-0.00440688
0.00024708
-0.00429951
-0.000231865
-0.00394584
-0.000737404
-0.00338018
-0.00118652
-0.0026772
-0.00149547
-0.00192813
-0.00162096
-0.00122081
-0.00156266
-0.000632364
-0.00134222
-0.000204308
-0.000994317
0.000156841
-0.000482476
0.000195997
-3.92107e-05
0.000195943
-8.81973e-05
-5.58019e-05
0.000545553
-0.000805942
0.000897444
-0.000678336
0.00116592
-0.000595797
0.00138055
-0.000487602
0.00153315
-0.00035515
0.00156883
-0.000144503
0.00157748
-4.92598e-05
0.00158591
-2.26372e-05
0.00159271
-9.63421e-06
0.00159686
1.82843e-06
0.00159834
1.37392e-05
0.0015962
3.13968e-05
0.00158588
6.77285e-05
0.00153321
0.000171856
0.00132948
0.000442776
0.000977248
0.000763696
0.000607552
0.00105953
0.000609709
-0.00130943
0.00600308
-0.00207177
0.00253507
-0.00271105
0.00203077
-0.00317086
0.00150969
-0.00347501
0.000976182
-0.0035984
0.000370458
-0.00349087
-0.000339395
-0.0031397
-0.00108858
-0.00260347
-0.00172276
-0.00197077
-0.00212816
-0.00132824
-0.00226349
-0.000742869
-0.00214804
-0.000265693
-0.0018194
7.95746e-05
-0.00133959
0.000332388
-0.000735294
0.000414983
-0.000121811
0.000610922
0.000794723
-0.000868451
0.000964786
-0.000976011
0.00121952
-0.000933076
0.00138929
-0.00076557
0.00151095
-0.000609275
0.00165409
-0.000498299
0.00150973
0.00146061
0.00143812
0.00142863
0.0014306
0.00144448
0.00147602
0.00154388
0.00171588
0.00152346
0.000635188
0.00128716
0.000999983
0.00093207
0.00141461
0.00151289
-0.000936612
0.00716948
-0.0015452
0.00314365
-0.0019864
0.00247196
-0.00230562
0.00182891
-0.00252434
0.0011949
-0.00260635
0.000452458
-0.00245671
-0.00048903
-0.00208112
-0.00146418
-0.00157846
-0.00222541
-0.00104019
-0.00266644
-0.00053254
-0.00277114
-9.07819e-05
-0.0025898
0.000271897
-0.00218208
0.000566125
-0.00163382
0.000847903
-0.00101708
0.00116345
-0.000437359
0.00182626
-5.18986e-05
0.00211596
-0.000307335
0.00198258
-0.000735075
0.00178666
-0.000780098
0.00161781
-0.000764237
0.00152563
-0.000673395
0.00147325
-0.000556902
0.00138759
-0.000412651
0.00158428
-0.000196856
0.00170923
-0.000125109
0.00181582
-0.00010675
0.00191412
-9.84609e-05
0.00199902
-8.50651e-05
0.00205572
-5.68545e-05
0.0020545
1.05079e-06
0.00195024
0.0001041
0.00167292
0.000277159
0.00165263
0.000655469
0.00155117
0.00110143
0.0013614
0.00160437
0.00283674
-0.000672142
0.00811715
-0.00113355
0.00360505
-0.00125838
0.00259679
-0.00135868
0.00192921
-0.00142482
0.00126104
-0.00139922
0.000426844
-0.00113856
-0.000749693
-0.000737471
-0.00186526
-0.000311941
-0.00265094
7.3841e-05
-0.00305221
0.000390844
-0.00308814
0.000634722
-0.00283368
0.000830499
-0.00237786
0.00100656
-0.00180989
0.00120646
-0.00121699
0.00146783
-0.000698739
0.00179506
-0.000379129
0.00191207
-0.00042435
0.00173494
-0.000557956
0.00156303
-0.000608196
0.00139804
-0.000599255
0.00127123
-0.000546589
0.00118262
-0.000468304
0.00113869
-0.000368733
0.00120046
-0.000258632
0.00127811
-0.00020277
0.00135981
-0.000188464
0.0014462
-0.000184868
0.00153351
-0.000172386
0.00161268
-0.000136031
0.00166971
-5.59918e-05
0.00168732
8.64749e-05
0.00166496
0.000299507
0.00170853
0.000611883
0.00185811
0.000951838
0.00235501
0.00110745
0.0036194
0.00157233
0.00244024
0.00117895
0.00149677
0.000943252
0.00153537
-0.000591371
0.00902311
-0.000903387
0.00391706
-0.000583655
0.00227705
-0.000359794
0.00170534
-0.000204591
0.00110583
6.70405e-05
0.000155205
0.000479665
-0.00116232
0.000850185
-0.00223578
0.00111828
-0.00291903
0.00127572
-0.00320965
0.00134461
-0.00315703
0.00135227
-0.00284134
0.00132827
-0.00235387
0.00130554
-0.00178716
0.00131729
-0.00122875
0.00137934
-0.000760797
0.00146377
-0.000463566
0.00143092
-0.000391511
0.00128862
-0.000415656
0.00112205
-0.000441638
0.000962399
-0.000439614
0.000830321
-0.000414521
0.000736546
-0.000374539
0.000692561
-0.000324759
0.000710447
-0.000276531
0.000764589
-0.000256924
0.00083676
-0.000260648
0.000920009
-0.00026813
0.00101109
-0.000263484
0.00110857
-0.000233518
0.00121322
-0.000160662
0.00131746
-1.77726e-05
0.0014154
0.000201555
0.00155328
0.000473987
0.00175823
0.000746868
0.00196585
0.00089982
0.00225626
0.00128192
0.00198426
0.00145095
0.0012145
0.001713
0.00279106
-0.000672419
0.0100452
-0.000569387
0.00381403
0.000323315
0.00138434
0.000890425
0.00113822
0.00137036
0.00062588
0.00190818
-0.000382621
0.00233752
-0.00159166
0.00256797
-0.00246623
0.00259783
-0.00294888
0.00246749
-0.0030793
0.00223164
-0.00292118
0.00194367
-0.00255337
0.00164877
-0.00205898
0.00138474
-0.00152314
0.00118039
-0.00102441
0.00104375
-0.000624176
0.000952662
-0.000372484
0.000838703
-0.000277561
0.000693058
-0.000270021
0.000535103
-0.000283693
0.000386694
-0.000291215
0.000263093
-0.000290931
0.000174445
-0.000285902
0.000129495
-0.000279822
0.000132048
-0.000279096
0.000168281
-0.000293172
0.000223394
-0.000315775
0.000289671
-0.000334421
0.000364919
-0.000338747
0.000452527
-0.00032114
0.000564079
-0.000272229
0.000716909
-0.000170617
0.000896684
2.17656e-05
0.00109108
0.000279581
0.00130298
0.000534949
0.00146228
0.000740511
0.00166602
0.00107816
0.00176897
0.00134799
0.00149703
0.00198492
0.00433134
0.00208576
0.00835045
0.00267762
0.00322215
0.00282014
0.00124182
0.0032019
0.000756453
0.00375628
7.14959e-05
0.00431502
-0.000941366
0.00451957
-0.00179621
0.00438332
-0.00232998
0.00399212
-0.00255766
0.0034409
-0.00252808
0.00281763
-0.0022979
0.0021941
-0.00192985
0.00161934
-0.00148423
0.00112936
-0.00103316
0.000749736
-0.000644794
0.000478853
-0.000353305
0.000295368
-0.000189009
0.000147182
-0.000129386
3.8071e-06
-0.000126657
-0.000136886
-0.000143012
-0.000264254
-0.000163859
-0.000369165
-0.000186033
-0.000446512
-0.000208569
-0.000493228
-0.00023312
-0.00050969
-0.000262648
-0.000504652
-0.000298224
-0.000486745
-0.000333696
-0.000461382
-0.000359799
-0.00043202
-0.000368123
-0.000398782
-0.000354393
-0.00035016
-0.000320866
-0.000254209
-0.000266583
-6.91271e-05
-0.000163331
0.000166264
4.4175e-05
0.000394808
0.000306391
0.000566413
0.000568892
0.000763534
0.000881022
0.000944304
0.0011672
0.000533725
0.00239549
0.00504833
0.00875103
0.0119431
0.0104509
0.00273406
0.00957198
0.00163537
0.0088532
0.00079027
0.00804379
-0.000131938
0.00703126
-0.000783661
0.00591287
-0.00121157
0.00477511
-0.00141989
0.00367336
-0.00142633
0.00265872
-0.00128327
0.00176916
-0.0010403
0.00101899
-0.000734077
0.00042316
-0.000437345
-6.28863e-06
-0.00021536
-0.000285906
-7.37006e-05
-0.000461382
-1.35459e-05
-0.000589568
-1.21284e-06
-0.00070227
-1.3967e-05
-0.000807984
-3.73104e-05
-0.000904782
-6.70749e-05
-0.000988399
-0.00010243
-0.00105973
-0.000137253
-0.00112058
-0.000172288
-0.00117239
-0.00021085
-0.00121882
-0.000251808
-0.00126281
-0.000289724
-0.00130713
-0.000315493
-0.00135882
-0.000316441
-0.00143453
-0.000278699
-0.00155448
-0.000200933
-0.00173377
-8.7306e-05
-0.00197746
8.03469e-05
-0.00227325
0.000339954
-0.00267734
0.000710468
-0.00333087
0.0012224
-0.00436924
0.00191938
-0.00586582
0.00266377
-0.00618002
0.00270967
-0.000934785
0.00369596
0.00329914
0.00338994
0.00194143
0.00394073
0.000239536
0.00410026
-0.000291423
0.0038397
-0.000523075
0.00329992
-0.000671777
0.00258824
-0.000708207
0.00179475
-0.000632858
0.00101501
-0.000503545
0.000309269
-0.000334575
-0.000270669
-0.00015416
-0.00068249
-2.55414e-05
-0.000940701
4.28344e-05
-0.00109103
7.66136e-05
-0.00118362
7.90317e-05
-0.00124988
6.5034e-05
-0.00130752
4.36528e-05
-0.00136413
1.92832e-05
-0.00142362
-7.59729e-06
-0.00148808
-3.79774e-05
-0.00156049
-6.48632e-05
-0.00164423
-8.85612e-05
-0.00174092
-0.000114171
-0.001852
-0.000140745
-0.0019762
-0.000165541
-0.00210879
-0.000182919
-0.00224362
-0.000181628
-0.00238123
-0.000141099
-0.00252315
-5.90293e-05
-0.00267117
6.07079e-05
-0.00281552
0.000224682
-0.00294045
0.00046487
-0.00304458
0.000814584
-0.00311502
0.00129282
-0.0031056
0.00190995
-0.0028878
0.00244596
-0.00125328
0.00107514
-0.00214587
0.000571418
0.00271604
0.00176904
0.000743846
0.0018902
0.00011841
0.00166494
-6.61507e-05
0.00129595
-0.000154097
0.000809153
-0.000184998
0.000267903
-0.000166988
-0.000257111
-0.000107879
-0.000729393
-3.12897e-05
-0.00110503
4.10346e-05
-0.00135302
9.3819e-05
-0.00149579
0.00011721
-0.00157519
0.000122212
-0.00161401
0.000115417
-0.00163456
9.95691e-05
-0.00165009
8.05497e-05
-0.00166767
6.12197e-05
-0.00169078
4.23744e-05
-0.00172277
2.4381e-05
-0.00176953
8.76806e-06
-0.00182835
-6.05452e-06
-0.00189822
-1.8712e-05
-0.00198422
-2.81837e-05
-0.00209177
-3.32124e-05
-0.0022254
-3.1925e-05
-0.00238556
-2.27675e-05
-0.00256215
-5.05229e-06
-0.00272735
2.40801e-05
-0.00285264
6.62471e-05
-0.00292223
0.000130291
-0.00292398
0.00022642
-0.00281903
0.000359905
-0.00255473
0.000550274
-0.00206213
0.000800203
-0.00114653
0.000994334
0.000381105
0.000918314
0.00143148
2.47583e-05
-0.000671954
-0.00346821
-0.00485842
-0.00216585
-0.00145639
-0.00137958
-0.00149025
-0.00169015
-0.00192191
-0.00213656
-0.00229317
-0.00237459
-0.00238519
-0.00234453
-0.00228183
-0.00221508
-0.00215569
-0.00211246
-0.00208842
-0.00208382
-0.00209814
-0.00213057
-0.00217872
-0.00224177
-0.00231753
-0.00240281
-0.00249327
-0.00258279
-0.00266382
-0.0027282
-0.00276479
-0.00276085
-0.00269468
-0.00253423
-0.00224206
-0.00176102
-0.00103124
-0.000108344
0.000737452
0.000691468
)
;

boundaryField
{
    floor
    {
        type            calculated;
        value           nonuniform List<scalar> 
29
(
0
0
0
0
0
0
0
0
0
0
0
0
0
0
0
0
0
0
0
0
6.78161e-06
1.83211e-05
2.88807e-05
3.75365e-05
3.69342e-06
4.96382e-06
1.2012e-05
1.79199e-05
1.76329e-05
)
;
    }
    ceiling
    {
        type            calculated;
        value           nonuniform List<scalar> 
43
(
2.84566e-05
2.51502e-05
2.34651e-05
3.43632e-05
4.15673e-05
4.44795e-05
4.57652e-05
4.67311e-05
4.76267e-05
4.87033e-05
5.01109e-05
5.16149e-05
5.31405e-05
5.44967e-05
5.54441e-05
5.60116e-05
5.63246e-05
5.64938e-05
5.65975e-05
5.66868e-05
5.6789e-05
5.69015e-05
5.69865e-05
5.70277e-05
5.7087e-05
5.72339e-05
5.75802e-05
5.82486e-05
5.93084e-05
6.06594e-05
6.22916e-05
6.41076e-05
6.59623e-05
6.77194e-05
6.92237e-05
7.04061e-05
7.14242e-05
7.25047e-05
7.07289e-05
7.30798e-05
3.65196e-05
3.0035e-05
1.17068e-05
)
;
    }
    sWall
    {
        type            calculated;
        value           uniform -0.000223537;
    }
    nWall
    {
        type            calculated;
        value           nonuniform List<scalar> 6(-3.8809e-05 -4.12057e-05 -4.32579e-05 -4.22082e-05 -4.24499e-05 -5.35788e-05);
    }
    sideWalls
    {
        type            empty;
        value           nonuniform 0();
    }
    glass1
    {
        type            calculated;
        value           nonuniform List<scalar> 9(-4.23079e-05 -0.000114783 -0.000176564 -0.000229793 -0.000275537 -0.000314584 -0.000349644 -0.000391049 -0.000437094);
    }
    glass2
    {
        type            calculated;
        value           nonuniform List<scalar> 2(-0.00018328 -0.000196909);
    }
    sun
    {
        type            calculated;
        value           uniform 0;
    }
    heatsource1
    {
        type            calculated;
        value           nonuniform List<scalar> 3(2.0015e-07 2.00664e-07 2.01065e-07);
    }
    heatsource2
    {
        type            calculated;
        value           nonuniform List<scalar> 4(5.03903e-08 5.04506e-08 0 0);
    }
    Table_master
    {
        type            calculated;
        value           nonuniform List<scalar> 9(-1.50684e-07 -1.50789e-07 -1.50817e-07 -1.50834e-07 -1.50845e-07 -1.50846e-07 -1.50842e-07 -1.50825e-07 -1.50775e-07);
    }
    Table_slave
    {
        type            calculated;
        value           nonuniform List<scalar> 9(1.50599e-07 1.50617e-07 1.50582e-07 1.50548e-07 1.50517e-07 1.50497e-07 1.50498e-07 1.50504e-07 1.50547e-07);
    }
    inlet
    {
        type            calculated;
        value           uniform -0.00426101;
    }
    outlet
    {
        type            calculated;
        value           nonuniform List<scalar> 2(0.00366328 0.00136506);
    }
}


// ************************************************************************* //
