/*--------------------------------*- C++ -*----------------------------------*\
  =========                 |
  \\      /  F ield         | OpenFOAM: The Open Source CFD Toolbox
   \\    /   O peration     | Website:  https://openfoam.org
    \\  /    A nd           | Version:  6
     \\/     M anipulation  |
\*---------------------------------------------------------------------------*/
FoamFile
{
    version     2.0;
    format      ascii;
    class       surfaceScalarField;
    location    "100";
    object      phi;
}
// * * * * * * * * * * * * * * * * * * * * * * * * * * * * * * * * * * * * * //

dimensions      [1 0 -1 0 0 0 0];

internalField   nonuniform List<scalar> 
852
(
-0.00303875
0.00309414
-0.00421482
0.00117603
-0.00505947
0.00084461
-0.0056546
0.000595085
-0.00596467
0.000310027
-0.00596024
-4.46445e-06
-0.00561708
-0.000343203
-0.00495249
-0.000664634
-0.00404316
-0.000909375
-0.0030016
-0.0010416
-0.0019475
-0.00105414
-0.000997671
-0.000949866
-0.000273537
-0.000724171
8.75231e-05
-0.000361093
8.91234e-05
-0.000891054
0.000893126
-0.00064447
-0.000246661
8.36256e-05
-0.000728157
0.000792652
-0.00070908
0.00135015
-0.000557551
0.00175522
-0.000405121
0.00198795
-0.000232787
0.00209761
-0.000109717
0.00216188
-6.43359e-05
0.00221024
-4.84369e-05
0.00225029
-4.01382e-05
0.00228497
-3.47772e-05
0.00231062
-2.57546e-05
0.00230986
6.28675e-07
0.00224382
6.58968e-05
0.00204798
0.000195687
0.00166725
0.00038055
0.00105636
0.000610683
0.00105857
-0.00217174
0.00541587
-0.0032639
0.00226815
-0.00410894
0.00168961
-0.00469256
0.00117866
-0.00499912
0.000616544
-0.00499949
-4.13494e-06
-0.00467376
-0.000668978
-0.00405698
-0.00128146
-0.0032433
-0.0017231
-0.00234491
-0.00194004
-0.001465
-0.0019341
-0.000689235
-0.00172567
-8.45148e-05
-0.00132892
0.000332224
-0.000777861
0.000648198
-0.00022688
0.000479958
0.000168155
0.000479862
0.000147597
0.000751877
0.000726009
-0.000825137
0.00114874
-0.00115094
0.00151384
-0.00107423
0.00183471
-0.000878455
0.00206995
-0.000640394
0.00212013
-0.000283008
0.00212843
-0.000118059
0.00213873
-7.46793e-05
0.00214789
-5.76574e-05
0.00215461
-4.69233e-05
0.00216018
-4.04193e-05
0.00216437
-3.00502e-05
0.00215944
5.4498e-06
0.00210443
0.000120764
0.0018751
0.000424855
0.00145617
0.000799292
0.000867785
0.00119885
0.00193297
-0.0015141
0.00716037
-0.00242335
0.00317736
-0.00316032
0.00242655
-0.00365613
0.00167442
-0.00391119
0.000871566
-0.00387733
-3.80399e-05
-0.00352244
-0.00102391
-0.00291425
-0.00188971
-0.00217534
-0.00246206
-0.00141048
-0.00270495
-0.000695525
-0.0026491
-7.99429e-05
-0.00234129
0.000411844
-0.00182074
0.000797415
-0.00116346
0.00104501
-0.000474505
0.000967656
0.000245483
0.00144748
0.00165982
-0.000900353
0.00198283
-0.00114819
0.00205535
-0.00122349
0.00212534
-0.00114425
0.00222263
-0.000975773
0.00240951
-0.000827298
0.00212662
0.00200869
0.00193413
0.00187658
0.00182975
0.00178941
0.00175941
0.00176488
0.00188564
0.00159696
0.000713345
0.00122131
0.00117474
0.000704571
0.00171537
0.00264831
-0.00104472
0.00850457
-0.0017336
0.0038662
-0.00221111
0.00290401
-0.00252146
0.00198473
-0.00264193
0.000992005
-0.00248509
-0.000194928
-0.00204653
-0.00146253
-0.00144738
-0.00248892
-0.000819343
-0.00309018
-0.000231211
-0.00329315
0.000279065
-0.00315943
0.000695387
-0.00275765
0.00104726
-0.00217264
0.00136665
-0.00148287
0.00166586
-0.000773739
0.00203415
-0.000122833
0.00314595
0.000335655
0.00328133
-0.000128489
0.00299209
-0.000611134
0.0027728
-0.000928923
0.00254739
-0.000998107
0.00235151
-0.000948388
0.00219271
-0.000816997
0.00196476
-0.000599364
0.002192
-0.000227418
0.00227083
-7.90047e-05
0.0022974
-2.67462e-05
0.00229058
6.64497e-06
0.0022469
4.35042e-05
0.00215797
8.87441e-05
0.00200707
0.000150704
0.001762
0.000244853
0.00135615
0.000405622
0.00122997
0.000839382
0.000963949
0.00144057
0.000585702
0.00209341
0.00324867
-0.000720541
0.00958358
-0.00121486
0.00436048
-0.00129807
0.00298719
-0.00132191
0.00200853
-0.00117257
0.000842628
-0.000758859
-0.00060868
-0.000211016
-0.00201043
0.000313262
-0.00301328
0.00074659
-0.00352359
0.00107622
-0.00362286
0.00131523
-0.00339851
0.00149223
-0.0029347
0.00163988
-0.00232032
0.00179479
-0.00163781
0.00199594
-0.000974904
0.00229748
-0.000424387
0.00272945
-9.63278e-05
0.00281582
-0.000214879
0.00269279
-0.000488116
0.00245028
-0.000686429
0.00219635
-0.000744197
0.00195664
-0.000708697
0.00174575
-0.000606119
0.00158517
-0.000438804
0.0015793
-0.000221578
0.00158037
-8.00967e-05
0.00156426
-1.0666e-05
0.00153726
3.36096e-05
0.00150109
7.96297e-05
0.00144829
0.000141491
0.00136736
0.000231567
0.001246
0.000366128
0.00108381
0.000567711
0.000974511
0.00094855
0.000887114
0.0015278
0.000722406
0.00225791
0.00088821
0.00308265
-0.000978713
0.0018666
-0.00144328
0.000464318
-0.00140044
-0.000613523
0.0106054
-0.000920932
0.00466784
-0.000454015
0.00252023
-2.41941e-07
0.00155472
0.000612969
0.000229384
0.00133074
-0.0013265
0.00188203
-0.00256179
0.0022134
-0.00334473
0.00236859
-0.00367887
0.00238552
-0.00363988
0.00230457
-0.00331762
0.00217448
-0.00280464
0.00204221
-0.00218808
0.00194681
-0.00154242
0.00191958
-0.000947678
0.00197631
-0.000481114
0.00209302
-0.000213043
0.00208671
-0.000208574
0.00193763
-0.000339053
0.00170577
-0.000454569
0.00146078
-0.000499221
0.00123105
-0.000478988
0.00103298
-0.000408058
0.000888844
-0.000294696
0.000826026
-0.000158789
0.000806914
-6.10198e-05
0.000801868
-5.66161e-06
0.000801764
3.36641e-05
0.000803102
7.82332e-05
0.000802535
0.000141989
0.000797201
0.000236821
0.000786805
0.000376432
0.000775834
0.000578573
0.000819317
0.000904935
0.000969311
0.00137764
0.00123703
0.00199
0.00178122
0.00253826
0.00203646
0.00161121
0.00160567
0.000894988
0.000257497
-0.00062219
0.0116813
-0.000415832
0.00446145
0.00088017
0.00122419
0.00199206
0.000442804
0.00300707
-0.000785663
0.00373976
-0.00205925
0.00410862
-0.00293073
0.00413999
-0.00337619
0.00391491
-0.00345388
0.0035198
-0.00324485
0.00303424
-0.00283213
0.00253177
-0.0023022
0.00207265
-0.00172896
0.00169392
-0.00116368
0.00142253
-0.000676273
0.00126416
-0.000322734
0.00118533
-0.00013421
0.00109118
-0.000114414
0.000937685
-0.000185564
0.000741986
-0.000258875
0.000536125
-0.00029337
0.000342946
-0.000285825
0.000179486
-0.00024462
6.40695e-05
-0.000179309
1.14425e-05
-0.000106199
5.01215e-06
-5.46341e-05
2.38375e-05
-2.45388e-05
5.55081e-05
1.93357e-06
9.51583e-05
3.85152e-05
0.000144405
9.26666e-05
0.000206781
0.000174361
0.000288169
0.00029495
0.000398773
0.000467861
0.000579105
0.000724478
0.000882286
0.00107431
0.00136376
0.00150835
0.00214634
0.00175549
0.00274573
0.00101166
0.00284734
0.000793231
0.00316462
0.00278559
0.00940375
0.00360376
0.00364324
0.00432751
0.000500406
0.00551201
-0.00074173
0.0063725
-0.00164621
0.00664756
-0.00233439
0.00643806
-0.00272133
0.00586153
-0.00279975
0.00504525
-0.00263769
0.00411005
-0.00230972
0.00315564
-0.00187775
0.00226738
-0.00141396
0.00150703
-0.000968588
0.000899115
-0.000555743
0.000470953
-0.000248081
0.000213339
-6.50975e-05
7.22417e-05
6.90258e-06
-3.56144e-05
-6.552e-06
-0.000160534
-6.06459e-05
-0.000307095
-0.000112322
-0.000459801
-0.000140678
-0.000601238
-0.000144408
-0.000716742
-0.000129145
-0.000793919
-0.000102167
-0.00082669
-7.34715e-05
-0.000826608
-5.4766e-05
-0.00080615
-4.50527e-05
-0.000768686
-3.55921e-05
-0.000715494
-1.47434e-05
-0.000647324
2.44247e-05
-0.000558855
8.58132e-05
-0.000440881
0.000176889
-0.000281654
0.000308538
-4.77538e-05
0.000490467
0.00030738
0.000719046
0.000860922
0.000954654
0.00161927
0.000996981
0.0020014
0.000629368
0.00122383
0.00157067
0.00461533
0.00996107
0.0135963
0.0125065
0.00159017
0.0118046
-3.99381e-05
0.0108335
-0.000675213
0.00956731
-0.00106827
0.00807134
-0.00122545
0.00647391
-0.0012024
0.00489249
-0.00105631
0.00341684
-0.000834075
0.00210118
-0.000562081
0.000998542
-0.000311283
0.000129169
-9.91691e-05
-0.000476245
4.97251e-05
-0.000828096
0.000103805
-0.00100692
0.00011375
-0.00109674
9.67292e-05
-0.00116282
5.9532e-05
-0.0012401
1.66272e-05
-0.00133423
-1.82038e-05
-0.00143486
-4.00561e-05
-0.00152957
-4.97199e-05
-0.00160875
-5.00003e-05
-0.00166661
-4.43439e-05
-0.00170379
-3.63329e-05
-0.00173052
-2.80842e-05
-0.00175909
-1.65271e-05
-0.00179895
4.21305e-06
-0.00185376
4.00076e-05
-0.00192718
9.77899e-05
-0.00203023
0.000188794
-0.00218085
0.000327443
-0.00240614
0.000533742
-0.00274963
0.000833877
-0.00328358
0.00125291
-0.00410359
0.00177457
-0.00534728
0.00224058
-0.00702104
0.00230304
-0.0067969
0.00134645
-0.00193371
0.00466193
0.00318231
0.00351047
0.0011115
0.00358744
-0.000752143
0.00329956
-0.000780335
0.00261323
-0.000539037
0.00173877
-0.000327855
0.000795957
-0.000113417
-0.000125155
8.71349e-05
-0.000896867
0.000209697
-0.00144169
0.000233592
-0.00178051
0.000239693
-0.00195936
0.000228611
-0.00205482
0.000199282
-0.00210868
0.000167629
-0.00214758
0.000135629
-0.00219082
0.000102776
-0.0022458
7.16022e-05
-0.00230949
4.54715e-05
-0.00237612
2.65572e-05
-0.00244042
1.45562e-05
-0.00249853
8.088e-06
-0.00254925
6.35099e-06
-0.00259453
8.90948e-06
-0.00263876
1.61215e-05
-0.00268527
2.99457e-05
-0.00273468
5.35814e-05
-0.00278586
9.11547e-05
-0.00283936
0.000151244
-0.00289393
0.00024331
-0.00294784
0.000381304
-0.00299995
0.000585792
-0.003049
0.000882857
-0.00308203
0.00128588
-0.00305925
0.00175172
-0.00295203
0.0021333
-0.00262847
0.00197943
-0.00136528
8.32226e-05
-0.00323527
-0.000252347
0.00350761
0.000243919
0.000615317
-0.000579476
7.14013e-05
-0.00135576
-3.93726e-06
-0.0019651
7.03998e-05
-0.00244298
0.000150117
-0.00277323
0.000216915
-0.0029506
0.000264565
-0.00302179
0.000280945
-0.00304694
0.000258782
-0.00303308
0.00022586
-0.00299734
0.000192895
-0.00296105
0.000163012
-0.00293306
0.000139647
-0.00291858
0.000121157
-0.00292079
0.000104986
-0.00293927
9.0082e-05
-0.00297056
7.67507e-05
-0.00300979
6.57813e-05
-0.00305285
5.75951e-05
-0.00309699
5.22231e-05
-0.00314013
4.94707e-05
-0.00318017
4.89317e-05
-0.00321459
5.05254e-05
-0.00323988
5.52131e-05
-0.0032515
6.5173e-05
-0.00324417
8.37992e-05
-0.00320933
0.000116379
-0.00313525
0.000169196
-0.00300462
0.000250633
-0.00279257
0.000373706
-0.00246878
0.000559018
-0.00200126
0.000818312
-0.00134408
0.00109448
-0.000350657
0.00113983
0.001033
0.000595737
0.00166689
-0.00055069
-0.0014991
-0.00690317
-0.00979213
-0.00624596
-0.00561701
-0.00554039
-0.00554301
-0.00547377
-0.00532685
-0.00511495
-0.00485711
-0.00458454
-0.00433565
-0.00412102
-0.00394044
-0.00379063
-0.00366495
-0.00355843
-0.00346868
-0.0033944
-0.00333396
-0.00328494
-0.00324452
-0.00320983
-0.00317823
-0.00314744
-0.0031153
-0.00307861
-0.00303203
-0.00296678
-0.00286882
-0.00271782
-0.00248507
-0.00212887
-0.00158689
-0.000785114
0.000293318
0.00141731
0.00199689
0.00142931
)
;

boundaryField
{
    floor
    {
        type            calculated;
        value           nonuniform List<scalar> 
29
(
0
0
0
0
0
0
0
0
0
0
0
0
0
0
0
0
0
0
0
0
-2.41868e-06
-6.83816e-06
-1.0989e-05
-1.4878e-05
-1.64338e-06
-2.16723e-06
-6.4522e-06
-7.63897e-06
-6.92029e-06
)
;
    }
    ceiling
    {
        type            calculated;
        value           nonuniform List<scalar> 
43
(
-4.09879e-05
-3.97459e-05
-3.84725e-05
-1.3564e-05
-5.13119e-06
-1.2481e-06
1.22775e-06
3.25305e-06
5.06697e-06
6.77095e-06
8.41e-06
9.93277e-06
1.12488e-05
1.23339e-05
1.3224e-05
1.39753e-05
1.46383e-05
1.52439e-05
1.58014e-05
1.63078e-05
1.67617e-05
1.71678e-05
1.75329e-05
1.78598e-05
1.81427e-05
1.83679e-05
1.85176e-05
1.85771e-05
1.85393e-05
1.84045e-05
1.81776e-05
1.78649e-05
1.74726e-05
1.70112e-05
1.65086e-05
1.60151e-05
1.58022e-05
1.61367e-05
1.68738e-05
1.83871e-05
1.09268e-05
7.95257e-06
-7.29431e-05
)
;
    }
    sWall
    {
        type            calculated;
        value           uniform -0.000270198;
    }
    nWall
    {
        type            calculated;
        value           nonuniform List<scalar> 6(-4.31167e-05 -5.23521e-05 -5.99067e-05 -6.37358e-05 -6.92914e-05 -8.81899e-05);
    }
    sideWalls
    {
        type            empty;
        value           nonuniform 0();
    }
    glass1
    {
        type            calculated;
        value           nonuniform List<scalar> 9(-5.54362e-05 -0.000150031 -0.000230443 -0.00029952 -0.000358519 -0.00040837 -0.000453749 -0.000508052 -0.000568287);
    }
    glass2
    {
        type            calculated;
        value           nonuniform List<scalar> 2(-0.000226991 -0.00024792);
    }
    sun
    {
        type            calculated;
        value           uniform 0;
    }
    heatsource1
    {
        type            calculated;
        value           nonuniform List<scalar> 3(2.03209e-07 2.03254e-07 2.03277e-07);
    }
    heatsource2
    {
        type            calculated;
        value           nonuniform List<scalar> 4(5.10821e-08 5.11651e-08 0 0);
    }
    Table_master
    {
        type            calculated;
        value           nonuniform List<scalar> 9(-1.5255e-07 -1.52705e-07 -1.52753e-07 -1.52783e-07 -1.52803e-07 -1.52814e-07 -1.52817e-07 -1.52808e-07 -1.52745e-07);
    }
    Table_slave
    {
        type            calculated;
        value           nonuniform List<scalar> 9(1.52455e-07 1.525e-07 1.52491e-07 1.52489e-07 1.52489e-07 1.52501e-07 1.52529e-07 1.52577e-07 1.52655e-07);
    }
    inlet
    {
        type            calculated;
        value           uniform -0.00625411;
    }
    outlet
    {
        type            calculated;
        value           nonuniform List<scalar> 2(0.00721443 0.00292879);
    }
}


// ************************************************************************* //
