// -*- C++ -*-
// File generated by PyFoam - sorry for the ugliness

FoamFile
{
 version 2.0;
 format ascii;
 class volVectorField;
 location "200";
 object U;
}

dimensions [ 0 1 -1 0 0 0 0 ];

internalField nonuniform List<vector> 459
(
  (0.0412672 0.0834173 0)
  (-0.16198 0.023092 0)
  (-0.182526 0.0173553 0)
  (-0.212564 0.0129796 0)
  (-0.236067 0.0080234 0)
  (-0.252417 0.00278439 0)
  (-0.26056 -0.00285329 0)
  (-0.259001 -0.0089991 0)
  (-0.247 -0.0156945 0)
  (-0.224818 -0.022328 0)
  (-0.193829 -0.0280571 0)
  (-0.156253 -0.0324599 0)
  (-0.114722 -0.0361364 0)
  (-0.0752292 -0.0411852 0)
  (-0.0565215 -0.0489041 0)
  (0.0113927 0.00760125 0)
  (-0.014135 -0.0188602 0)
  (0.0124232 -0.0245289 0)
  (0.0295919 -0.017109 0)
  (0.0437193 -0.0110249 0)
  (0.0528883 -0.00688838 0)
  (0.0575714 -0.00421539 0)
  (0.0595158 -0.0028247 0)
  (0.060213 -0.00217064 0)
  (0.0604562 -0.00182392 0)
  (0.0604744 -0.00159337 0)
  (0.0602754 -0.00139239 0)
  (0.0597881 -0.00113944 0)
  (0.0588049 -0.000673676 0)
  (0.0567761 0.000379731 0)
  (0.0525631 0.00253713 0)
  (0.0449315 0.0046274 0)
  (0.039714 0.0053154 0)
  (-0.0198411 0.0190177 0)
  (0.219576 0.171409 0)
  (-0.154569 0.061248 0)
  (-0.147502 0.0501175 0)
  (-0.178737 0.0410898 0)
  (-0.201742 0.0309123 0)
  (-0.217952 0.0197065 0)
  (-0.226476 0.00698804 0)
  (-0.225687 -0.00755316 0)
  (-0.214818 -0.0231913 0)
  (-0.194595 -0.0378289 0)
  (-0.166865 -0.049183 0)
  (-0.134527 -0.0558867 0)
  (-0.101059 -0.0580885 0)
  (-0.0714748 -0.0573827 0)
  (-0.0524137 -0.0530199 0)
  (-0.0358305 -0.0308689 0)
  (-0.0115191 -0.00376394 0)
  (0.0802378 0.0170015 0)
  (0.0394626 -0.0190951 0)
  (0.0421362 -0.0264264 0)
  (0.0519057 -0.0207868 0)
  (0.0591709 -0.0132176 0)
  (0.0632633 -0.00682648 0)
  (0.064586 -0.00221494 0)
  (0.0645007 0.000233112 0)
  (0.064285 0.00133666 0)
  (0.064279 0.00190311 0)
  (0.0643501 0.0022819 0)
  (0.0643774 0.00260666 0)
  (0.0643375 0.00304962 0)
  (0.064179 0.00394235 0)
  (0.0633619 0.00616505 0)
  (0.0594703 0.0123697 0)
  (0.0496354 0.0171359 0)
  (0.0464992 0.0188297 0)
  (-0.0553285 0.0419215 0)
  (0.382163 0.25687 0)
  (-0.175752 0.0988738 0)
  (-0.110907 0.0815192 0)
  (-0.141747 0.0646189 0)
  (-0.161774 0.0476685 0)
  (-0.176493 0.0294801 0)
  (-0.184775 0.0088402 0)
  (-0.184035 -0.0147288 0)
  (-0.173084 -0.039742 0)
  (-0.153482 -0.0624421 0)
  (-0.127765 -0.0790768 0)
  (-0.0991263 -0.0877492 0)
  (-0.0707598 -0.0884948 0)
  (-0.0458651 -0.0825063 0)
  (-0.0266762 -0.069213 0)
  (-0.0110906 -0.0451722 0)
  (0.00764148 -0.0148967 0)
  (0.10141 -0.0537286 0)
  (0.0629881 -0.0463514 0)
  (0.0600081 -0.0368329 0)
  (0.0638998 -0.0270219 0)
  (0.0663942 -0.0178113 0)
  (0.0673751 -0.0103517 0)
  (0.0660348 -0.00860313 0)
  (0.0634704 -0.00644847 0)
  (0.0619468 -0.00532685 0)
  (0.0614945 -0.00471037 0)
  (0.0615314 -0.00432329 0)
  (0.0617975 -0.00401556 0)
  (0.0623582 -0.00364975 0)
  (0.0636759 -0.00291672 0)
  (0.0669375 6.15396e-05 0)
  (0.0651128 0.0172445 0)
  (0.0514807 0.0288645 0)
  (0.0545139 0.0352342 0)
  (-0.0852606 0.0663881 0)
  (0.52686 0.325816 0)
  (-0.213898 0.133153 0)
  (-0.0719831 0.108091 0)
  (-0.102419 0.0843139 0)
  (-0.116553 0.0628369 0)
  (-0.127508 0.0397659 0)
  (-0.134106 0.0124848 0)
  (-0.131696 -0.0201921 0)
  (-0.119224 -0.0549476 0)
  (-0.100002 -0.0851077 0)
  (-0.0772561 -0.105743 0)
  (-0.0538456 -0.115192 0)
  (-0.0320444 -0.113989 0)
  (-0.0133545 -0.104013 0)
  (0.00256067 -0.0856358 0)
  (0.0175514 -0.060891 0)
  (0.0384671 -0.035585 0)
  (0.0692705 -0.00763308 0)
  (0.080196 -0.0392293 0)
  (0.0678415 -0.0398787 0)
  (0.0619448 -0.0321661 0)
  (0.0609726 -0.024628 0)
  (0.0611409 -0.0172121 0)
  (0.0625512 -0.00904533 0)
  (0.0662866 -0.00595376 0)
  (0.0716823 -0.00547399 0)
  (0.0766413 -0.00518625 0)
  (0.0808769 -0.00478985 0)
  (0.0841787 -0.0040181 0)
  (0.0858607 -0.00267016 0)
  (0.0844483 -0.000542882 0)
  (0.0786899 0.0025956 0)
  (0.0660687 0.00725195 0)
  (0.0542622 0.0276475 0)
  (0.0420972 0.0443266 0)
  (0.0585748 0.0564825 0)
  (-0.118503 0.0888994 0)
  (0.649907 0.379748 0)
  (-0.257661 0.162263 0)
  (-0.0332779 0.1233 0)
  (-0.0613789 0.0956201 0)
  (-0.0674673 0.071778 0)
  (-0.0721392 0.0459561 0)
  (-0.074959 0.0139742 0)
  (-0.0666783 -0.0270272 0)
  (-0.0514178 -0.0704695 0)
  (-0.0337778 -0.105379 0)
  (-0.0164423 -0.127062 0)
  (-0.000958042 -0.135078 0)
  (0.0116899 -0.130782 0)
  (0.0212952 -0.117582 0)
  (0.0290265 -0.0979758 0)
  (0.0366768 -0.0748404 0)
  (0.0465965 -0.0529919 0)
  (0.0578084 -0.0404036 0)
  (0.0614919 -0.0425721 0)
  (0.056724 -0.037796 0)
  (0.0507544 -0.0300855 0)
  (0.047294 -0.0231929 0)
  (0.0458623 -0.0172526 0)
  (0.0464876 -0.0119326 0)
  (0.0492159 -0.00830441 0)
  (0.0535534 -0.00686416 0)
  (0.0580285 -0.00630604 0)
  (0.0623571 -0.00548786 0)
  (0.0662691 -0.00360852 0)
  (0.0691442 -5.71088e-05 0)
  (0.0699704 0.00517919 0)
  (0.067747 0.0120327 0)
  (0.0620241 0.0210503 0)
  (0.0546893 0.0370359 0)
  (0.0439305 0.0557957 0)
  (0.0662465 0.076013 0)
  (-0.0227123 0.10255 0)
  (0.0443426 0.0292768 0)
  (-0.0643448 -0.0358308 0)
  (-0.27307 -0.0584291 0)
  (0.73696 0.425397 0)
  (-0.298273 0.182977 0)
  (-0.00421474 0.119595 0)
  (-0.0190024 0.0972307 0)
  (-0.015583 0.0749218 0)
  (-0.0124401 0.0484155 0)
  (-0.00940331 0.0126914 0)
  (0.0129348 -0.0401581 0)
  (0.0293487 -0.0871501 0)
  (0.0421354 -0.120856 0)
  (0.0507919 -0.139354 0)
  (0.0552623 -0.143789 0)
  (0.0562218 -0.136732 0)
  (0.054763 -0.121408 0)
  (0.0520719 -0.100895 0)
  (0.0495738 -0.0784098 0)
  (0.0483795 -0.0575534 0)
  (0.04791 -0.0427351 0)
  (0.0447817 -0.0360133 0)
  (0.0382774 -0.0306925 0)
  (0.0315397 -0.0249266 0)
  (0.027087 -0.0199919 0)
  (0.0250878 -0.0161363 0)
  (0.0254165 -0.0130666 0)
  (0.0277277 -0.0112204 0)
  (0.031356 -0.0109117 0)
  (0.0355013 -0.0109973 0)
  (0.0399034 -0.0104031 0)
  (0.0444014 -0.00824354 0)
  (0.0486735 -0.00365321 0)
  (0.0524831 0.00375418 0)
  (0.0541141 0.0132608 0)
  (0.0539864 0.0247416 0)
  (0.0538415 0.0399068 0)
  (0.0518697 0.058331 0)
  (0.0744972 0.0814892 0)
  (0.0526503 0.098038 0)
  (0.0929283 0.0679934 0)
  (0.116463 0.0444131 0)
  (-0.131852 -0.00914043 0)
  (0.782668 0.467029 0)
  (-0.317597 0.170094 0)
  (0.0199785 0.0707797 0)
  (0.0372577 0.0777964 0)
  (0.0484879 0.0690227 0)
  (0.0589805 0.0408301 0)
  (0.080618 -0.00455428 0)
  (0.104393 -0.0573293 0)
  (0.117976 -0.0999164 0)
  (0.122347 -0.127713 0)
  (0.119192 -0.140553 0)
  (0.110199 -0.140362 0)
  (0.0973111 -0.130108 0)
  (0.082535 -0.113052 0)
  (0.0675256 -0.0922269 0)
  (0.0537102 -0.0706921 0)
  (0.041854 -0.0511147 0)
  (0.0320948 -0.0365061 0)
  (0.0229861 -0.027967 0)
  (0.0143853 -0.02294 0)
  (0.00743972 -0.0192284 0)
  (0.00304934 -0.01665 0)
  (0.00101184 -0.0150612 0)
  (0.000970489 -0.0141501 0)
  (0.002491 -0.0140091 0)
  (0.00497248 -0.0146006 0)
  (0.00793629 -0.0151969 0)
  (0.0112917 -0.015028 0)
  (0.0151507 -0.0132807 0)
  (0.0196685 -0.00891117 0)
  (0.0256586 -0.000809349 0)
  (0.0322514 0.0100839 0)
  (0.0376752 0.0221026 0)
  (0.0443948 0.0357775 0)
  (0.0516827 0.0509709 0)
  (0.0741087 0.0697451 0)
  (0.0868485 0.0766391 0)
  (0.119014 0.0530275 0)
  (0.158877 0.0439146 0)
  (-0.0358066 0.0936682 0)
  (0.885395 0.472369 0)
  (-0.0798954 0.150543 0)
  (0.101488 -0.00384556 0)
  (0.162244 -0.00507291 0)
  (0.167191 0.00153892 0)
  (0.171775 -0.0216766 0)
  (0.198958 -0.055326 0)
  (0.215201 -0.0860184 0)
  (0.215324 -0.109509 0)
  (0.202488 -0.123436 0)
  (0.180774 -0.127053 0)
  (0.153674 -0.121346 0)
  (0.124219 -0.108562 0)
  (0.094981 -0.0912304 0)
  (0.0676603 -0.0716347 0)
  (0.0435943 -0.0524167 0)
  (0.0231179 -0.0354603 0)
  (0.00739047 -0.0235048 0)
  (-0.0049037 -0.0171948 0)
  (-0.013175 -0.0149136 0)
  (-0.0189807 -0.0139776 0)
  (-0.0227677 -0.0137645 0)
  (-0.0250191 -0.0140391 0)
  (-0.0261063 -0.0146348 0)
  (-0.0263685 -0.0155347 0)
  (-0.0261815 -0.0166419 0)
  (-0.0258003 -0.0176234 0)
  (-0.0252348 -0.0180535 0)
  (-0.024279 -0.0174351 0)
  (-0.0225139 -0.0151666 0)
  (-0.0189257 -0.0105252 0)
  (-0.00957297 -0.00271289 0)
  (0.000118849 0.00736018 0)
  (0.0109972 0.0167832 0)
  (0.022948 0.0242523 0)
  (0.0436355 0.0316655 0)
  (0.0626331 0.0238593 0)
  (0.0823218 -0.00507314 0)
  (0.141607 0.0394527 0)
  (-0.414517 0.20683 0)
  (1.02766 0.428295 0)
  (0.491442 0.283907 0)
  (0.502425 0.197006 0)
  (0.509845 0.140159 0)
  (0.47049 0.100185 0)
  (0.432469 0.0577183 0)
  (0.398287 0.0119563 0)
  (0.356751 -0.0298109 0)
  (0.30979 -0.0610913 0)
  (0.259993 -0.0794282 0)
  (0.210057 -0.0853768 0)
  (0.161901 -0.0814988 0)
  (0.117039 -0.0711401 0)
  (0.0768174 -0.0571019 0)
  (0.0416569 -0.0412809 0)
  (0.012591 -0.0263397 0)
  (-0.0117406 -0.0139919 0)
  (-0.0256051 -0.00908463 0)
  (-0.0346456 -0.0080363 0)
  (-0.0408735 -0.00860992 0)
  (-0.0456659 -0.00956374 0)
  (-0.0495118 -0.0106399 0)
  (-0.0527355 -0.0117752 0)
  (-0.0555995 -0.0129466 0)
  (-0.0583625 -0.0141448 0)
  (-0.0613071 -0.0152704 0)
  (-0.0646951 -0.0160713 0)
  (-0.0687576 -0.0161572 0)
  (-0.0737657 -0.0149839 0)
  (-0.0801218 -0.0118378 0)
  (-0.0883288 -0.00590993 0)
  (-0.0986847 0.00341534 0)
  (-0.108563 0.0153031 0)
  (-0.123075 0.0296993 0)
  (-0.146747 0.0466602 0)
  (-0.182069 0.06512 0)
  (-0.232629 0.0810385 0)
  (-0.290309 0.0919973 0)
  (-0.359351 0.0980166 0)
  (-0.622206 0.0996988 0)
  (-0.202711 0.0331818 0)
  (0.146046 0.068712 0)
  (0.241222 0.049032 0)
  (0.236266 0.0210904 0)
  (0.220528 -0.00548103 0)
  (0.206642 -0.0250971 0)
  (0.182743 -0.0373087 0)
  (0.151451 -0.0430753 0)
  (0.115928 -0.0428272 0)
  (0.0789518 -0.0377545 0)
  (0.0430159 -0.0294568 0)
  (0.00982883 -0.0186863 0)
  (-0.0204521 -0.00652431 0)
  (-0.0400803 0.000352074 0)
  (-0.0519738 0.00270196 0)
  (-0.0584401 0.00207034 0)
  (-0.0630694 0.000544591 0)
  (-0.0671253 -0.00126432 0)
  (-0.071031 -0.0029292 0)
  (-0.074984 -0.00439868 0)
  (-0.0790846 -0.00567348 0)
  (-0.0834349 -0.00674173 0)
  (-0.0881463 -0.00755443 0)
  (-0.0933228 -0.00798254 0)
  (-0.0990189 -0.00779334 0)
  (-0.105198 -0.00666557 0)
  (-0.111713 -0.00422113 0)
  (-0.118288 -6.94843e-05 0)
  (-0.124378 0.00614649 0)
  (-0.128776 0.0149935 0)
  (-0.132092 0.0276321 0)
  (-0.134754 0.044344 0)
  (-0.137739 0.0641113 0)
  (-0.141678 0.0832016 0)
  (-0.143501 0.0915491 0)
  (-0.126303 0.0681943 0)
  (-0.0832818 -0.0263961 0)
  (-0.280448 -0.204572 0)
  (-0.0480908 0.215761 0)
  (0.0609984 0.109914 0)
  (0.0399753 0.0437876 0)
  (0.0437462 0.0265004 0)
  (0.0474844 0.0140286 0)
  (0.0451312 0.00122842 0)
  (0.0353735 -0.00871732 0)
  (0.0175958 -0.013236 0)
  (-0.00630031 -0.0112831 0)
  (-0.0310305 -0.00625258 0)
  (-0.0522744 -0.00214683 0)
  (-0.0676269 -0.000155803 0)
  (-0.0761993 -0.000780249 0)
  (-0.0795304 -0.00370183 0)
  (-0.0812038 -0.00733573 0)
  (-0.0824867 -0.0110083 0)
  (-0.0840894 -0.0137644 0)
  (-0.0861541 -0.0154434 0)
  (-0.0887571 -0.0162312 0)
  (-0.0918184 -0.0166821 0)
  (-0.0953174 -0.0169219 0)
  (-0.0992127 -0.0169943 0)
  (-0.103446 -0.0168957 0)
  (-0.107924 -0.01656 0)
  (-0.112484 -0.0158356 0)
  (-0.116848 -0.014467 0)
  (-0.120596 -0.012075 0)
  (-0.123143 -0.00811452 0)
  (-0.123746 -0.00195534 0)
  (-0.121514 0.00672286 0)
  (-0.114997 0.0187526 0)
  (-0.102923 0.0348296 0)
  (-0.0851049 0.0544487 0)
  (-0.0625973 0.0734764 0)
  (-0.0383173 0.0845533 0)
  (0.00178951 0.0687197 0)
  (0.143803 -0.0032345 0)
  (-0.208153 -0.115878 0)
  (-0.0653897 -0.32987 0)
  (-0.419584 -0.118063 0)
  (-0.306631 0.0827277 0)
  (-0.219626 -0.0181766 0)
  (-0.168289 -0.0399954 0)
  (-0.136466 -0.035664 0)
  (-0.120537 -0.0318468 0)
  (-0.115519 -0.0266795 0)
  (-0.115997 -0.0180387 0)
  (-0.120119 -0.00817037 0)
  (-0.123018 0.00134613 0)
  (-0.122094 0.0094655 0)
  (-0.11856 0.0167141 0)
  (-0.113123 0.0234676 0)
  (-0.106701 0.0294241 0)
  (-0.100626 0.0342835 0)
  (-0.0958441 0.0381798 0)
  (-0.0926602 0.0409821 0)
  (-0.0910035 0.0425235 0)
  (-0.0905858 0.0428005 0)
  (-0.0911134 0.0420048 0)
  (-0.0924015 0.0408561 0)
  (-0.0943061 0.0395116 0)
  (-0.0967158 0.038051 0)
  (-0.0995235 0.0365331 0)
  (-0.102595 0.0350142 0)
  (-0.105732 0.0335546 0)
  (-0.108628 0.0322136 0)
  (-0.11083 0.0310416 0)
  (-0.11163 0.0300864 0)
  (-0.109819 0.029682 0)
  (-0.103357 0.0308874 0)
  (-0.0897408 0.0344735 0)
  (-0.0670791 0.0413061 0)
  (-0.0359468 0.0518669 0)
  (0.0131807 0.0659358 0)
  (0.0593361 0.067444 0)
  (0.102818 0.0519828 0)
  (0.164733 0.0217423 0)
  (-0.216042 -0.034822 0)
)
;

boundaryField
{
  floor
  {
    type noSlip;
  }
  ceiling
  {
    type noSlip;
  }
  sWall
  {
    type noSlip;
  }
  nWall
  {
    type noSlip;
  }
  sideWalls
  {
    type empty;
  }
  glass1
  {
    type noSlip;
  }
  glass2
  {
    type noSlip;
  }
  sun
  {
    type noSlip;
  }
  heatsource1
  {
    type noSlip;
  }
  heatsource2
  {
    type noSlip;
  }
  Table_master
  {
    type noSlip;
  }
  Table_slave
  {
    type noSlip;
  }
  inlet
  {
    type fixedValue;
    value uniform (0.277164 -0.114805 0);
  }
  outlet
  {
    type zeroGradient;
  }
} 	// ************************************************************************* //

