/*--------------------------------*- C++ -*----------------------------------*\
  =========                 |
  \\      /  F ield         | OpenFOAM: The Open Source CFD Toolbox
   \\    /   O peration     | Website:  https://openfoam.org
    \\  /    A nd           | Version:  6
     \\/     M anipulation  |
\*---------------------------------------------------------------------------*/
FoamFile
{
    version     2.0;
    format      ascii;
    class       volScalarField;
    location    "600";
    object      alphat;
}
// * * * * * * * * * * * * * * * * * * * * * * * * * * * * * * * * * * * * * //

dimensions      [1 -1 -1 0 0 0 0];

internalField   nonuniform List<scalar> 
459
(
0.000823677
0.00085848
0.00084607
0.000872749
0.000895141
0.000913617
0.000929054
0.000942328
0.000954314
0.000966027
0.000974332
0.000978056
0.000977018
0.000972853
0.000966049
0.000728104
0.000683982
0.000651084
0.000629145
0.000612775
0.000596304
0.000575831
0.000555481
0.000535827
0.000516804
0.000498443
0.000480748
0.000463651
0.000446973
0.000430346
0.000413146
0.000394156
0.000379918
0.000348509
0.00125585
0.00193137
0.00162334
0.00188505
0.00200884
0.00214135
0.00227373
0.00239467
0.00248807
0.00253256
0.00254085
0.00248388
0.00232357
0.0020082
0.00149752
0.000983175
0.000918776
0.000842982
0.00138025
0.00176702
0.00203294
0.00216073
0.0021167
0.00178729
0.00159217
0.0014377
0.00130961
0.00119906
0.00110109
0.00101115
0.000923599
0.000833901
0.000754672
0.000687499
0.000811264
0.000446752
0.00165627
0.00291535
0.00175392
0.00263034
0.00282291
0.00295995
0.00306585
0.00314623
0.00320544
0.00323971
0.00324952
0.00320894
0.0030837
0.00283166
0.00240992
0.00181511
0.00106012
0.000945569
0.00246572
0.00292001
0.0030396
0.00300647
0.00259027
0.000706407
0.000628577
0.000570135
0.000525419
0.00049036
0.000462189
0.000439229
0.0004208
0.000407593
0.000467242
0.000552281
0.000921587
0.000520755
0.00207425
0.00446035
0.00170005
0.00295264
0.00327527
0.0033904
0.00345167
0.00348588
0.00350984
0.00352907
0.00354414
0.00353796
0.00348476
0.00335107
0.00308546
0.00260253
0.0018247
0.00105479
0.00268778
0.00301959
0.003186
0.00319807
0.00311787
0.00267858
0.000709585
0.000676308
0.000665427
0.000660836
0.000653794
0.000638893
0.000618143
0.000595142
0.000565949
0.000544053
0.000563082
0.00107933
0.000580639
0.00250424
0.00654475
0.00208503
0.00281486
0.00347156
0.00360034
0.00363499
0.00363572
0.00363184
0.0036422
0.0036653
0.00369726
0.0037085
0.00366806
0.0035457
0.00332904
0.0030622
0.00281182
0.00272038
0.00298141
0.00305339
0.00304509
0.00301012
0.00292866
0.00264441
0.00262686
0.00265072
0.00265861
0.00262696
0.00254082
0.00234481
0.00203784
0.00166606
0.00127242
0.000955687
0.00103364
0.000737147
0.000746819
0.000888835
0.000988491
0.00294485
0.00879661
0.00361895
0.00242762
0.00329443
0.00361006
0.00370923
0.00372254
0.00368534
0.00365198
0.00367548
0.00374139
0.00379506
0.00380083
0.00371524
0.00348311
0.00308224
0.00263146
0.00245586
0.00286268
0.00293006
0.00288962
0.00286627
0.00288587
0.00292955
0.00300838
0.00307643
0.00311273
0.00310905
0.0030626
0.00295751
0.00272259
0.00236544
0.00190478
0.00145801
0.00110881
0.000922962
0.000854908
0.00128323
0.00103057
0.00339526
0.0106622
0.00682772
0.00340718
0.00258601
0.00282547
0.00325095
0.00358114
0.00378211
0.00362927
0.00366799
0.00374596
0.00381086
0.00383793
0.00378769
0.00358273
0.00313846
0.00253189
0.00222827
0.0027991
0.00290085
0.00283503
0.0027967
0.00282241
0.00289263
0.00297962
0.00305549
0.00310487
0.00312795
0.0031303
0.00311803
0.00300228
0.00271417
0.00229238
0.00187108
0.00147187
0.00123806
0.00120876
0.00131595
0.00114035
0.00351773
0.0108556
0.0087153
0.00668397
0.00480146
0.00365419
0.00327486
0.0033639
0.00363765
0.00369283
0.00371498
0.00374981
0.00378666
0.00379891
0.00374712
0.00357202
0.00316811
0.00249553
0.00203857
0.0027611
0.00293766
0.00285169
0.00278661
0.00278385
0.00281821
0.00286373
0.00290575
0.00294069
0.00297617
0.00302635
0.00310583
0.00319347
0.00306568
0.002711
0.0024176
0.00232041
0.00254088
0.00326873
0.0043908
0.00182417
0.00345608
0.00422198
0.00472945
0.00489735
0.00472553
0.00433201
0.00396647
0.00374329
0.00365921
0.00362748
0.0036453
0.00368447
0.00371465
0.00370619
0.00362956
0.0034452
0.00305367
0.00236396
0.00185373
0.00270259
0.00300646
0.00289607
0.00278913
0.00273838
0.00271597
0.00269956
0.00267837
0.00264876
0.00261125
0.00256757
0.00251871
0.00246549
0.00241513
0.0023882
0.00242561
0.00251333
0.00256739
0.00250405
0.00234622
0.00168431
0.00253673
0.00421342
0.00455634
0.00449488
0.00432489
0.00416265
0.00404535
0.00395309
0.00387468
0.0037943
0.00369381
0.00355807
0.00337536
0.00312585
0.00271809
0.00203417
0.00158289
0.00264014
0.00306891
0.00293179
0.00278724
0.0026988
0.0026349
0.00258061
0.00253089
0.00248384
0.00244086
0.00240742
0.00239277
0.00240659
0.00244068
0.00248947
0.0025474
0.00258066
0.00253264
0.00237579
0.00211831
0.00136967
0.00269078
0.0048177
0.0050449
0.00487349
0.00467695
0.00446927
0.00426122
0.00405738
0.00380843
0.00351675
0.00320761
0.00289566
0.0025888
0.00228489
0.00194297
0.00147775
0.00125325
0.00221366
0.0025281
0.00242509
0.00231007
0.00223519
0.00218834
0.00216981
0.00218161
0.00222153
0.00228292
0.0023549
0.00242135
0.00250563
0.00260527
0.00271291
0.0028145
0.00289665
0.00290953
0.00295862
0.00268222
0.00138577
0.00234172
0.00246715
0.00257313
0.00272579
0.00257701
0.00237254
0.00220177
0.00204696
0.00190055
0.0017617
0.00163856
0.00152876
0.00142505
0.00132358
0.00122239
0.00112081
0.0010186
0.000911667
0.000745229
0.000759174
0.000771142
0.000775044
0.000783263
0.000797561
0.000817248
0.000841879
0.000871166
0.000905041
0.000943882
0.000988844
0.0010425
0.00110272
0.00116998
0.00124445
0.00132631
0.00143465
0.00147006
0.00143896
0.00134539
0.00124428
)
;

boundaryField
{
    floor
    {
        type            compressible::alphatWallFunction;
        Prt             0.85;
        value           nonuniform List<scalar> 
29
(
0.000137483
0.000103296
9.68206e-05
9.19596e-05
8.87013e-05
8.62611e-05
8.37976e-05
8.07236e-05
7.76547e-05
7.46775e-05
7.17827e-05
6.89762e-05
6.6259e-05
6.36217e-05
6.10373e-05
5.84483e-05
5.57567e-05
5.27683e-05
5.05157e-05
4.55078e-05
4.55071e-05
6.10013e-05
7.23819e-05
8.14425e-05
0.000137482
0.000103295
0.000119942
0.000134581
0.000149964
)
;
    }
    ceiling
    {
        type            compressible::alphatWallFunction;
        Prt             0.85;
        value           nonuniform List<scalar> 
43
(
0.000321169
0.000337186
0.000350655
0.000370048
0.000351276
0.000325262
0.000303341
0.000283306
0.000264205
0.000245942
0.000229612
0.000214936
0.000200966
0.000187187
0.000173326
0.000159279
0.000144997
0.000129876
0.00010592
0.000107944
0.000109685
0.000110252
0.000111444
0.000113514
0.000116357
0.000119903
0.000124103
0.000128941
0.000134462
0.00014082
0.000148364
0.000156776
0.000166111
0.000176375
0.000187576
0.000202284
0.000207064
0.000202867
0.000190178
0.000176355
0.000461159
0.000554345
0.000365455
)
;
    }
    sWall
    {
        type            compressible::alphatWallFunction;
        Prt             0.85;
        value           uniform 0.000319949;
    }
    nWall
    {
        type            compressible::alphatWallFunction;
        Prt             0.85;
        value           nonuniform List<scalar> 6(0.000140423 0.000146337 0.000161647 0.000193129 0.000195313 0.000176006);
    }
    sideWalls
    {
        type            empty;
    }
    glass1
    {
        type            compressible::alphatWallFunction;
        Prt             0.85;
        value           nonuniform List<scalar> 9(0.000113813 0.000173449 0.000226786 0.000281085 0.000335825 0.000390962 0.000446489 0.000461588 0.000454273);
    }
    glass2
    {
        type            compressible::alphatWallFunction;
        Prt             0.85;
        value           nonuniform List<scalar> 2(0.000252108 0.000233787);
    }
    sun
    {
        type            compressible::alphatWallFunction;
        Prt             0.85;
        value           nonuniform List<scalar> 
14
(
0.000117188
0.000122172
0.00012039
0.000124215
0.000127414
0.000130047
0.000132241
0.000134126
0.000135824
0.000137481
0.000138655
0.000139181
0.000139034
0.000138445
)
;
    }
    heatsource1
    {
        type            compressible::alphatWallFunction;
        Prt             0.85;
        value           nonuniform List<scalar> 3(0.000106171 0.000126658 0.000140799);
    }
    heatsource2
    {
        type            compressible::alphatWallFunction;
        Prt             0.85;
        value           nonuniform List<scalar> 4(0.000140048 0.000130924 0.000130922 0.000150859);
    }
    Table_master
    {
        type            compressible::alphatWallFunction;
        Prt             0.85;
        value           nonuniform List<scalar> 9(0.00010026 8.87545e-05 8.0001e-05 7.32285e-05 6.78681e-05 6.35258e-05 5.99619e-05 5.7084e-05 5.50117e-05);
    }
    Table_slave
    {
        type            compressible::alphatWallFunction;
        Prt             0.85;
        value           nonuniform List<scalar> 9(0.000100728 9.5831e-05 9.42236e-05 9.35446e-05 9.25018e-05 9.02909e-05 8.72011e-05 8.37613e-05 7.93719e-05);
    }
    inlet
    {
        type            fixedValue;
        value           uniform 1.94e-05;
    }
    outlet
    {
        type            zeroGradient;
    }
}


// ************************************************************************* //
