// -*- C++ -*-
// File generated by PyFoam - sorry for the ugliness

FoamFile
{
 version 2.0;
 format ascii;
 class volScalarField;
 location "100";
 object T;
}

dimensions [ 0 0 0 1 0 0 0 ];

internalField nonuniform List<scalar> 459
(
  302.685
  302.43
  302.415
  302.411
  302.408
  302.409
  302.425
  302.501
  302.577
  302.627
  302.66
  302.68
  302.696
  302.71
  302.726
  303.608
  303.535
  303.48
  303.475
  303.518
  303.555
  303.588
  303.619
  303.65
  303.681
  303.712
  303.742
  303.773
  303.805
  303.837
  303.87
  303.908
  303.957
  304.035
  302.829
  302.447
  302.406
  302.393
  302.385
  302.372
  302.384
  302.482
  302.6
  302.687
  302.742
  302.768
  302.777
  302.772
  302.76
  302.768
  302.777
  303.631
  303.507
  303.396
  303.413
  303.467
  303.522
  303.557
  303.591
  303.624
  303.657
  303.691
  303.726
  303.76
  303.795
  303.831
  303.868
  303.909
  303.962
  304.042
  302.987
  302.49
  302.429
  302.413
  302.397
  302.349
  302.341
  302.464
  302.628
  302.761
  302.844
  302.878
  302.88
  302.862
  302.833
  302.816
  302.805
  303.6
  303.356
  303.312
  303.369
  303.461
  303.546
  303.568
  303.596
  303.628
  303.663
  303.701
  303.74
  303.781
  303.823
  303.862
  303.903
  303.942
  303.987
  304.058
  303.153
  302.56
  302.485
  302.476
  302.449
  302.338
  302.304
  302.443
  302.66
  302.852
  302.972
  303.018
  303.013
  302.979
  302.93
  302.888
  302.852
  302.87
  302.954
  303.053
  303.203
  303.374
  303.534
  303.663
  303.765
  303.845
  303.915
  303.982
  304.046
  304.109
  304.171
  304.236
  304.297
  304.157
  304.073
  304.048
  304.083
  303.32
  302.659
  302.579
  302.593
  302.525
  302.327
  302.27
  302.426
  302.704
  302.965
  303.13
  303.191
  303.18
  303.126
  303.059
  303.002
  302.965
  302.989
  303.073
  303.219
  303.402
  303.592
  303.764
  303.907
  304.028
  304.122
  304.199
  304.261
  304.313
  304.356
  304.391
  304.419
  304.43
  304.323
  304.192
  304.12
  304.113
  304.17
  304.337
  304.732
  303.484
  302.787
  302.712
  302.743
  302.567
  302.307
  302.231
  302.421
  302.775
  303.116
  303.329
  303.403
  303.382
  303.31
  303.233
  303.18
  303.167
  303.234
  303.373
  303.551
  303.743
  303.926
  304.083
  304.21
  304.311
  304.392
  304.449
  304.492
  304.526
  304.551
  304.567
  304.57
  304.55
  304.448
  304.314
  304.219
  304.181
  304.221
  304.32
  304.645
  303.666
  302.974
  302.919
  302.884
  302.556
  302.22
  302.169
  302.443
  302.903
  303.33
  303.581
  303.659
  303.62
  303.542
  303.478
  303.454
  303.49
  303.609
  303.784
  303.967
  304.146
  304.303
  304.429
  304.526
  304.6
  304.645
  304.675
  304.697
  304.712
  304.719
  304.716
  304.702
  304.667
  304.577
  304.462
  304.363
  304.303
  304.321
  304.377
  304.564
  303.9
  303.396
  303.354
  302.984
  302.375
  301.998
  302.086
  302.536
  303.143
  303.648
  303.894
  303.938
  303.897
  303.847
  303.82
  303.839
  303.921
  304.071
  304.248
  304.414
  304.559
  304.674
  304.76
  304.816
  304.847
  304.863
  304.873
  304.877
  304.876
  304.868
  304.854
  304.831
  304.797
  304.74
  304.651
  304.566
  304.507
  304.525
  304.557
  304.706
  304.249
  303.994
  303.751
  302.54
  301.634
  301.531
  302.081
  302.852
  303.625
  304.093
  304.238
  304.251
  304.235
  304.227
  304.246
  304.304
  304.408
  304.548
  304.695
  304.823
  304.922
  304.989
  305.031
  305.052
  305.059
  305.058
  305.054
  305.046
  305.035
  305.021
  305.004
  304.985
  304.963
  304.935
  304.906
  304.89
  304.903
  304.939
  304.972
  305.078
  294.419
  296.101
  298.796
  301.079
  302.905
  303.926
  304.354
  304.528
  304.586
  304.606
  304.621
  304.648
  304.697
  304.77
  304.866
  304.972
  305.073
  305.153
  305.209
  305.242
  305.257
  305.259
  305.255
  305.246
  305.234
  305.221
  305.205
  305.187
  305.166
  305.14
  305.11
  305.077
  305.047
  305.031
  305.04
  305.081
  305.167
  305.566
  298.221
  301.214
  302.688
  303.716
  304.362
  304.691
  304.84
  304.913
  304.955
  304.987
  305.021
  305.063
  305.116
  305.178
  305.247
  305.315
  305.372
  305.414
  305.439
  305.451
  305.452
  305.447
  305.438
  305.426
  305.412
  305.397
  305.378
  305.356
  305.33
  305.299
  305.264
  305.226
  305.189
  305.159
  305.147
  305.188
  305.323
  305.539
  303.178
  303.081
  303.039
  304.27
  304.801
  305.034
  305.169
  305.255
  305.313
  305.356
  305.393
  305.425
  305.456
  305.488
  305.521
  305.554
  305.585
  305.611
  305.63
  305.641
  305.644
  305.642
  305.636
  305.627
  305.616
  305.603
  305.589
  305.573
  305.555
  305.534
  305.51
  305.483
  305.453
  305.421
  305.388
  305.359
  305.353
  305.434
  305.629
  305.896
)
;

boundaryField
{
  floor
  {
    type wallHeatTransfer;
    Tinf uniform 305.2;
    alphaWall uniform 0.24;
    value nonuniform List<scalar> 29
(
  302.959
  303.838
  303.748
  303.676
  303.658
  303.692
  303.728
  303.766
  303.804
  303.842
  303.878
  303.914
  303.949
  303.983
  304.017
  304.05
  304.085
  304.124
  304.173
  304.251
  304.251
  304.248
  304.258
  304.276
  302.959
  303.838
  303.861
  303.832
  303.08
)
;
  }
  ceiling
  {
    type wallHeatTransfer;
    Tinf uniform 303.2;
    alphaWall uniform 0.24;
    value nonuniform List<scalar> 43
(
  303.18
  303.089
  303.049
  304.211
  304.704
  304.915
  305.033
  305.106
  305.154
  305.191
  305.223
  305.252
  305.281
  305.311
  305.341
  305.371
  305.397
  305.419
  305.432
  305.438
  305.437
  305.431
  305.421
  305.41
  305.397
  305.382
  305.367
  305.349
  305.329
  305.307
  305.281
  305.253
  305.222
  305.19
  305.158
  305.13
  305.123
  305.193
  305.369
  305.607
  304.203
  303.963
  298.494
)
;
  }
  sWall
  {
    type wallHeatTransfer;
    Tinf uniform 315.2;
    alphaWall uniform 0.36;
    value uniform 304.326;
  }
  nWall
  {
    type wallHeatTransfer;
    Tinf uniform 307.2;
    alphaWall uniform 0.36;
    value nonuniform List<scalar> 6
(
  305.323
  305.146
  305.029
  305.799
  305.76
  306.096
)
;
  }
  sideWalls
  {
    type empty;
  }
  glass1
  {
    type wallHeatTransfer;
    Tinf uniform 315.2;
    alphaWall uniform 4.3;
    value nonuniform List<scalar> 9
(
  310.501
  309.932
  309.566
  309.285
  309.057
  308.87
  308.814
  308.945
  309.23
)
;
  }
  glass2
  {
    type wallHeatTransfer;
    Tinf uniform 307.2;
    alphaWall uniform 4.3;
    value nonuniform List<scalar> 2
(
  306.422
  306.517
)
;
  }
  sun
  {
    type wallHeatTransfer;
    Tinf uniform 305.2;
    alphaWall uniform 0.24;
    value nonuniform List<scalar> 14
(
  302.895
  302.641
  302.619
  302.604
  302.591
  302.584
  302.596
  302.667
  302.746
  302.8
  302.841
  302.871
  302.898
  302.925
)
;
  }
  heatsource1
  {
    type fixedGradient;
    gradient uniform 0;
  }
  heatsource2
  {
    type fixedGradient;
    gradient uniform 0;
  }
  Table_master
  {
    type zeroGradient;
  }
  Table_slave
  {
    type zeroGradient;
  }
  inlet
  {
    type fixedValue;
    value uniform 293.15;
  }
  outlet
  {
    type zeroGradient;
  }
} 	// ************************************************************************* //

