// -*- C++ -*-
// File generated by PyFoam - sorry for the ugliness

FoamFile
{
 version 2.0;
 format ascii;
 class volScalarField;
 location "400";
 object T;
}

dimensions [ 0 0 0 1 0 0 0 ];

internalField nonuniform List<scalar> 459
(
  303.475
  303.211
  303.199
  303.196
  303.194
  303.19
  303.187
  303.183
  303.176
  303.167
  303.155
  303.142
  303.13
  303.122
  303.118
  303.162
  303.145
  303.139
  303.139
  303.139
  303.14
  303.141
  303.142
  303.143
  303.143
  303.144
  303.144
  303.145
  303.145
  303.145
  303.145
  303.145
  303.146
  303.159
  303.657
  303.254
  303.232
  303.236
  303.241
  303.244
  303.244
  303.241
  303.232
  303.214
  303.19
  303.163
  303.139
  303.12
  303.107
  303.097
  303.086
  303.161
  303.138
  303.132
  303.131
  303.132
  303.131
  303.13
  303.128
  303.125
  303.123
  303.121
  303.119
  303.117
  303.115
  303.114
  303.114
  303.115
  303.118
  303.142
  303.845
  303.304
  303.266
  303.278
  303.294
  303.307
  303.316
  303.318
  303.306
  303.278
  303.237
  303.192
  303.154
  303.126
  303.11
  303.102
  303.097
  303.126
  303.126
  303.13
  303.134
  303.138
  303.139
  303.136
  303.133
  303.129
  303.126
  303.122
  303.119
  303.116
  303.112
  303.11
  303.109
  303.108
  303.109
  303.135
  304.033
  303.366
  303.3
  303.317
  303.345
  303.373
  303.396
  303.407
  303.394
  303.351
  303.287
  303.219
  303.165
  303.128
  303.109
  303.103
  303.104
  303.111
  303.117
  303.127
  303.138
  303.147
  303.154
  303.159
  303.163
  303.166
  303.17
  303.173
  303.175
  303.176
  303.176
  303.176
  303.174
  303.151
  303.129
  303.116
  303.134
  304.215
  303.444
  303.338
  303.347
  303.383
  303.426
  303.468
  303.494
  303.476
  303.414
  303.326
  303.235
  303.167
  303.125
  303.105
  303.101
  303.106
  303.116
  303.128
  303.143
  303.157
  303.169
  303.179
  303.186
  303.193
  303.198
  303.202
  303.206
  303.207
  303.207
  303.204
  303.199
  303.191
  303.174
  303.149
  303.127
  303.13
  303.193
  303.232
  303.241
  304.377
  303.545
  303.405
  303.388
  303.418
  303.464
  303.528
  303.56
  303.527
  303.443
  303.335
  303.233
  303.157
  303.112
  303.094
  303.097
  303.11
  303.128
  303.147
  303.167
  303.184
  303.198
  303.208
  303.216
  303.223
  303.228
  303.231
  303.234
  303.234
  303.231
  303.226
  303.217
  303.207
  303.19
  303.167
  303.142
  303.134
  303.158
  303.171
  303.204
  304.522
  303.708
  303.564
  303.519
  303.521
  303.551
  303.605
  303.608
  303.543
  303.429
  303.302
  303.192
  303.118
  303.082
  303.078
  303.094
  303.121
  303.149
  303.176
  303.199
  303.216
  303.23
  303.239
  303.246
  303.251
  303.255
  303.257
  303.258
  303.257
  303.252
  303.244
  303.233
  303.22
  303.204
  303.183
  303.16
  303.147
  303.152
  303.16
  303.187
  304.737
  304.127
  303.969
  303.86
  303.794
  303.772
  303.739
  303.644
  303.497
  303.334
  303.192
  303.094
  303.046
  303.04
  303.064
  303.103
  303.146
  303.184
  303.215
  303.236
  303.25
  303.26
  303.267
  303.272
  303.276
  303.278
  303.279
  303.278
  303.275
  303.27
  303.263
  303.252
  303.239
  303.225
  303.209
  303.193
  303.187
  303.198
  303.216
  303.345
  305.044
  304.761
  304.499
  304.268
  304.081
  303.922
  303.724
  303.468
  303.227
  303.051
  302.956
  302.93
  302.954
  303.011
  303.076
  303.141
  303.197
  303.231
  303.254
  303.268
  303.278
  303.285
  303.29
  303.294
  303.296
  303.297
  303.297
  303.296
  303.294
  303.292
  303.291
  303.292
  303.295
  303.303
  303.319
  303.342
  303.375
  303.408
  303.43
  303.484
  296.818
  299.261
  300.644
  301.194
  301.505
  301.808
  302.1
  302.369
  302.6
  302.788
  302.939
  303.073
  303.163
  303.218
  303.252
  303.272
  303.285
  303.294
  303.301
  303.305
  303.309
  303.312
  303.314
  303.315
  303.317
  303.318
  303.32
  303.322
  303.325
  303.328
  303.333
  303.342
  303.357
  303.376
  303.399
  303.421
  303.437
  303.454
  297.459
  299.469
  300.584
  301.26
  301.717
  302.074
  302.389
  302.666
  302.87
  303.02
  303.126
  303.198
  303.244
  303.272
  303.29
  303.301
  303.308
  303.313
  303.317
  303.32
  303.323
  303.326
  303.328
  303.33
  303.333
  303.335
  303.337
  303.34
  303.342
  303.345
  303.35
  303.357
  303.367
  303.38
  303.396
  303.413
  303.408
  303.436
  299.657
  299.583
  299.579
  301.233
  301.97
  302.364
  302.634
  302.833
  302.977
  303.081
  303.157
  303.211
  303.249
  303.274
  303.29
  303.3
  303.306
  303.311
  303.314
  303.318
  303.321
  303.323
  303.326
  303.329
  303.332
  303.334
  303.337
  303.34
  303.342
  303.345
  303.347
  303.35
  303.354
  303.358
  303.364
  303.375
  303.384
  303.389
  303.39
  303.427
)
;

boundaryField
{
  floor
  {
    type wallHeatTransfer;
    Tinf uniform 305.2;
    alphaWall uniform 0.24;
    value nonuniform List<scalar> 29
(
  303.323
  303.565
  303.5
  303.473
  303.478
  303.489
  303.502
  303.518
  303.535
  303.551
  303.567
  303.582
  303.597
  303.611
  303.624
  303.638
  303.652
  303.667
  303.675
  303.71
  303.71
  303.602
  303.551
  303.522
  303.323
  303.565
  303.536
  303.357
  303.297
)
;
  }
  ceiling
  {
    type wallHeatTransfer;
    Tinf uniform 303.2;
    alphaWall uniform 0.24;
    value nonuniform List<scalar> 43
(
  299.905
  299.825
  299.813
  301.355
  302.05
  302.421
  302.674
  302.861
  302.994
  303.091
  303.161
  303.21
  303.243
  303.264
  303.276
  303.283
  303.288
  303.291
  303.294
  303.297
  303.299
  303.302
  303.305
  303.308
  303.311
  303.313
  303.316
  303.319
  303.322
  303.325
  303.328
  303.332
  303.335
  303.34
  303.346
  303.357
  303.366
  303.37
  303.37
  303.401
  304.959
  304.699
  297.818
)
;
  }
  sWall
  {
    type wallHeatTransfer;
    Tinf uniform 315.2;
    alphaWall uniform 0.36;
    value uniform 301.24;
  }
  nWall
  {
    type wallHeatTransfer;
    Tinf uniform 307.2;
    alphaWall uniform 0.36;
    value nonuniform List<scalar> 6
(
  303.972
  303.921
  303.845
  303.993
  303.972
  304.029
)
;
  }
  sideWalls
  {
    type empty;
  }
  glass1
  {
    type wallHeatTransfer;
    Tinf uniform 315.2;
    alphaWall uniform 4.3;
    value nonuniform List<scalar> 9
(
  311.598
  310.939
  310.521
  310.199
  309.932
  309.692
  309.508
  309.575
  309.799
)
;
  }
  glass2
  {
    type wallHeatTransfer;
    Tinf uniform 307.2;
    alphaWall uniform 4.3;
    value nonuniform List<scalar> 2
(
  305.723
  305.827
)
;
  }
  sun
  {
    type wallHeatTransfer;
    Tinf uniform 305.2;
    alphaWall uniform 0.24;
    value nonuniform List<scalar> 14
(
  303.664
  303.415
  303.403
  303.394
  303.386
  303.378
  303.37
  303.361
  303.352
  303.342
  303.331
  303.322
  303.317
  303.317
)
;
  }
  heatsource1
  {
    type fixedGradient;
    gradient uniform 0;
  }
  heatsource2
  {
    type fixedGradient;
    gradient uniform 0;
  }
  Table_master
  {
    type zeroGradient;
  }
  Table_slave
  {
    type zeroGradient;
  }
  inlet
  {
    type fixedValue;
    value uniform 293.15;
  }
  outlet
  {
    type zeroGradient;
  }
} 	// ************************************************************************* //

