/*--------------------------------*- C++ -*----------------------------------*\
  =========                 |
  \\      /  F ield         | OpenFOAM: The Open Source CFD Toolbox
   \\    /   O peration     | Website:  https://openfoam.org
    \\  /    A nd           | Version:  6
     \\/     M anipulation  |
\*---------------------------------------------------------------------------*/
FoamFile
{
    version     2.0;
    format      ascii;
    class       volScalarField;
    location    "170";
    object      alphat;
}
// * * * * * * * * * * * * * * * * * * * * * * * * * * * * * * * * * * * * * //

dimensions      [1 -1 -1 0 0 0 0];

internalField   nonuniform List<scalar> 
459
(
0.00164022
0.00201549
0.00201543
0.00192176
0.00182004
0.00172712
0.00164355
0.00156915
0.0015006
0.00143541
0.00137127
0.00130556
0.00123462
0.00115145
0.00105511
0.000714296
0.000916593
0.000982761
0.000995631
0.000956806
0.000911136
0.000853586
0.000797143
0.000746851
0.000702788
0.000664061
0.000629705
0.000598813
0.000570775
0.00054414
0.000517197
0.000488645
0.00044676
0.000440094
0.00188427
0.00579552
0.00493466
0.00442944
0.00410512
0.00390515
0.0037713
0.00362683
0.00346395
0.00327173
0.00303599
0.00274218
0.00238065
0.0019481
0.00148649
0.00102594
0.000908371
0.00108149
0.00313348
0.00266619
0.0027361
0.00289158
0.00286433
0.00221899
0.00188657
0.00165757
0.00148824
0.00135918
0.00125931
0.00117874
0.00109113
0.000991358
0.000898742
0.000889127
0.000821757
0.00055445
0.00193063
0.0064893
0.00476805
0.00426131
0.0040608
0.00408204
0.00420075
0.00428812
0.00428672
0.0041705
0.00393148
0.00357336
0.00311155
0.00257325
0.00201215
0.00149064
0.000920954
0.00113951
0.00321993
0.00274338
0.00298342
0.00337723
0.00338003
0.00111961
0.000989984
0.000880754
0.000789953
0.000714657
0.000652252
0.000600957
0.000561007
0.000532728
0.000596354
0.000789222
0.00100532
0.000636463
0.00190312
0.00589202
0.00415177
0.00412893
0.00415453
0.00445761
0.00476354
0.004902
0.00488773
0.00473337
0.00445167
0.00405854
0.00357495
0.00302991
0.00245759
0.00190018
0.00129356
0.000925102
0.00160934
0.00212452
0.00297057
0.00386577
0.0045153
0.00441588
0.00121706
0.00112003
0.00104241
0.00097558
0.000912932
0.000850536
0.000785707
0.000715983
0.000635564
0.000585425
0.000739723
0.00119715
0.000738206
0.001896
0.00484801
0.00376597
0.0044356
0.0047741
0.00529042
0.00541926
0.0053894
0.00528164
0.00508383
0.00479515
0.00442301
0.00397992
0.00349821
0.00300417
0.00254295
0.00214597
0.00216922
0.00284271
0.00391018
0.00497944
0.00579879
0.00627707
0.00633655
0.00553382
0.0050223
0.00453687
0.00402369
0.00348671
0.00293302
0.00236802
0.00179892
0.00122406
0.000820927
0.000801538
0.00120396
0.00104313
0.000824651
0.000925353
0.00137157
0.00187178
0.0040185
0.00347037
0.00451869
0.0051034
0.00575669
0.00590449
0.0058282
0.00569809
0.00552092
0.00529109
0.00500504
0.00465642
0.00430946
0.00399594
0.00380612
0.00383563
0.0045095
0.00556531
0.00652878
0.00724158
0.00765278
0.00778363
0.00767278
0.00730388
0.00678367
0.00611795
0.00536192
0.00455382
0.0037247
0.0028997
0.00211325
0.00142872
0.00109324
0.00109509
0.00127361
0.00124865
0.00133691
0.00198185
0.0018347
0.00183461
0.00338287
0.00315997
0.00478224
0.0053871
0.00592858
0.00618869
0.00618018
0.00611687
0.00603081
0.00592396
0.00579936
0.00566588
0.00555396
0.00553212
0.0057141
0.00620117
0.00709852
0.00791402
0.00844998
0.00870347
0.00869877
0.00849041
0.00814051
0.00764192
0.00700937
0.0062763
0.00546487
0.00461338
0.00377292
0.00300569
0.00238418
0.00197988
0.00185486
0.00187789
0.00186518
0.00156133
0.00193184
0.00364205
0.00249176
0.00177164
0.00270596
0.0026658
0.00512564
0.006028
0.00620391
0.00626536
0.00624185
0.00623995
0.00625378
0.00628352
0.00633541
0.00642047
0.00656779
0.00682634
0.00726541
0.00787955
0.00854907
0.00897354
0.00909694
0.00895118
0.00858514
0.00802814
0.00740321
0.00678411
0.0061622
0.00552008
0.00486154
0.00422491
0.00367019
0.00326133
0.00304457
0.00302205
0.00312271
0.00316882
0.00303006
0.00241193
0.00268452
0.00661969
0.00344209
0.00163587
0.00163608
0.00184529
0.00519754
0.00690035
0.00697401
0.00690679
0.00688417
0.00690936
0.00694951
0.00700916
0.00709911
0.00722665
0.00741105
0.00767542
0.00802725
0.00841153
0.00869723
0.00874183
0.00851127
0.00804596
0.00744566
0.00683041
0.00626197
0.00576759
0.0053429
0.00497781
0.00467888
0.00447056
0.00438177
0.00443102
0.00461234
0.00487914
0.0051276
0.00521263
0.00502274
0.00433966
0.00435953
0.00892831
0.00387912
0.00121407
0.00469959
0.00772779
0.00821303
0.0083573
0.00844495
0.00851267
0.00855587
0.00859042
0.00862588
0.00866353
0.00870524
0.00875561
0.00880721
0.008826
0.00876056
0.00857971
0.00830048
0.00796632
0.00762227
0.00730027
0.00701706
0.00677949
0.00659161
0.00646099
0.00640049
0.00642582
0.00654973
0.00677433
0.00708061
0.00741548
0.00768221
0.00774591
0.00750121
0.00689792
0.00678485
0.00940179
0.0032943
0.00283834
0.00817685
0.00931033
0.00964808
0.00976641
0.00986848
0.00994694
0.00998756
0.00999485
0.00997558
0.00993527
0.00987853
0.00981217
0.00974166
0.00966662
0.00957864
0.00946541
0.0093238
0.00916342
0.00899832
0.00883851
0.00869004
0.00855948
0.00845597
0.0083914
0.00837938
0.00843369
0.00856569
0.00877975
0.00906462
0.00937835
0.00962736
0.00965328
0.00931641
0.00864365
0.00798374
0.00728534
0.0027524
0.0014577
0.00151854
0.00199514
0.00224369
0.00229414
0.0023124
0.0023312
0.00234112
0.00234548
0.00234644
0.00234517
0.00234274
0.0023401
0.00233839
0.00233803
0.00233849
0.00233824
0.00233534
0.00232886
0.00231938
0.00230826
0.00229683
0.00228615
0.00227706
0.0022703
0.00226662
0.00226684
0.00227183
0.00228228
0.00229847
0.00231963
0.00234301
0.00236264
0.00236917
0.00235784
0.00234399
0.00236957
0.00245747
0.00252292
0.00228204
)
;

boundaryField
{
    floor
    {
        type            compressible::alphatWallFunction;
        Prt             0.85;
        value           nonuniform List<scalar> 
29
(
0.000150454
0.000101731
0.000130939
0.000140313
0.000142127
0.000136642
0.000130156
0.000121927
0.000113792
0.000106486
0.000100036
9.43255e-05
8.92258e-05
8.46109e-05
8.03967e-05
7.63694e-05
7.22703e-05
6.7897e-05
6.1422e-05
6.03944e-05
6.03937e-05
7.79542e-05
9.02612e-05
0.000105261
0.000150452
0.00010173
0.000154184
0.000162252
0.000132123
)
;
    }
    ceiling
    {
        type            compressible::alphatWallFunction;
        Prt             0.85;
        value           nonuniform List<scalar> 
43
(
0.000205836
0.00021402
0.00027704
0.000309232
0.000315721
0.000318067
0.000320478
0.00032175
0.000322308
0.000322431
0.000322268
0.000321957
0.000321619
0.0003214
0.000321355
0.000321415
0.000321383
0.000321012
0.000320181
0.000318966
0.000317539
0.000316072
0.000314701
0.000313533
0.000312663
0.000312189
0.000312217
0.000312857
0.0003142
0.000316278
0.000318992
0.000321989
0.000324503
0.00032534
0.000323891
0.000322117
0.000325388
0.000336609
0.000344938
0.000314161
0.000229558
0.000229579
0.000384754
)
;
    }
    sWall
    {
        type            compressible::alphatWallFunction;
        Prt             0.85;
        value           uniform 0.000205828;
    }
    nWall
    {
        type            compressible::alphatWallFunction;
        Prt             0.85;
        value           nonuniform List<scalar> 6(0.000194244 0.000256121 0.000341072 0.000441652 0.000374058 0.000314247);
    }
    sideWalls
    {
        type            empty;
    }
    glass1
    {
        type            compressible::alphatWallFunction;
        Prt             0.85;
        value           nonuniform List<scalar> 9(0.000230981 0.000263314 0.000269394 0.00026577 0.000264818 0.000261605 0.00025666 0.000248272 0.000230149);
    }
    glass2
    {
        type            compressible::alphatWallFunction;
        Prt             0.85;
        value           nonuniform List<scalar> 2(0.000462948 0.000516582);
    }
    sun
    {
        type            compressible::alphatWallFunction;
        Prt             0.85;
        value           nonuniform List<scalar> 
14
(
0.000230181
0.00027958
0.000279575
0.000267351
0.000254
0.000241733
0.000230637
0.000220706
0.00021151
0.000202721
0.000194029
0.000185077
0.000175354
0.000163873
)
;
    }
    heatsource1
    {
        type            compressible::alphatWallFunction;
        Prt             0.85;
        value           nonuniform List<scalar> 3(0.000117464 0.000131875 0.000193776);
    }
    heatsource2
    {
        type            compressible::alphatWallFunction;
        Prt             0.85;
        value           nonuniform List<scalar> 4(0.000146073 0.000129448 0.000129446 0.000131237);
    }
    Table_master
    {
        type            compressible::alphatWallFunction;
        Prt             0.85;
        value           nonuniform List<scalar> 9(0.000159146 0.000140999 0.000125493 0.000112429 0.00010146 9.22633e-05 8.46237e-05 7.86184e-05 7.43355e-05);
    }
    Table_slave
    {
        type            compressible::alphatWallFunction;
        Prt             0.85;
        value           nonuniform List<scalar> 9(0.000172632 0.000159209 0.000148376 0.000138972 0.000130089 0.000121169 0.000111818 0.000101656 8.97853e-05);
    }
    inlet
    {
        type            fixedValue;
        value           uniform 1.94e-05;
    }
    outlet
    {
        type            zeroGradient;
    }
}


// ************************************************************************* //
