/*--------------------------------*- C++ -*----------------------------------*\
  =========                 |
  \\      /  F ield         | OpenFOAM: The Open Source CFD Toolbox
   \\    /   O peration     | Website:  https://openfoam.org
    \\  /    A nd           | Version:  6
     \\/     M anipulation  |
\*---------------------------------------------------------------------------*/
FoamFile
{
    version     2.0;
    format      ascii;
    class       surfaceScalarField;
    location    "170";
    object      phi;
}
// * * * * * * * * * * * * * * * * * * * * * * * * * * * * * * * * * * * * * //

dimensions      [1 0 -1 0 0 0 0];

internalField   nonuniform List<scalar> 
852
(
0.00236274
-0.00237428
0.00333837
-0.000975796
0.00454239
-0.00120419
0.00536244
-0.000820224
0.00575746
-0.000395193
0.00589413
-0.000136833
0.00587651
1.7446e-05
0.00574801
0.000128331
0.00552879
0.000219041
0.00522591
0.000302712
0.0048281
0.000397628
0.00429815
0.000529778
0.00355079
0.000747179
0.00235541
0.00119521
0.00235077
-0.000134247
0.000127265
-0.00050432
0.000369883
-6.8062e-05
-0.000436454
0.000653428
-0.000721691
0.00123095
-0.000577721
0.0016289
-0.000398156
0.00186011
-0.000231424
0.00198377
-0.000123873
0.0020641
-8.05328e-05
0.00212264
-5.87599e-05
0.00216323
-4.08004e-05
0.00218484
-2.18193e-05
0.00217989
4.74156e-06
0.00212953
5.0154e-05
0.0019933
0.000136033
0.00170218
0.000290921
0.00119516
0.000506838
0.000299248
0.000895735
0.000289261
0.001192
-0.00359899
0.00252486
-0.00230883
0.00363506
-0.00231456
0.0042177
-0.00140304
0.00449273
-0.000670402
0.00458256
-0.000226836
0.00454608
5.37565e-05
0.00442134
0.000252898
0.00423587
0.000404326
0.00400193
0.000536476
0.0037203
0.000679084
0.0033869
0.000862995
0.00301188
0.00112203
0.00272922
0.00147768
0.00314313
0.00193668
0.00150033
0.00164257
0.00150009
-0.000104288
0.000216264
0.000369481
-0.000104074
0.000928
-0.000995165
0.00133029
-0.00112418
0.00166445
-0.000912071
0.00188931
-0.000623221
0.00193909
-0.000281403
0.00195421
-0.000139206
0.00196904
-9.55765e-05
0.00198178
-7.17106e-05
0.00199139
-5.06357e-05
0.00199777
-2.84185e-05
0.0019976
4.70073e-06
0.00198245
6.5083e-05
0.00191123
0.000207051
0.00164044
0.000561508
0.00121091
0.000936173
0.000727288
0.00137918
0.000990835
0.000565112
-0.00421761
0.0016994
-0.00344328
0.00253649
-0.00315183
0.0028596
-0.00172632
0.00297426
-0.000785245
0.00297446
-0.000227209
0.00290695
0.00012109
0.00281491
0.000344754
0.0027173
0.000501759
0.0026159
0.000637696
0.00250921
0.000785597
0.00240144
0.000970584
0.00231123
0.00121205
0.00226557
0.00152316
0.00223175
0.00197032
0.00161569
0.00225845
0.00311559
0.000116805
7.55458e-05
0.0014104
-0.00139785
0.00183439
-0.00141935
0.00199849
-0.00128847
0.002119
-0.00103277
0.00223783
-0.000742238
0.00195638
0.00181713
0.00172149
0.00164972
0.00159901
0.00157053
0.00157516
0.00164018
0.00184718
0.00152859
0.000879894
0.00123318
0.0012314
0.000916503
0.00169569
0.00186828
0.00010362
-0.00439561
0.00071074
-0.00405058
0.00123331
-0.00367458
0.00138475
-0.00187795
0.0013627
-0.000763389
0.00128944
-0.000154127
0.00124604
0.000164309
0.00125052
0.000340087
0.00128415
0.000467949
0.00133137
0.000590293
0.00138807
0.000728706
0.00145904
0.000899432
0.00155496
0.00111595
0.00168789
0.00139004
0.00190712
0.00175092
0.00222574
0.00193965
0.00334311
0.00199804
0.002607
0.000705182
0.00312079
-0.00043843
0.00272802
-0.00100527
0.00255938
-0.00125089
0.00242753
-0.0011568
0.00231367
-0.000919092
0.00217323
-0.000601983
0.00237156
-0.000198671
0.00239915
-2.79231e-05
0.00234572
5.30851e-05
0.00223912
0.000106256
0.00208888
0.000149889
0.00189746
0.000191065
0.00165907
0.000238022
0.00135388
0.000304817
0.000925287
0.000428209
0.000999728
0.000805253
0.00102222
0.00120872
0.0011084
0.00160933
0.00292727
-0.000401692
-0.00408828
-0.00042425
-0.00402819
-3.04552e-05
-0.00406857
0.000110646
-0.00201925
2.44599e-05
-0.000677397
-3.07878e-05
-9.90672e-05
-2.54078e-06
0.000135875
8.00251e-05
0.000257333
0.00019324
0.000354548
0.000327539
0.000455808
0.00048313
0.000572929
0.000666829
0.000715547
0.000892438
0.000890156
0.00118997
0.00109233
0.00162555
0.00131515
0.00217045
0.00139457
0.00285266
0.00131564
0.00313556
0.000422098
0.00305606
-0.000359111
0.00282401
-0.000773397
0.00251605
-0.000943105
0.00223507
-0.000876007
0.00199181
-0.000676017
0.00180025
-0.000410603
0.00172519
-0.000123784
0.00162066
7.64112e-05
0.0014862
0.000187355
0.00133853
0.000253737
0.00118149
0.00030673
0.00101276
0.000359594
0.000829735
0.000420835
0.00063562
0.000498718
0.0004799
0.000583711
0.000548243
0.000736714
0.000853377
0.000903402
0.00165034
0.000812191
0.00291867
0.00165878
0.0013524
0.0015659
-0.00015379
0.00150581
-0.000205805
-0.00095192
-0.0032494
-0.00128063
-0.00369965
-0.00100075
-0.00434865
-0.000809359
-0.00221084
-0.000796315
-0.000690636
-0.000781519
-0.000114056
-0.000731483
8.56484e-05
-0.000645181
0.000170841
-0.000524719
0.000233896
-0.000371891
0.000302791
-0.000183574
0.000384424
4.99022e-05
0.000481883
0.000337615
0.000602258
0.000693999
0.000735761
0.00114948
0.000859481
0.00166757
0.000876307
0.00225356
0.000729475
0.00248229
0.000193189
0.00239607
-0.000273073
0.00217056
-0.00054806
0.00186064
-0.000633362
0.00154564
-0.000561183
0.0012622
-0.000392762
0.00102916
-0.000177747
0.000857732
4.74579e-05
0.000721868
0.000212087
0.000601034
0.000307998
0.000481553
0.000373023
0.000358563
0.000429522
0.00023171
0.000486247
0.000108019
0.000544324
1.02224e-05
0.000596309
-1.74235e-05
0.000611155
0.000127856
0.000591244
0.000426964
0.000604111
0.000718901
0.00052007
0.00097003
0.00140748
0.000485875
0.00204988
-0.000359078
0.00235058
-0.000615492
-0.00139988
-0.0019783
-0.00196494
-0.00313475
-0.00166078
-0.00465299
-0.00135316
-0.00251868
-0.00123084
-0.000813152
-0.00117089
-0.000174207
-0.00111698
3.15475e-05
-0.00104225
9.59131e-05
-0.00093709
0.000128541
-0.000798148
0.000163657
-0.000622758
0.000208844
-0.000405433
0.00026437
-0.000133079
0.000329718
0.000201956
0.000400543
0.000598259
0.000462999
0.00101696
0.000457431
0.00140607
0.000340191
0.00152901
7.007e-05
0.00142979
-0.000174023
0.00120031
-0.000318764
0.000906285
-0.000339515
0.000603807
-0.000258887
0.000328039
-0.000117177
0.000102956
4.71496e-05
-4.80362e-05
0.000198263
-0.000142341
0.000306203
-0.000218575
0.00038404
-0.0002929
0.000447155
-0.000366401
0.000502829
-0.000431655
0.000551307
-0.000473717
0.00058619
-0.000470539
0.000592934
-0.00040715
0.00054757
-0.000279064
0.000462963
-0.000106734
0.000431584
3.9358e-06
0.000409202
0.000212073
0.00119916
3.52881e-05
0.00222649
-0.000171451
0.00255713
-0.000834082
-0.0014918
-0.000626987
-0.00235121
-0.00227549
-0.00207551
-0.00492885
-0.00153476
-0.00305965
-0.00138591
-0.000962208
-0.00135428
-0.000206037
-0.00132831
5.37744e-06
-0.00127859
4.59955e-05
-0.00120034
5.00918e-05
-0.00109208
5.51956e-05
-0.000953659
7.02304e-05
-0.000784184
9.47043e-05
-0.000580999
0.000126345
-0.000341344
0.000160704
-6.77836e-05
0.000189259
0.000199061
0.00019041
0.000394736
0.00014434
0.000424241
4.03879e-05
0.000308115
-5.80776e-05
9.33777e-05
-0.00010421
-0.000164388
-8.1934e-05
-0.000416103
-7.35766e-06
-0.000622326
8.88577e-05
-0.000759547
0.000184183
-0.000833865
0.000272393
-0.000876413
0.000348562
-0.000905482
0.000412919
-0.000926137
0.00046762
-0.000934688
0.000511189
-0.00092181
0.000538238
-0.000875325
0.000539514
-0.000785236
0.000502651
-0.00065656
0.000418697
-0.000503841
0.00031004
-0.000313142
0.000240676
-0.000151698
0.000247546
0.000276196
0.000771066
0.000705957
0.00179655
0.00165006
0.00161285
0.000527129
-0.000824783
-0.00314538
-0.00160685
-0.0064675
-0.00106769
-0.00359901
-0.00133658
-0.000693533
-0.00147792
-6.49077e-05
-0.00151559
4.28424e-05
-0.00150513
3.53258e-05
-0.0014664
1.1162e-05
-0.0014048
-6.60997e-06
-0.00132431
-1.04623e-05
-0.00122809
-1.70774e-06
-0.00111844
1.65016e-05
-0.000997217
3.92934e-05
-0.000872267
6.41241e-05
-0.0007661
8.40611e-05
-0.000710284
8.83409e-05
-0.00073947
6.93891e-05
-0.000847527
4.97909e-05
-0.00100472
5.27944e-05
-0.00116913
8.22822e-05
-0.00130356
0.000126881
-0.00139224
0.000177353
-0.00143936
0.000231108
-0.00145282
0.00028567
-0.00144272
0.000338268
-0.00141591
0.000385925
-0.00137364
0.000425158
-0.00131353
0.000450888
-0.00123157
0.000456091
-0.00112418
0.000431934
-0.000991369
0.000369643
-0.00084005
0.000267177
-0.000671941
0.000141724
-0.000458088
2.66086e-05
-0.00020849
-2.27241e-06
0.000280955
0.000281405
0.00104048
0.00103683
0.00179451
0.000858621
0.00201185
0.00191533
-0.00204577
-0.000787725
-0.000896132
-0.00154635
6.48759e-05
-0.00172499
0.000113518
-0.00176901
8.66525e-05
-0.00177463
4.0743e-05
-0.00176947
5.78712e-06
-0.00175998
-1.62978e-05
-0.00174642
-2.42294e-05
-0.00172844
-1.98852e-05
-0.00170623
-5.90232e-06
-0.00168248
1.53504e-05
-0.00166102
4.24752e-05
-0.00164873
7.15825e-05
-0.00165551
9.49303e-05
-0.00169254
0.000106227
-0.00175437
0.000111426
-0.00182218
0.000120414
-0.00187674
0.000136647
-0.00190804
0.000157992
-0.00191378
0.000182903
-0.00189457
0.00021171
-0.00185261
0.00024351
-0.00179062
0.000276086
-0.00171104
0.000306153
-0.0016157
0.000329629
-0.00150655
0.000341545
-0.0013866
0.000335948
-0.00126116
0.000306303
-0.00113906
0.000247337
-0.00103127
0.000159187
-0.000942269
5.2516e-05
-0.000856968
-5.89039e-05
-0.000767099
-9.23531e-05
-0.000645786
0.000159878
-0.00034305
0.000733883
-9.96817e-05
0.000615055
0.00185685
-0.00198643
-0.000114224
-0.00245049
-0.000432282
-0.0022403
-0.000145539
-0.0021234
-3.59144e-06
-0.00205884
2.18746e-05
-0.00203705
1.87408e-05
-0.00204301
1.15406e-05
-0.00206852
9.00981e-06
-0.00210347
1.05226e-05
-0.00213945
1.58945e-05
-0.00217035
2.47976e-05
-0.00219407
3.88783e-05
-0.00220928
5.74903e-05
-0.00221604
7.81413e-05
-0.00221833
9.70332e-05
-0.00222276
0.000110465
-0.00223081
0.000119276
-0.00223743
0.000126838
-0.00223603
0.000135058
-0.00222241
0.000144174
-0.00219423
0.000154529
-0.00214938
0.000166665
-0.00208625
0.000180186
-0.00200412
0.000193756
-0.00190347
0.000205315
-0.00178638
0.000212337
-0.00165697
0.000211942
-0.00152231
0.000201091
-0.00139351
0.0001773
-0.00128662
0.000140245
-0.00122125
9.36204e-05
-0.00121312
4.41751e-05
-0.001281
8.77039e-06
-0.00138419
1.06286e-05
-0.00133443
0.000109911
-0.00095614
0.000355395
-0.000860948
0.000519667
0.000924972
-0.00261028
-0.00113839
-0.00134103
-0.0018538
-0.00207888
-0.00216172
-0.00221863
-0.00227841
-0.00234529
-0.0024147
-0.00248266
-0.00254539
-0.00259936
-0.00263939
-0.00266092
-0.00266188
-0.00264405
-0.00261295
-0.00257325
-0.00252626
-0.00247134
-0.00240759
-0.00233374
-0.00224795
-0.00214876
-0.00203604
-0.00191168
-0.00178007
-0.00164845
-0.00152709
-0.00142878
-0.00136667
-0.00135041
-0.00138314
-0.00145129
-0.00151769
-0.00148393
-0.00120237
-0.000755121
)
;

boundaryField
{
    floor
    {
        type            calculated;
        value           nonuniform List<scalar> 
29
(
0
0
0
0
0
0
0
0
0
0
0
0
0
0
0
0
0
0
0
0
9.83076e-06
2.55491e-05
3.88935e-05
4.92363e-05
4.46155e-06
6.81277e-06
1.51184e-05
2.37389e-05
3.07333e-05
)
;
    }
    ceiling
    {
        type            calculated;
        value           nonuniform List<scalar> 
43
(
0.00011533
0.000111065
8.81956e-05
8.02694e-05
7.93206e-05
7.90297e-05
7.8568e-05
7.83149e-05
7.82112e-05
7.8211e-05
7.82894e-05
7.84183e-05
7.85701e-05
7.87095e-05
7.88198e-05
7.89088e-05
7.90084e-05
7.91599e-05
7.938e-05
7.96519e-05
7.9944e-05
8.02267e-05
8.04771e-05
8.06761e-05
8.08045e-05
8.084e-05
8.07563e-05
8.0525e-05
8.01211e-05
7.95331e-05
7.87792e-05
7.79331e-05
7.71562e-05
7.67023e-05
7.6716e-05
7.68266e-05
7.59526e-05
7.36409e-05
7.2228e-05
7.8804e-05
4.72338e-05
4.49845e-05
5.46798e-05
)
;
    }
    sWall
    {
        type            calculated;
        value           uniform 0.000108238;
    }
    nWall
    {
        type            calculated;
        value           nonuniform List<scalar> 6(5.16399e-05 5.04333e-05 4.69592e-05 5.51269e-05 7.07424e-05 9.08567e-05);
    }
    sideWalls
    {
        type            empty;
        value           nonuniform 0();
    }
    glass1
    {
        type            calculated;
        value           nonuniform List<scalar> 9(1.13712e-05 3.25397e-05 5.33447e-05 7.42193e-05 9.42003e-05 0.000112887 0.000128633 0.000140343 0.00015043);
    }
    glass2
    {
        type            calculated;
        value           nonuniform List<scalar> 2(0.000288661 0.000309597);
    }
    sun
    {
        type            calculated;
        value           uniform 0;
    }
    heatsource1
    {
        type            calculated;
        value           nonuniform List<scalar> 3(2.02409e-07 2.02836e-07 2.02893e-07);
    }
    heatsource2
    {
        type            calculated;
        value           nonuniform List<scalar> 4(5.09458e-08 5.11286e-08 0 0);
    }
    Table_master
    {
        type            calculated;
        value           nonuniform List<scalar> 9(-1.52406e-07 -1.52518e-07 -1.52542e-07 -1.52547e-07 -1.52539e-07 -1.52522e-07 -1.52496e-07 -1.52442e-07 -1.52348e-07);
    }
    Table_slave
    {
        type            calculated;
        value           nonuniform List<scalar> 9(1.52155e-07 1.52162e-07 1.52131e-07 1.52117e-07 1.52121e-07 1.52139e-07 1.5217e-07 1.52213e-07 1.52276e-07);
    }
    inlet
    {
        type            calculated;
        value           uniform -0.00633713;
    }
    outlet
    {
        type            calculated;
        value           nonuniform List<scalar> 2(0.00238645 -0.0015832);
    }
}


// ************************************************************************* //
