/*--------------------------------*- C++ -*----------------------------------*\
  =========                 |
  \\      /  F ield         | OpenFOAM: The Open Source CFD Toolbox
   \\    /   O peration     | Website:  https://openfoam.org
    \\  /    A nd           | Version:  6
     \\/     M anipulation  |
\*---------------------------------------------------------------------------*/
FoamFile
{
    version     2.0;
    format      ascii;
    class       volScalarField;
    location    "200";
    object      alphat;
}
// * * * * * * * * * * * * * * * * * * * * * * * * * * * * * * * * * * * * * //

dimensions      [1 -1 -1 0 0 0 0];

internalField   nonuniform List<scalar> 
459
(
0.001389
0.00153023
0.00157225
0.00165447
0.00173438
0.00181558
0.00189096
0.00194193
0.00195909
0.00193626
0.001868
0.00173593
0.00152058
0.00127827
0.00107577
0.000627714
0.00073929
0.000859826
0.000920695
0.000921303
0.00089552
0.000839897
0.00078079
0.000727387
0.000680744
0.000640151
0.000604732
0.000573541
0.000545904
0.00052083
0.000496972
0.000472456
0.000449765
0.000408292
0.001846
0.00471272
0.00459921
0.00534872
0.00609233
0.00673003
0.00722417
0.00765517
0.00798698
0.0081867
0.0082233
0.00804567
0.00756449
0.00669826
0.00455636
0.00136757
0.00105624
0.000616302
0.00156257
0.00241977
0.00312726
0.00355408
0.003505
0.00249764
0.00206993
0.00179065
0.00158781
0.0014332
0.00131133
0.00121383
0.00112557
0.0010338
0.000946029
0.00086867
0.000949585
0.00048381
0.00221908
0.00640237
0.00570112
0.00673858
0.00724637
0.00763302
0.00797015
0.00833048
0.00870695
0.00906512
0.00935118
0.00946043
0.00929641
0.00878323
0.00751236
0.0050234
0.00136585
0.000914387
0.00171011
0.00268855
0.00372403
0.00446177
0.00427429
0.00115818
0.00100745
0.000886707
0.000790402
0.000713029
0.000650201
0.000598672
0.00055691
0.000525184
0.000586961
0.000702275
0.0010977
0.000537621
0.00257104
0.00800154
0.00583279
0.00699287
0.00723364
0.00739126
0.0075991
0.00789338
0.00829203
0.00875244
0.00918658
0.00943465
0.0094892
0.00931459
0.00875333
0.00732732
0.00408439
0.00156474
0.00192318
0.00278167
0.00397242
0.00513768
0.00590463
0.00547607
0.00131645
0.00119057
0.00109527
0.00101769
0.000951187
0.000889445
0.000828309
0.000764439
0.000692504
0.000639195
0.000693645
0.00127341
0.000578777
0.00292678
0.0100239
0.0064443
0.00706785
0.00726494
0.00726587
0.00735861
0.00757807
0.00798228
0.00848084
0.00893242
0.0092121
0.00928355
0.00918652
0.00893475
0.00834631
0.007111
0.00628397
0.00650843
0.00704613
0.00765509
0.00811852
0.0082969
0.00796409
0.00644651
0.00565471
0.00513609
0.00469518
0.0042067
0.00366405
0.00307329
0.00245342
0.00183813
0.00130446
0.00100913
0.00122228
0.000737355
0.00068954
0.000828961
0.000931695
0.00330295
0.0122592
0.0086457
0.00768753
0.00778827
0.00755018
0.00742593
0.00753033
0.00791034
0.00844198
0.00892249
0.00918576
0.00919711
0.0090669
0.00896222
0.00895974
0.00897244
0.00921555
0.00969634
0.0100781
0.0102575
0.0102128
0.00995124
0.00945334
0.00865108
0.00790394
0.00724045
0.00659058
0.00591131
0.00519344
0.00442803
0.00362244
0.00280847
0.00206291
0.00155493
0.00132928
0.00101666
0.000891925
0.00128176
0.000977266
0.00363287
0.0137614
0.0117017
0.00969666
0.00882451
0.00798317
0.00755715
0.00760971
0.00805189
0.0086674
0.0091892
0.00942661
0.00937875
0.00926321
0.00941216
0.00997025
0.0106265
0.0112177
0.0116206
0.0116988
0.0114989
0.0110842
0.0105116
0.00981357
0.00900991
0.00822863
0.00749347
0.00678378
0.00608732
0.00543671
0.00477335
0.00409288
0.0033871
0.00268948
0.00215612
0.00178371
0.0014906
0.00144577
0.00150923
0.00114478
0.0036876
0.0118098
0.010753
0.00946229
0.00823979
0.0074655
0.0072971
0.00768231
0.00842187
0.0092088
0.0097461
0.00989046
0.00977767
0.00981874
0.0104886
0.0113015
0.0118305
0.0121379
0.0121861
0.0119195
0.0113917
0.010676
0.00983514
0.00891969
0.00798875
0.0071116
0.00631049
0.00559612
0.00499505
0.00453771
0.004219
0.00395195
0.00359584
0.00318196
0.00291571
0.00285997
0.00309617
0.00370788
0.00455416
0.00174528
0.00358411
0.00422145
0.00455782
0.00466243
0.00497949
0.00573418
0.0068731
0.00820557
0.00944561
0.01027
0.0105021
0.0102722
0.0103052
0.0107311
0.0112513
0.0116225
0.011751
0.0116603
0.0113263
0.0107384
0.00993839
0.00898698
0.00794576
0.00688944
0.00590108
0.00503776
0.00431541
0.00374343
0.00332265
0.00303032
0.00283711
0.00271721
0.00264926
0.00261822
0.00262338
0.00264441
0.00261926
0.00249779
0.00232343
0.00161841
0.00150329
0.00365921
0.00723418
0.00961159
0.0110469
0.0117636
0.0118539
0.0114614
0.0106841
0.0100862
0.010036
0.0103032
0.0104553
0.0104102
0.0101815
0.0097579
0.00911944
0.00828473
0.0073188
0.0063102
0.0053495
0.00451053
0.00383278
0.00332078
0.00295986
0.00272293
0.0025824
0.00251755
0.00250785
0.00253557
0.00258887
0.0026566
0.0027218
0.00275359
0.00271488
0.00260825
0.00239314
0.00135216
0.00241509
0.00795525
0.0106798
0.0112109
0.0110306
0.0104169
0.00959133
0.00882301
0.00823239
0.00788629
0.00773426
0.00759938
0.00741109
0.00716855
0.00684402
0.0064022
0.00583963
0.00520145
0.00456434
0.00399933
0.00354385
0.00319958
0.00294765
0.00276495
0.00263303
0.00254059
0.00248359
0.00246298
0.00248058
0.00253641
0.00262587
0.00273554
0.00284095
0.0029206
0.00289895
0.00295003
0.00291804
0.00137671
0.00215022
0.00228045
0.00237424
0.00254393
0.00237553
0.00222439
0.00209917
0.00194945
0.00178162
0.00161384
0.00146573
0.00135416
0.00127585
0.00121915
0.00117398
0.00113287
0.00109074
0.00104556
0.000998524
0.000952935
0.000912261
0.000878671
0.000852733
0.000834044
0.000822145
0.000817175
0.000820017
0.000831996
0.000854356
0.000887813
0.000932535
0.000988427
0.00105544
0.00113337
0.00122189
0.00132101
0.00134206
0.0012941
0.00121946
0.00113283
)
;

boundaryField
{
    floor
    {
        type            compressible::alphatWallFunction;
        Prt             0.85;
        value           nonuniform List<scalar> 
29
(
0.000152904
8.85049e-05
0.000104946
0.000122378
0.000131071
0.00013116
0.00012749
0.000119525
0.000110992
0.000103216
9.63683e-05
9.03622e-05
8.50837e-05
8.04039e-05
7.62312e-05
7.24225e-05
6.87775e-05
6.50088e-05
6.14983e-05
5.50237e-05
5.50229e-05
6.67541e-05
7.49708e-05
8.11863e-05
0.000152902
8.85039e-05
8.68029e-05
0.000130151
0.000219643
)
;
    }
    ceiling
    {
        type            compressible::alphatWallFunction;
        Prt             0.85;
        value           nonuniform List<scalar> 
43
(
0.000296542
0.000313318
0.00032534
0.000347089
0.000325675
0.000306294
0.000290124
0.000270649
0.000248622
0.000226373
0.000206521
0.000191422
0.000180741
0.00017296
0.000166732
0.00016104
0.000155181
0.000148866
0.000142259
0.000135819
0.000130042
0.000125249
0.000121531
0.000118844
0.000117128
0.000116409
0.000116816
0.000118538
0.000121748
0.000126533
0.000132899
0.000140805
0.000150218
0.000161078
0.00017331
0.00018689
0.00018976
0.000183216
0.000172979
0.000161009
0.000476862
0.000554268
0.000330341
)
;
    }
    sWall
    {
        type            compressible::alphatWallFunction;
        Prt             0.85;
        value           uniform 0.000295341;
    }
    nWall
    {
        type            compressible::alphatWallFunction;
        Prt             0.85;
        value           nonuniform List<scalar> 6(0.000132439 0.000138884 0.000162302 0.000190817 0.000194151 0.000160687);
    }
    sideWalls
    {
        type            empty;
    }
    glass1
    {
        type            compressible::alphatWallFunction;
        Prt             0.85;
        value           nonuniform List<scalar> 9(0.000191192 0.000251351 0.000299375 0.000343975 0.000388463 0.000434939 0.000475299 0.000482099 0.000469749);
    }
    glass2
    {
        type            compressible::alphatWallFunction;
        Prt             0.85;
        value           nonuniform List<scalar> 2(0.000242038 0.000225362);
    }
    sun
    {
        type            compressible::alphatWallFunction;
        Prt             0.85;
        value           nonuniform List<scalar> 
14
(
0.000196
0.000215035
0.000220665
0.000231633
0.000242235
0.000252954
0.000262857
0.000269527
0.000271767
0.000268782
0.000259837
0.000242417
0.000213729
0.000180887
)
;
    }
    heatsource1
    {
        type            compressible::alphatWallFunction;
        Prt             0.85;
        value           nonuniform List<scalar> 3(9.77752e-05 0.000118067 0.000132755);
    }
    heatsource2
    {
        type            compressible::alphatWallFunction;
        Prt             0.85;
        value           nonuniform List<scalar> 4(0.000193221 0.000150326 0.000150324 0.00019298);
    }
    Table_master
    {
        type            compressible::alphatWallFunction;
        Prt             0.85;
        value           nonuniform List<scalar> 9(0.000164515 0.000143477 0.00012636 0.000112509 0.000101235 9.19717e-05 8.42926e-05 7.80091e-05 7.31966e-05);
    }
    Table_slave
    {
        type            compressible::alphatWallFunction;
        Prt             0.85;
        value           nonuniform List<scalar> 9(0.000186274 0.000168997 0.000155778 0.000144919 0.000135534 0.000126751 0.000117983 0.00010874 9.82185e-05);
    }
    inlet
    {
        type            fixedValue;
        value           uniform 1.94e-05;
    }
    outlet
    {
        type            zeroGradient;
    }
}


// ************************************************************************* //
