/*--------------------------------*- C++ -*----------------------------------*\
  =========                 |
  \\      /  F ield         | OpenFOAM: The Open Source CFD Toolbox
   \\    /   O peration     | Website:  https://openfoam.org
    \\  /    A nd           | Version:  6
     \\/     M anipulation  |
\*---------------------------------------------------------------------------*/
FoamFile
{
    version     2.0;
    format      ascii;
    class       surfaceScalarField;
    location    "200";
    object      phi;
}
// * * * * * * * * * * * * * * * * * * * * * * * * * * * * * * * * * * * * * //

dimensions      [1 0 -1 0 0 0 0];

internalField   nonuniform List<scalar> 
852
(
-0.00240748
0.00246754
-0.00262203
0.000214673
-0.0028704
0.000248497
-0.00315347
0.000283196
-0.00341539
0.000262052
-0.00362957
0.000214312
-0.00377763
0.000148196
-0.00384239
6.48897e-05
-0.00380597
-3.62756e-05
-0.00364835
-0.000157482
-0.00335173
-0.000296478
-0.00290291
-0.000448676
-0.00227242
-0.000630348
-0.00135608
-0.000916183
-0.00135445
-0.000519865
0.000523836
-0.000430407
-8.93663e-05
-0.000260099
-0.00017021
-0.000226075
-3.39389e-05
-0.000307991
8.19867e-05
-0.000403026
9.50949e-05
-0.000386439
-1.65191e-05
-8.51827e-05
-0.000301162
0.000320853
-0.00040593
0.000513377
-0.000192445
0.000623074
-0.000109629
0.000708692
-8.55565e-05
0.000786051
-7.73009e-05
0.000802106
-1.60033e-05
0.000801536
6.1216e-07
0.000833211
-3.16399e-05
0.000899887
-6.6644e-05
0.000784889
0.000115018
0.000789063
-0.00172805
0.00435108
-0.00226014
0.000746885
-0.00264876
0.000637247
-0.00296659
0.000601155
-0.00324143
0.000537015
-0.00346595
0.000438962
-0.00362785
0.000310231
-0.00371314
0.000150312
-0.00370761
-4.16782e-05
-0.00359944
-0.00026551
-0.00337734
-0.000518441
-0.00303121
-0.000794665
-0.00255883
-0.00110258
-0.00202384
-0.00145103
-0.0016166
-0.00176153
0.000102328
-0.00171881
0.000102429
0.000646198
-0.000112606
0.000355074
0.00020186
3.77428e-05
0.000147216
5.35605e-06
-1.47079e-06
0.000177402
-8.99825e-05
0.000163788
0.000108807
1.45656e-06
0.000145933
-3.0509e-05
-0.000269057
4.59804e-05
-0.000482281
8.25587e-05
-0.000228918
8.43651e-05
-0.000111351
5.40185e-05
-5.51412e-05
-2.04901e-05
-2.73088e-06
-0.000116999
8.05626e-05
-0.000172979
5.66408e-05
-3.67505e-05
-0.00016783
0.000256241
-0.000359606
0.000335562
3.57211e-05
0.00113507
-0.00127047
0.005852
-0.00192395
0.00140048
-0.00234714
0.00106056
-0.00266519
0.000919329
-0.00293622
0.000808173
-0.00316229
0.000665159
-0.00333532
0.000483386
-0.00344385
0.000258974
-0.00347587
-9.53336e-06
-0.00342386
-0.000317392
-0.00328972
-0.000652443
-0.00308349
-0.00100076
-0.00283079
-0.00135514
-0.00258499
-0.00169669
-0.00239318
-0.00195318
-0.00208668
-0.00202515
-0.00198409
-0.000847329
0.000744744
-0.000938176
0.000292845
-0.00089134
0.000100503
-0.000777997
-0.000114685
-0.000539959
-0.000327889
0.000163087
-0.000594111
0.000309309
4.05441e-05
-0.000441434
-0.000670077
-0.000781185
-0.000836106
-0.000838633
-0.000757874
-0.000701037
-0.000591649
-0.000277174
-0.00101176
6.05305e-05
-0.00118402
0.000208009
-3.29327e-05
-0.000946633
0.00708991
-0.00163129
0.00208526
-0.00199908
0.00142848
-0.00228702
0.00120738
-0.00253057
0.00105185
-0.00273447
0.000869181
-0.00289609
0.000645129
-0.00300737
0.000370367
-0.00305809
4.13148e-05
-0.00304302
-0.000332342
-0.00297831
-0.00071703
-0.00289653
-0.00108241
-0.00284107
-0.00141048
-0.00285962
-0.00167799
-0.00297223
-0.00184043
-0.00316638
-0.00183084
-0.00372082
-0.00142948
-0.00303897
-0.000673532
-0.00221537
-7.86783e-05
-0.00196223
3.98687e-05
-0.00180123
-6.034e-05
-0.00170039
-0.000215365
-0.00165497
-0.00037315
-0.0018045
-0.00044442
-0.00146479
-0.000339689
-0.00115291
-0.000311873
-0.000843857
-0.000309035
-0.000537886
-0.00030596
-0.000239751
-0.000298126
4.76906e-05
-0.000287433
0.000315842
-0.000268148
0.000562271
-0.000246436
0.000780015
-0.00021776
0.0007207
-0.000217736
0.000811855
-3.05225e-05
0.000798177
0.000221775
0.000777337
-0.000706281
0.00813881
-0.00138632
0.00276542
-0.00162142
0.0016637
-0.00184596
0.00143204
-0.00203886
0.00124487
-0.00219031
0.00102075
-0.00230342
0.000758349
-0.00237627
0.000443339
-0.00240026
6.54137e-05
-0.00237169
-0.000360801
-0.00231854
-0.000770065
-0.00228329
-0.00111754
-0.00230257
-0.00139107
-0.00239628
-0.00158415
-0.00256142
-0.00167516
-0.0027843
-0.00160781
-0.00292547
-0.00128815
-0.0027818
-0.000817044
-0.00242712
-0.000433188
-0.00211366
-0.000273427
-0.00189492
-0.000278917
-0.00175257
-0.000357561
-0.00167244
-0.000453121
-0.00161141
-0.000505288
-0.00144738
-0.00050357
-0.00125167
-0.000507422
-0.00104762
-0.00051294
-0.000843957
-0.000509475
-0.000648615
-0.000493326
-0.000465958
-0.000469957
-0.000285751
-0.00044823
-8.98093e-05
-0.000442264
0.000152055
-0.000459524
0.000437193
-0.000502787
0.00090256
-0.000495817
0.00150456
-0.000380172
0.00255122
-0.000269289
0.00265965
-0.000108634
0.00200869
0.000650747
0.00204773
-0.00065928
0.00918531
-0.00128261
0.00338886
-0.00120812
0.00158934
-0.00128985
0.00151388
-0.00143686
0.001392
-0.0015231
0.0011071
-0.00155491
0.00079027
-0.00154974
0.000438283
-0.00150078
1.65613e-05
-0.00141829
-0.000443185
-0.00134843
-0.000839824
-0.0013289
-0.00113697
-0.0013827
-0.00133716
-0.00151398
-0.00145275
-0.00170748
-0.00148153
-0.00192062
-0.00139454
-0.0020442
-0.00116443
-0.00201048
-0.000850615
-0.00185631
-0.000587206
-0.0016836
-0.000445981
-0.00154919
-0.000413169
-0.00146171
-0.000444891
-0.00141294
-0.000501734
-0.00137002
-0.000548063
-0.00129954
-0.000573902
-0.00121279
-0.000594028
-0.00112323
-0.000602352
-0.00104224
-0.000590324
-0.000978059
-0.000557382
-0.000932753
-0.000515145
-0.000897443
-0.000483438
-0.000855888
-0.000483732
-0.000785106
-0.000530234
-0.000654352
-0.000633485
-0.000356924
-0.000793202
0.000273386
-0.00101045
0.00114786
-0.00114375
0.00164455
-0.000605326
0.00139525
0.000900038
0.00348607
-0.000876089
0.0104893
-0.00100376
0.00351666
-0.000389349
0.000975043
-0.000298383
0.00142303
-0.000497435
0.00159117
-0.000568978
0.00117876
-0.000514068
0.000735469
-0.000401334
0.000325657
-0.000265764
-0.000118904
-0.000149604
-0.000559242
-9.00376e-05
-0.000899288
-0.000105887
-0.00112102
-0.000201619
-0.00124132
-0.000370493
-0.00128377
-0.00059071
-0.0012612
-0.000816236
-0.00116889
-0.000979522
-0.00100102
-0.00104112
-0.000788875
-0.00102543
-0.000602757
-0.000982901
-0.000488361
-0.000950812
-0.00044511
-0.000943045
-0.00045251
-0.000957783
-0.000486847
-0.000980166
-0.000525534
-0.000997405
-0.00055652
-0.00101465
-0.000576645
-0.00104396
-0.000572906
-0.00110181
-0.000532337
-0.00120343
-0.000455642
-0.00135629
-0.000362178
-0.00155471
-0.000284934
-0.00177939
-0.000258977
-0.00200764
-0.000301932
-0.00221368
-0.000427403
-0.00235848
-0.000648378
-0.00236819
-0.00100072
-0.00200459
-0.00150734
-0.000727393
-0.00188252
0.000633555
-0.000460932
0.0041699
0.0018174
0.00915071
0.0023699
0.00296427
0.00240566
0.000939405
0.00196526
0.00186355
0.00154767
0.00200888
0.00136533
0.00136121
0.00132963
0.000771284
0.00138242
0.000272967
0.00146666
-0.000203035
0.00149453
-0.000587008
0.00144178
-0.000846437
0.00131885
-0.000997986
0.00114107
-0.00106344
0.000919165
-0.00106177
0.000665946
-0.00100788
0.000408933
-0.000911768
0.000189729
-0.000781696
3.77863e-05
-0.000636808
-5.46735e-05
-0.000510165
-0.00011657
-0.000426328
-0.000174301
-0.00038724
-0.000241935
-0.000384733
-0.000322563
-0.000406075
-0.000411522
-0.000436431
-0.000504122
-0.000463778
-0.000603452
-0.000477176
-0.000720613
-0.000455612
-0.00087931
-0.000373513
-0.00111392
-0.000220915
-0.00145717
-1.8817e-05
-0.00193016
0.000188138
-0.00253719
0.000348127
-0.00324427
0.000405193
-0.00398864
0.00031701
-0.00470209
6.51051e-05
-0.00541193
-0.00029086
-0.00628
-0.000639247
-0.00718679
-0.000975705
-0.00613068
-0.00151703
-0.00172178
0.00967571
0.0126305
0.0106548
0.0029152
0.00784071
0.00467774
0.00642175
0.00342794
0.0055033
0.00227977
0.00485245
0.00142224
0.00437506
0.000750466
0.00395124
0.000220884
0.00354589
-0.000181557
0.00316852
-0.000468965
0.00281819
-0.000647551
0.00248927
-0.000734423
0.00217607
-0.000748474
0.0018757
-0.000707406
0.00159251
-0.000628472
0.00134003
-0.00052912
0.00113162
-0.000428277
0.000966496
-0.000344928
0.000830143
-0.00028985
0.000706087
-0.000263054
0.000582611
-0.000261123
0.000453738
-0.000277063
0.000317975
-0.000300525
0.000176793
-0.000322452
3.35924e-05
-0.000333834
-0.000103138
-0.000318745
-0.000223121
-0.000253402
-0.000323507
-0.000120409
-0.000419305
7.70924e-05
-0.000533838
0.000302769
-0.000689295
0.000503666
-0.000904809
0.000620776
-0.00121504
0.000627299
-0.00167405
0.000524175
-0.00226903
0.000304175
-0.00295341
4.51952e-05
-0.00361485
-0.000314209
-0.00329282
-0.00183902
-0.00475978
0.000611263
0.00368073
0.00306621
0.0022229
0.0043596
0.00213465
0.00467624
0.00196323
0.00469678
0.0014018
0.00463006
0.000817287
0.00449043
0.000360622
0.00427727
3.17004e-05
0.00400646
-0.000198051
0.00370219
-0.000343185
0.00338635
-0.00041848
0.00307444
-0.000436471
0.00277756
-0.000410423
0.00250407
-0.000354884
0.00226067
-0.000285615
0.00205085
-0.000218355
0.00187183
-0.000165803
0.00171402
-0.000131926
0.00156594
-0.000114863
0.00141965
-0.000114711
0.00127005
-0.000127331
0.0011139
-0.000144232
0.000951212
-0.000159626
0.000786848
-0.000169324
0.000633108
-0.000164862
0.000511993
-0.000132148
0.000447071
-5.53566e-05
0.000447595
7.66894e-05
0.000506983
0.000243491
0.000603778
0.000406969
0.000711321
0.000513319
0.000813037
0.00052566
0.000920074
0.000417212
0.00106774
0.000156583
0.00132123
-0.000208224
0.00173888
-0.000731793
0.00172998
-0.00183005
-0.00297176
-0.000488505
0.00416917
0.00161828
0.000116199
0.0027172
0.00103582
0.00339156
0.00128897
0.00387995
0.000913503
0.00416502
0.000532314
0.004272
0.000253747
0.0042445
5.92936e-05
0.00410915
-6.26017e-05
0.00390277
-0.000136707
0.00365858
-0.000174186
0.00340328
-0.000181073
0.00315704
-0.000164092
0.00293294
-0.000130678
0.00273665
-8.9235e-05
0.0025669
-4.8502e-05
0.00241684
-1.56421e-05
0.00227917
5.85483e-06
0.00214916
1.52552e-05
0.00202078
1.37861e-05
0.00188819
5.38025e-06
0.00175029
-6.2019e-06
0.00160905
-1.82531e-05
0.00146815
-2.82773e-05
0.00133634
-3.29121e-05
0.0012319
-2.75591e-05
0.00118283
-6.14188e-06
0.00121377
4.58841e-05
0.00133273
0.000124656
0.00153352
0.000206292
0.00178342
0.000263518
0.00204171
0.000267472
0.00226679
0.000192218
0.00240865
1.48112e-05
0.00242589
-0.000225387
0.00222833
-0.000534154
0.00143724
-0.00103888
-0.00146473
-0.00385458
-0.00469333
-0.000524543
-0.000414328
0.000613048
0.00189215
0.00279461
0.00331478
0.00355533
0.00360038
0.00352255
0.00336967
0.00317844
0.0029795
0.00279679
0.00264688
0.00253794
0.00246948
0.00243383
0.00241985
0.00241562
0.00241038
0.00239723
0.00237303
0.00233736
0.00229227
0.00224315
0.00220004
0.00217904
0.00221088
0.0023224
0.00251643
0.00276839
0.0030248
0.00320624
0.00321027
0.00297403
0.00242888
0.00137934
)
;

boundaryField
{
    floor
    {
        type            calculated;
        value           nonuniform List<scalar> 
29
(
0
0
0
0
0
0
0
0
0
0
0
0
0
0
0
0
0
0
0
0
-4.16191e-06
-1.0426e-05
-1.59659e-05
-1.20291e-05
-1.4829e-06
-3.89267e-06
-9.62008e-06
-9.85832e-06
-8.14327e-06
)
;
    }
    ceiling
    {
        type            calculated;
        value           nonuniform List<scalar> 
43
(
1.29231e-06
6.15408e-07
4.44846e-07
6.06952e-06
8.5411e-06
9.97109e-06
1.11425e-05
1.22375e-05
1.32956e-05
1.43394e-05
1.53323e-05
1.62633e-05
1.71444e-05
1.79682e-05
1.87109e-05
1.93354e-05
1.97985e-05
2.00621e-05
2.01081e-05
1.99364e-05
1.95852e-05
1.9139e-05
1.86468e-05
1.8113e-05
1.75442e-05
1.69535e-05
1.63396e-05
1.56948e-05
1.50104e-05
1.41922e-05
1.3274e-05
1.24013e-05
1.16846e-05
1.11746e-05
1.08954e-05
1.08823e-05
1.09437e-05
1.10901e-05
1.07395e-05
1.16593e-05
1.26009e-05
9.59301e-06
1.25151e-07
)
;
    }
    sWall
    {
        type            calculated;
        value           uniform -0.000158001;
    }
    nWall
    {
        type            calculated;
        value           nonuniform List<scalar> 6(-3.92716e-05 -4.31198e-05 -5.02976e-05 -5.7971e-05 -6.97327e-05 -9.69947e-05);
    }
    sideWalls
    {
        type            empty;
        value           nonuniform 0();
    }
    glass1
    {
        type            calculated;
        value           nonuniform List<scalar> 9(-5.99461e-05 -0.000155374 -0.000230334 -0.000291167 -0.000342507 -0.000387115 -0.000427779 -0.000478725 -0.000537509);
    }
    glass2
    {
        type            calculated;
        value           nonuniform List<scalar> 2(-0.000238996 -0.00025476);
    }
    sun
    {
        type            calculated;
        value           uniform 0;
    }
    heatsource1
    {
        type            calculated;
        value           nonuniform List<scalar> 3(2.03016e-07 2.03065e-07 2.03383e-07);
    }
    heatsource2
    {
        type            calculated;
        value           nonuniform List<scalar> 4(5.0912e-08 5.11714e-08 0 0);
    }
    Table_master
    {
        type            calculated;
        value           nonuniform List<scalar> 9(-1.53822e-07 -1.53991e-07 -1.53981e-07 -1.53823e-07 -1.53717e-07 -1.53645e-07 -1.53594e-07 -1.53543e-07 -1.5348e-07);
    }
    Table_slave
    {
        type            calculated;
        value           nonuniform List<scalar> 9(1.52687e-07 1.5281e-07 1.52913e-07 1.53012e-07 1.53108e-07 1.53183e-07 1.53159e-07 1.53063e-07 1.52967e-07);
    }
    inlet
    {
        type            calculated;
        value           uniform -0.00137674;
    }
    outlet
    {
        type            calculated;
        value           nonuniform List<scalar> 2(0.00401135 0.000838206);
    }
}


// ************************************************************************* //
