/*--------------------------------*- C++ -*----------------------------------*\
  =========                 |
  \\      /  F ield         | OpenFOAM: The Open Source CFD Toolbox
   \\    /   O peration     | Website:  https://openfoam.org
    \\  /    A nd           | Version:  6
     \\/     M anipulation  |
\*---------------------------------------------------------------------------*/
FoamFile
{
    version     2.0;
    format      ascii;
    class       surfaceScalarField;
    location    "1300";
    object      phi;
}
// * * * * * * * * * * * * * * * * * * * * * * * * * * * * * * * * * * * * * //

dimensions      [1 0 -1 0 0 0 0];

internalField   nonuniform List<scalar> 
852
(
-0.0029365
0.00299276
-0.00397437
0.00103787
-0.00476337
0.000789009
-0.00538075
0.000617381
-0.00579737
0.000416619
-0.00599062
0.000193248
-0.00593863
-5.19949e-05
-0.00562374
-0.000314889
-0.00505803
-0.000565707
-0.00429313
-0.000764897
-0.00340956
-0.000883574
-0.0024961
-0.000913461
-0.0016276
-0.000868501
-0.000826133
-0.000801465
-0.000824693
-0.000675134
0.000677821
-0.000344539
-0.000330596
0.0002628
-0.000607339
0.00073505
-0.00047225
0.00104774
-0.000312693
0.00124168
-0.000193937
0.00134686
-0.000105184
0.00139915
-5.22893e-05
0.00142858
-2.94227e-05
0.00144633
-1.77589e-05
0.00145617
-9.83435e-06
0.00145931
-3.14579e-06
0.00145359
5.71974e-06
0.0014306
2.29928e-05
0.00136796
6.26462e-05
0.00122788
0.000140074
0.000995843
0.000232039
0.000705817
0.000290026
0.000709429
-0.00209483
0.00523907
-0.00309963
0.00204267
-0.00390547
0.00159485
-0.00450958
0.00122149
-0.00491626
0.000823303
-0.00511196
0.00038895
-0.00507143
-9.25284e-05
-0.00478003
-0.000606285
-0.0042609
-0.00108484
-0.00357521
-0.00145059
-0.00280508
-0.00165371
-0.00203109
-0.00168744
-0.00132561
-0.00157399
-0.000777057
-0.00135002
-0.000573948
-0.0010278
-7.8891e-05
-0.000495108
-7.89422e-05
0.000379879
0.000305588
0.000803475
-0.000754192
0.00105141
-0.000855268
0.00125921
-0.000680052
0.00141336
-0.000466845
0.00150309
-0.000283667
0.00151696
-0.000119054
0.00152077
-5.60988e-05
0.00152527
-3.39275e-05
0.00152907
-2.15541e-05
0.00153156
-1.23273e-05
0.00153281
-4.39193e-06
0.00153192
6.60382e-06
0.00152531
2.96061e-05
0.00148422
0.000103733
0.00130965
0.000314648
0.00100785
0.000533834
0.000627423
0.000670458
0.00134616
-0.00146609
0.00693684
-0.00232903
0.0029056
-0.00303753
0.00230336
-0.00354881
0.00173277
-0.00389869
0.00117318
-0.00406923
0.000559491
-0.00401575
-0.000146009
-0.00371596
-0.000906075
-0.00321461
-0.0015862
-0.00258739
-0.00207781
-0.00191607
-0.00232502
-0.0012649
-0.00233862
-0.000684748
-0.00215413
-0.000227297
-0.00180747
7.72784e-05
-0.00133238
0.00027843
-0.000696259
0.000199488
0.0014834
-0.0011698
0.00169735
-0.000968142
0.00167661
-0.00083453
0.00167697
-0.000680409
0.00169817
-0.000488051
0.00170826
-0.000293753
0.00158936
0.00153341
0.00149964
0.00147824
0.00146606
0.00146182
0.00146858
0.00149834
0.00160223
0.00132205
0.000594825
0.000981606
0.000874276
0.000548574
0.00110349
0.00190892
-0.00102397
0.00826076
-0.00170567
0.0035873
-0.00216676
0.00276445
-0.0024939
0.00205991
-0.00271748
0.00139676
-0.00280547
0.000647487
-0.00268312
-0.000268355
-0.00233779
-0.00125141
-0.00185284
-0.00207115
-0.00131156
-0.00261909
-0.0007812
-0.00285538
-0.000297442
-0.00282238
0.000121849
-0.00257342
0.000471453
-0.00215707
0.00077842
-0.00163935
0.00114701
-0.00106485
0.00190591
-0.000559413
0.00244172
-0.000528539
0.00204017
-0.000768248
0.00191389
-0.000841865
0.00180479
-0.000725432
0.00171201
-0.000587628
0.00166201
-0.000438045
0.00164307
-0.000274811
0.00175594
-0.000113028
0.00182781
-7.20237e-05
0.00188625
-5.85951e-05
0.00193145
-4.53446e-05
0.00194941
-1.81122e-05
0.0019191
3.01519e-05
0.00181591
0.000103036
0.00160751
0.00020825
0.00123987
0.000367489
0.00110942
0.000725269
0.000823466
0.00116023
0.000386352
0.0015406
0.00231388
-0.000718071
0.00933675
-0.00123444
0.00410367
-0.00132082
0.00285082
-0.00137225
0.00211134
-0.00139311
0.00141762
-0.00130387
0.000558246
-0.0010238
-0.000548427
-0.000614914
-0.00166029
-0.000182905
-0.00250316
0.000205769
-0.00300777
0.000524305
-0.00317391
0.000770071
-0.00306815
0.000955988
-0.00275934
0.00111028
-0.00231136
0.00126352
-0.00179258
0.00146721
-0.00126854
0.00175149
-0.000843692
0.00188927
-0.000666322
0.00179233
-0.000671306
0.00161827
-0.000667806
0.00147221
-0.000579367
0.00135322
-0.000468638
0.00127206
-0.000356889
0.00124176
-0.000244512
0.001283
-0.000154264
0.00133042
-0.000119446
0.00138287
-0.00011104
0.0014368
-9.92776e-05
0.00148166
-6.2975e-05
0.00149802
1.37938e-05
0.00146552
0.000135534
0.00137228
0.000301493
0.00121893
0.000520839
0.00108509
0.000859111
0.00094156
0.00130376
0.000622884
0.00185928
0.000552501
0.00238427
-0.000966143
0.00151844
-0.00142954
0.000463191
-0.00138255
-0.00062683
0.0103704
-0.000980364
0.0044572
-0.000552868
0.00242333
-0.000186721
0.0017452
9.5239e-05
0.00113566
0.000485422
0.000168064
0.000984244
-0.00104725
0.00140512
-0.00208117
0.00169111
-0.00278914
0.00183806
-0.00315472
0.00187555
-0.00321141
0.00183197
-0.00302457
0.00173754
-0.00266491
0.00162836
-0.00220218
0.00153751
-0.00170174
0.00149066
-0.0012217
0.00148194
-0.000834969
0.00142773
-0.000612114
0.00128411
-0.000527682
0.00109439
-0.000478094
0.000927678
-0.000412652
0.000800765
-0.000341724
0.000719608
-0.000275732
0.000691672
-0.000216577
0.000713804
-0.000176396
0.00076191
-0.000167552
0.000825291
-0.000174421
0.000899289
-0.000173275
0.000978354
-0.00014204
0.00105056
-5.84103e-05
0.00109837
8.77242e-05
0.00111755
0.000282309
0.00111601
0.000522384
0.0011409
0.000834213
0.00123998
0.00120468
0.00142665
0.00167261
0.00186994
0.00194098
0.00213217
0.00125622
0.00174328
0.000852081
0.000417281
-0.000681535
0.011503
-0.000560381
0.00433605
0.000576646
0.0012863
0.00137331
0.000948535
0.0020597
0.000449264
0.00276173
-0.000533968
0.0033056
-0.00159112
0.00359222
-0.00236779
0.00362647
-0.00282338
0.0034538
-0.00298205
0.00313631
-0.00289392
0.00273514
-0.00262339
0.0023035
-0.00223327
0.00188811
-0.00178679
0.00152445
-0.00133808
0.00122868
-0.000925917
0.000999302
-0.000605595
0.000801174
-0.000413986
0.000601575
-0.000328083
0.000411707
-0.000288226
0.000256593
-0.000257538
0.000146033
-0.000231164
8.11423e-05
-0.000210841
6.21185e-05
-0.000197553
8.22185e-05
-0.000196496
0.000126585
-0.000211919
0.000185935
-0.000233771
0.000259248
-0.000246588
0.000350663
-0.000233455
0.000465073
-0.000172821
0.000590269
-3.74713e-05
0.000715654
0.000156924
0.000852102
0.000385935
0.0010375
0.000648818
0.00132009
0.000922088
0.00176169
0.00123101
0.00242885
0.00127382
0.0029707
0.000714368
0.00299175
0.000831037
0.00347009
0.00259614
0.00941152
0.00330103
0.00363116
0.00370426
0.000883075
0.00439603
0.000256764
0.00521268
-0.000367385
0.00584168
-0.00116297
0.00606216
-0.0018116
0.00590338
-0.00220901
0.00544222
-0.00236223
0.00477089
-0.00231072
0.00398471
-0.00210775
0.0031677
-0.00180638
0.00238133
-0.00144689
0.00167463
-0.0010801
0.00108043
-0.000743873
0.00060514
-0.000450627
0.000254159
-0.000254613
-1.04084e-06
-0.000158786
-0.000197142
-0.000131982
-0.00035087
-0.000134499
-0.00046691
-0.000141498
-0.000547506
-0.000150568
-0.000596316
-0.00016203
-0.000617065
-0.000176805
-0.000616435
-0.000197126
-0.000604501
-0.000223853
-0.000587025
-0.000251247
-0.000563053
-0.00027056
-0.000524223
-0.000272285
-0.000451848
-0.000245195
-0.000317135
-0.000172185
-0.000135827
-2.43837e-05
7.74127e-05
0.000172696
0.000346039
0.000380192
0.000681363
0.000586764
0.00112377
0.000788596
0.00161015
0.000787438
0.00181684
0.000507682
0.00108079
0.00156709
0.00480014
0.00996509
0.0135882
0.0124582
0.00201306
0.011752
0.000962951
0.0110961
0.000288523
0.0102151
-0.000281904
0.00906919
-0.000665721
0.0077632
-0.000903026
0.00639119
-0.000990213
0.00502663
-0.000946155
0.00373657
-0.000817687
0.00257371
-0.000643525
0.00155895
-0.000432129
0.000716939
-0.000238093
5.44571e-05
-8.13907e-05
-0.000412434
1.62645e-05
-0.000700861
3.38136e-05
-0.000879479
1.98313e-05
-0.00100576
-5.70004e-06
-0.00110691
-3.33441e-05
-0.00118926
-5.91505e-05
-0.00125552
-8.43091e-05
-0.00130948
-0.000108067
-0.00135554
-0.000130749
-0.00140025
-0.000152414
-0.001452
-0.000172106
-0.00151828
-0.000184969
-0.00160609
-0.000182742
-0.00172395
-0.000154427
-0.00188216
-8.69914e-05
-0.00208641
3.20698e-05
-0.00232371
0.000212918
-0.00262064
0.000469628
-0.00305906
0.000818612
-0.0037304
0.0012581
-0.00470129
0.00175949
-0.00608837
0.00217452
-0.00777298
0.00219229
-0.0073011
0.0010952
-0.00222513
0.00467842
0.00351215
0.00379053
0.00185084
0.00417181
-9.2757e-05
0.0041784
-0.000288488
0.00377442
-0.000261747
0.00314344
-0.000272048
0.00239212
-0.00023889
0.00158836
-0.000142396
0.000774265
-3.5898e-06
2.19402e-06
0.000128545
-0.00063682
0.000206886
-0.00108809
0.000213176
-0.00137456
0.000205081
-0.00153785
0.000179556
-0.00164045
0.000136411
-0.00171399
9.33762e-05
-0.0017751
5.54102e-05
-0.00183246
2.40086e-05
-0.00189092
-6.88969e-07
-0.00195242
-2.28121e-05
-0.00201774
-4.27429e-05
-0.00208879
-5.96996e-05
-0.00216878
-7.24213e-05
-0.00226028
-8.06118e-05
-0.00236412
-8.11209e-05
-0.00247916
-6.77088e-05
-0.00260146
-3.21264e-05
-0.00272341
3.49626e-05
-0.00283306
0.000141715
-0.00292717
0.00030703
-0.00301339
0.000555848
-0.00309718
0.000902401
-0.00317431
0.00133523
-0.00319956
0.00178474
-0.00312059
0.00209554
-0.00275788
0.00182958
-0.00149727
-0.000165398
-0.00365043
-0.000539175
0.00411607
0.00029734
0.00101433
-8.17563e-05
0.000286339
-0.000456398
8.61534e-05
-0.000787193
6.90475e-05
-0.00114826
8.90157e-05
-0.00151499
0.000127843
-0.0018345
0.000177119
-0.00206012
0.000222029
-0.00218578
0.000254202
-0.00224228
0.000263387
-0.00226719
0.000238084
-0.00226528
0.000203176
-0.00225311
0.000167382
-0.00224953
0.000132832
-0.00225939
0.000103232
-0.00228248
7.84992e-05
-0.0023165
5.8037e-05
-0.00235826
4.10703e-05
-0.00240891
2.78363e-05
-0.00246728
1.56267e-05
-0.00253116
4.18313e-06
-0.0025979
-5.68994e-06
-0.00266539
-1.31197e-05
-0.00273001
-1.65035e-05
-0.00278498
-1.27346e-05
-0.00281954
2.42952e-06
-0.00282354
3.89641e-05
-0.00278677
0.000104951
-0.00268759
0.000207846
-0.00249475
0.000363009
-0.00218157
0.000589223
-0.00172904
0.000882699
-0.00110906
0.00116476
-0.000150876
0.00113736
0.00114208
0.000536628
0.00157826
-0.000601586
-0.00199332
-0.00723105
-0.0101324
-0.00597354
-0.00493926
-0.00464175
-0.00454868
-0.00447534
-0.00438401
-0.00425545
-0.00407899
-0.00385884
-0.00360766
-0.00334841
-0.00311551
-0.00291841
-0.00275782
-0.00263233
-0.00253688
-0.00246649
-0.00241682
-0.00238429
-0.00236514
-0.00235827
-0.00236289
-0.00237735
-0.00239916
-0.00242424
-0.00244539
-0.00245117
-0.00242017
-0.00232291
-0.00212247
-0.00176658
-0.0011842
-0.000308091
0.000850297
0.00198126
0.00251125
0.00190262
)
;

boundaryField
{
    floor
    {
        type            calculated;
        value           nonuniform List<scalar> 
29
(
0
0
0
0
0
0
0
0
0
0
0
0
0
0
0
0
0
0
0
0
-3.61198e-06
-9.30424e-06
-1.41886e-05
-1.86125e-05
-1.43985e-06
-2.68651e-06
-7.64642e-06
-8.01297e-06
-7.27197e-06
)
;
    }
    ceiling
    {
        type            calculated;
        value           nonuniform List<scalar> 
43
(
-4.54209e-05
-4.4101e-05
-4.27926e-05
-1.99498e-05
-1.11709e-05
-6.91705e-06
-4.29613e-06
-2.3171e-06
-7.10802e-07
6.5441e-07
1.87587e-06
3.02346e-06
4.14215e-06
5.1829e-06
6.07435e-06
6.7902e-06
7.34871e-06
7.77995e-06
8.11124e-06
8.36129e-06
8.54689e-06
8.67945e-06
8.7629e-06
8.79474e-06
8.77065e-06
8.69695e-06
8.57765e-06
8.4146e-06
8.20902e-06
7.96145e-06
7.69071e-06
7.40819e-06
7.12226e-06
6.84171e-06
6.58589e-06
6.36896e-06
6.4002e-06
6.6404e-06
7.03538e-06
8.2673e-06
1.10893e-05
8.04003e-06
-6.47398e-05
)
;
    }
    sWall
    {
        type            calculated;
        value           uniform -0.000274909;
    }
    nWall
    {
        type            calculated;
        value           nonuniform List<scalar> 6(-4.71873e-05 -5.65582e-05 -6.1059e-05 -7.19813e-05 -7.88385e-05 -9.89671e-05);
    }
    sideWalls
    {
        type            empty;
        value           nonuniform 0();
    }
    glass1
    {
        type            calculated;
        value           nonuniform List<scalar> 9(-5.62593e-05 -0.000151486 -0.000231675 -0.000299949 -0.000357917 -0.000406806 -0.000451061 -0.000504679 -0.000564661);
    }
    glass2
    {
        type            calculated;
        value           nonuniform List<scalar> 2(-0.000249267 -0.000275822);
    }
    sun
    {
        type            calculated;
        value           uniform 0;
    }
    heatsource1
    {
        type            calculated;
        value           nonuniform List<scalar> 3(2.03963e-07 2.03919e-07 2.03936e-07);
    }
    heatsource2
    {
        type            calculated;
        value           nonuniform List<scalar> 4(5.10989e-08 5.12211e-08 0 0);
    }
    Table_master
    {
        type            calculated;
        value           nonuniform List<scalar> 9(-1.52972e-07 -1.53053e-07 -1.53081e-07 -1.53101e-07 -1.53115e-07 -1.53125e-07 -1.53128e-07 -1.53122e-07 -1.5309e-07);
    }
    Table_slave
    {
        type            calculated;
        value           nonuniform List<scalar> 9(1.52849e-07 1.52874e-07 1.52857e-07 1.52843e-07 1.52839e-07 1.52842e-07 1.52858e-07 1.529e-07 1.52979e-07);
    }
    inlet
    {
        type            calculated;
        value           uniform -0.00617752;
    }
    outlet
    {
        type            calculated;
        value           nonuniform List<scalar> 2(0.00755138 0.00294545);
    }
}


// ************************************************************************* //
