/*--------------------------------*- C++ -*----------------------------------*\
  =========                 |
  \\      /  F ield         | OpenFOAM: The Open Source CFD Toolbox
   \\    /   O peration     | Website:  https://openfoam.org
    \\  /    A nd           | Version:  6
     \\/     M anipulation  |
\*---------------------------------------------------------------------------*/
FoamFile
{
    version     2.0;
    format      ascii;
    class       volScalarField;
    location    "600";
    object      epsilon;
}
// * * * * * * * * * * * * * * * * * * * * * * * * * * * * * * * * * * * * * //

dimensions      [0 2 -3 0 0 0 0];

internalField   nonuniform List<scalar> 
459
(
0.00037557
0.000481339
0.000502011
0.000574541
0.0006468
0.000718496
0.000791942
0.000871346
0.000940401
0.000982369
0.000983554
0.000935291
0.000840968
0.000721036
0.00060354
3.10219e-05
5.82808e-05
7.78681e-05
7.21285e-05
6.30514e-05
5.37167e-05
4.4603e-05
3.69401e-05
3.0818e-05
2.59629e-05
2.20907e-05
1.89792e-05
1.646e-05
1.43761e-05
1.26008e-05
1.10148e-05
9.49266e-06
8.63161e-06
6.66415e-06
0.000987657
0.00149139
0.000455746
0.000437133
0.000453676
0.000480212
0.000518814
0.00057432
0.000637064
0.00068912
0.000711529
0.000691083
0.000627052
0.000539299
0.000488111
0.000628752
0.00017288
4.29881e-05
0.000101693
9.99907e-05
8.65064e-05
7.08874e-05
5.74535e-05
4.95719e-05
4.02648e-05
3.23273e-05
2.60173e-05
2.10923e-05
1.72619e-05
1.42964e-05
1.20011e-05
1.03394e-05
9.40512e-06
9.10019e-06
2.41378e-05
1.62225e-05
0.00184889
0.00381946
0.000583215
0.000417092
0.000428525
0.000469624
0.000531407
0.000615652
0.000710185
0.000787888
0.000825295
0.000811171
0.000748239
0.000654781
0.000566151
0.00051822
0.000567866
0.000366838
0.000234582
0.00016434
0.000120178
9.10333e-05
7.37189e-05
0.000126071
8.95162e-05
6.57559e-05
4.98734e-05
3.89327e-05
3.11784e-05
2.55485e-05
2.13971e-05
1.83395e-05
1.4108e-05
1.19148e-05
4.41682e-05
2.58435e-05
0.00306417
0.00809299
0.000967804
0.000424533
0.000413781
0.000469068
0.00055837
0.000687369
0.000823692
0.000920743
0.000959318
0.000936779
0.000861993
0.000752266
0.000631692
0.000537207
0.000498507
0.000901098
0.000487476
0.000281014
0.000181917
0.000127465
9.5088e-05
7.98565e-05
0.00017636
0.000137563
0.000114217
9.86663e-05
8.65667e-05
7.58197e-05
6.63031e-05
5.70445e-05
4.71915e-05
2.85591e-05
1.89294e-05
6.98708e-05
3.53687e-05
0.00476649
0.0145424
0.00199014
0.000516523
0.000419357
0.000477564
0.00061082
0.000838489
0.00102529
0.00112356
0.00114369
0.00109509
0.000992321
0.000850026
0.000689788
0.000536494
0.000409964
0.000337878
0.000257849
0.000191746
0.000142566
0.000108192
8.52531e-05
7.19057e-05
7.05448e-05
6.75209e-05
6.44339e-05
6.11109e-05
5.70102e-05
5.18904e-05
4.6632e-05
4.16128e-05
3.70141e-05
3.01713e-05
2.34298e-05
5.06569e-05
3.9873e-05
6.9534e-05
0.000123038
0.000172574
0.0071542
0.0216016
0.00457801
0.00103815
0.00063111
0.00063255
0.000865266
0.00122324
0.00139555
0.00143996
0.00140717
0.00131617
0.00117252
0.000984632
0.000773968
0.000570286
0.000402344
0.000287418
0.000213068
0.000160274
0.000121213
9.43996e-05
7.7828e-05
6.94684e-05
6.76438e-05
6.86358e-05
6.99695e-05
7.02839e-05
6.85303e-05
6.37782e-05
5.59407e-05
4.76203e-05
4.00109e-05
3.33111e-05
2.89764e-05
3.86614e-05
4.0624e-05
5.17277e-05
0.000227013
0.000194571
0.00999617
0.0257988
0.00961255
0.00357502
0.00217455
0.00178407
0.00199042
0.00208492
0.00203857
0.00192788
0.00178834
0.00161786
0.00140462
0.0011494
0.000875129
0.000616921
0.0004092
0.00026964
0.000185477
0.000134399
0.000101875
8.27495e-05
7.36264e-05
7.17247e-05
7.47639e-05
8.01651e-05
8.59719e-05
9.11571e-05
9.46413e-05
9.46672e-05
8.79228e-05
7.67147e-05
6.57226e-05
5.65167e-05
5.26148e-05
5.85853e-05
7.41604e-05
0.000119288
0.000285561
0.000274693
0.010671
0.0286657
0.0157342
0.0104699
0.00737733
0.0055685
0.0043796
0.00354368
0.00297701
0.0025864
0.00228254
0.00199258
0.00167348
0.00131841
0.000958296
0.000633831
0.000384022
0.000229212
0.000143809
0.000104638
8.46937e-05
7.57862e-05
7.41861e-05
7.75963e-05
8.44789e-05
9.36503e-05
0.000104462
0.000116856
0.000130929
0.000146479
0.000162331
0.000170047
0.000176202
0.000192299
0.000227542
0.000338965
0.000627466
0.00120814
0.00367035
0.00108987
0.0098861
0.0167198
0.0134224
0.0101582
0.00774885
0.00605726
0.00489139
0.00411535
0.00359014
0.0031881
0.00280696
0.00238563
0.00190964
0.00140094
0.000929454
0.000537296
0.000270885
0.000156974
0.000105984
8.32544e-05
7.36677e-05
7.15169e-05
7.40803e-05
7.99482e-05
8.84653e-05
9.94418e-05
0.000113145
0.000130346
0.000152319
0.000180893
0.000218529
0.000268666
0.000337168
0.000442295
0.000599112
0.00081514
0.0010662
0.00128868
0.00145727
0.00090997
0.00417765
0.00635259
0.00637562
0.00600367
0.00557607
0.00506793
0.00449376
0.00385318
0.00315197
0.00241865
0.00169612
0.000979672
0.000499283
0.000253901
0.000139604
9.34891e-05
7.43235e-05
6.65583e-05
6.4258e-05
6.5073e-05
6.80079e-05
7.26327e-05
7.88984e-05
8.70385e-05
9.75811e-05
0.000111407
0.00012985
0.000154884
0.000189448
0.000238084
0.00030572
0.000399464
0.000523307
0.000666967
0.000793583
0.000851575
0.000811473
0.000519682
0.00298946
0.00627111
0.00654222
0.00547825
0.00487926
0.00440955
0.00373637
0.00286662
0.00203218
0.00132273
0.000788698
0.000431795
0.000236884
0.000143152
0.000103444
8.8691e-05
8.35617e-05
8.19434e-05
8.16928e-05
8.22816e-05
8.39297e-05
8.67045e-05
9.08141e-05
9.66e-05
0.000104578
0.000115534
0.000130671
0.000151816
0.000181637
0.000223531
0.000282029
0.000361843
0.000463866
0.000580125
0.000669627
0.000766898
0.000743275
0.000548209
0.00200891
0.0023843
0.00268114
0.00321499
0.00278851
0.00235095
0.00202766
0.00172692
0.00144453
0.00115828
0.00086325
0.00059554
0.000385357
0.000242169
0.000157352
0.000111631
8.80818e-05
7.61083e-05
7.0332e-05
6.82139e-05
6.85069e-05
7.08644e-05
7.45893e-05
7.97232e-05
8.64411e-05
9.50123e-05
0.000105818
0.000119404
0.000136596
0.000158742
0.00018693
0.000222047
0.000266161
0.000321938
0.00039204
0.000487807
0.000525711
0.000489409
0.000404606
0.000326781
)
;

boundaryField
{
    floor
    {
        Cmu             0.09;
        kappa           0.41;
        E               9.8;
        type            epsilonWallFunction;
        value           nonuniform List<scalar> 
29
(
0.00060354
3.10219e-05
5.82808e-05
7.78681e-05
7.21285e-05
6.30514e-05
5.37167e-05
4.4603e-05
3.69401e-05
3.0818e-05
2.59629e-05
2.20907e-05
1.89792e-05
1.646e-05
1.43761e-05
1.26008e-05
1.10148e-05
9.49266e-06
8.63161e-06
6.66415e-06
6.66415e-06
1.62225e-05
2.58435e-05
3.53687e-05
0.00060354
3.10219e-05
4.29881e-05
0.000366838
0.000901098
)
;
    }
    ceiling
    {
        Cmu             0.09;
        kappa           0.41;
        E               9.8;
        type            epsilonWallFunction;
        value           nonuniform List<scalar> 
43
(
0.00200891
0.0023843
0.00268114
0.00321499
0.00278851
0.00235095
0.00202766
0.00172692
0.00144453
0.00115828
0.00086325
0.00059554
0.000385357
0.000242169
0.000157352
0.000111631
8.80818e-05
7.61083e-05
7.0332e-05
6.82139e-05
6.85069e-05
7.08644e-05
7.45893e-05
7.97232e-05
8.64411e-05
9.50123e-05
0.000105818
0.000119404
0.000136596
0.000158742
0.00018693
0.000222047
0.000266161
0.000321938
0.00039204
0.000487807
0.000525711
0.000489409
0.000404606
0.000326781
0.0098861
0.0167198
0.00298946
)
;
    }
    sWall
    {
        Cmu             0.09;
        kappa           0.41;
        E               9.8;
        type            epsilonWallFunction;
        value           uniform 0.00200891;
    }
    nWall
    {
        Cmu             0.09;
        kappa           0.41;
        E               9.8;
        type            epsilonWallFunction;
        value           nonuniform List<scalar> 6(0.000172574 0.000194571 0.000274693 0.000519682 0.000548209 0.000326781);
    }
    sideWalls
    {
        type            empty;
    }
    glass1
    {
        Cmu             0.09;
        kappa           0.41;
        E               9.8;
        type            epsilonWallFunction;
        value           nonuniform List<scalar> 9(0.00037557 0.000987657 0.00184889 0.00306417 0.00476649 0.0071542 0.00999617 0.010671 0.0098861);
    }
    glass2
    {
        Cmu             0.09;
        kappa           0.41;
        E               9.8;
        type            epsilonWallFunction;
        value           nonuniform List<scalar> 2(0.00108987 0.00090997);
    }
    sun
    {
        Cmu             0.09;
        kappa           0.41;
        E               9.8;
        type            epsilonWallFunction;
        value           nonuniform List<scalar> 
14
(
0.00037557
0.000481339
0.000502011
0.000574541
0.0006468
0.000718496
0.000791942
0.000871346
0.000940401
0.000982369
0.000983554
0.000935291
0.000840968
0.000721036
)
;
    }
    heatsource1
    {
        Cmu             0.09;
        kappa           0.41;
        E               9.8;
        type            epsilonWallFunction;
        value           nonuniform List<scalar> 3(6.9534e-05 0.000123038 0.000172574);
    }
    heatsource2
    {
        Cmu             0.09;
        kappa           0.41;
        E               9.8;
        type            epsilonWallFunction;
        value           nonuniform List<scalar> 4(0.000628752 0.00017288 0.00017288 0.000567866);
    }
    Table_master
    {
        Cmu             0.09;
        kappa           0.41;
        E               9.8;
        type            epsilonWallFunction;
        value           nonuniform List<scalar> 9(0.000126071 8.95162e-05 6.57559e-05 4.98734e-05 3.89327e-05 3.11784e-05 2.55485e-05 2.13971e-05 1.83395e-05);
    }
    Table_slave
    {
        Cmu             0.09;
        kappa           0.41;
        E               9.8;
        type            epsilonWallFunction;
        value           nonuniform List<scalar> 9(0.00017636 0.000137563 0.000114217 9.86663e-05 8.65667e-05 7.58197e-05 6.63031e-05 5.70445e-05 4.71915e-05);
    }
    inlet
    {
        type            turbulentMixingLengthDissipationRateInlet;
        mixingLength    0.01;
        phi             phi;
        k               k;
        value           uniform 0.000101881;
    }
    outlet
    {
        type            zeroGradient;
    }
}


// ************************************************************************* //
