// -*- C++ -*-
// File generated by PyFoam - sorry for the ugliness

FoamFile
{
 version 2.0;
 format ascii;
 class volScalarField;
 location "100";
 object T;
}

dimensions [ 0 0 0 1 0 0 0 ];

internalField nonuniform List<scalar> 459
(
  302.801
  302.546
  302.529
  302.523
  302.518
  302.513
  302.514
  302.531
  302.612
  302.652
  302.68
  302.698
  302.71
  302.722
  302.737
  303.522
  303.453
  303.403
  303.396
  303.432
  303.463
  303.491
  303.518
  303.543
  303.568
  303.593
  303.618
  303.643
  303.667
  303.692
  303.719
  303.749
  303.788
  303.854
  302.951
  302.57
  302.533
  302.522
  302.513
  302.496
  302.483
  302.513
  302.605
  302.676
  302.724
  302.751
  302.76
  302.761
  302.757
  302.763
  302.773
  303.546
  303.433
  303.329
  303.339
  303.384
  303.431
  303.462
  303.491
  303.518
  303.546
  303.573
  303.601
  303.628
  303.655
  303.682
  303.711
  303.744
  303.787
  303.856
  303.114
  302.617
  302.563
  302.553
  302.541
  302.498
  302.455
  302.491
  302.604
  302.711
  302.788
  302.826
  302.834
  302.826
  302.809
  302.8
  302.793
  303.522
  303.302
  303.253
  303.297
  303.376
  303.45
  303.469
  303.494
  303.521
  303.55
  303.581
  303.612
  303.644
  303.675
  303.705
  303.738
  303.769
  303.806
  303.868
  303.285
  302.687
  302.618
  302.618
  302.608
  302.514
  302.428
  302.468
  302.606
  302.76
  302.873
  302.929
  302.938
  302.92
  302.889
  302.859
  302.833
  302.85
  302.929
  303.015
  303.145
  303.294
  303.436
  303.551
  303.642
  303.713
  303.775
  303.833
  303.888
  303.942
  303.993
  304.044
  304.09
  303.973
  303.892
  303.861
  303.888
  303.457
  302.783
  302.704
  302.72
  302.701
  302.525
  302.403
  302.444
  302.619
  302.828
  302.988
  303.068
  303.08
  303.052
  303.006
  302.963
  302.936
  302.96
  303.035
  303.161
  303.32
  303.486
  303.639
  303.767
  303.876
  303.959
  304.029
  304.084
  304.128
  304.164
  304.191
  304.209
  304.211
  304.123
  304.004
  303.928
  303.918
  304.1
  304.8
  304.668
  303.623
  302.909
  302.832
  302.881
  302.762
  302.516
  302.365
  302.424
  302.652
  302.93
  303.144
  303.251
  303.27
  303.23
  303.174
  303.132
  303.123
  303.182
  303.301
  303.454
  303.622
  303.783
  303.924
  304.038
  304.13
  304.203
  304.255
  304.293
  304.321
  304.339
  304.348
  304.344
  304.319
  304.234
  304.113
  304.015
  303.974
  304.06
  304.292
  304.398
  303.803
  303.094
  303.035
  303.036
  302.771
  302.435
  302.286
  302.409
  302.728
  303.094
  303.363
  303.487
  303.504
  303.457
  303.406
  303.385
  303.415
  303.515
  303.664
  303.823
  303.98
  304.12
  304.235
  304.323
  304.391
  304.433
  304.459
  304.476
  304.486
  304.488
  304.48
  304.46
  304.422
  304.338
  304.229
  304.13
  304.071
  304.097
  304.19
  304.3
  304.035
  303.518
  303.463
  303.165
  302.617
  302.204
  302.151
  302.435
  302.896
  303.365
  303.666
  303.773
  303.772
  303.738
  303.716
  303.729
  303.796
  303.922
  304.075
  304.221
  304.35
  304.455
  304.533
  304.586
  304.614
  304.628
  304.633
  304.633
  304.626
  304.613
  304.593
  304.563
  304.523
  304.46
  304.367
  304.283
  304.229
  304.244
  304.3
  304.445
  304.379
  304.12
  303.884
  302.8
  301.896
  301.665
  302.016
  302.64
  303.276
  303.817
  304.021
  304.078
  304.079
  304.076
  304.091
  304.139
  304.227
  304.347
  304.475
  304.589
  304.677
  304.739
  304.776
  304.794
  304.798
  304.794
  304.784
  304.771
  304.752
  304.73
  304.703
  304.674
  304.645
  304.618
  304.597
  304.594
  304.617
  304.66
  304.696
  304.794
  294.697
  296.123
  298.728
  300.889
  302.527
  303.595
  304.058
  304.282
  304.367
  304.4
  304.42
  304.446
  304.487
  304.55
  304.632
  304.725
  304.813
  304.883
  304.932
  304.96
  304.97
  304.968
  304.958
  304.944
  304.926
  304.906
  304.883
  304.858
  304.832
  304.804
  304.777
  304.752
  304.734
  304.731
  304.751
  304.8
  304.894
  305.24
  297.411
  300.694
  302.279
  303.351
  304.024
  304.395
  304.565
  304.653
  304.703
  304.738
  304.771
  304.809
  304.855
  304.909
  304.968
  305.026
  305.075
  305.109
  305.128
  305.133
  305.129
  305.118
  305.104
  305.086
  305.067
  305.047
  305.024
  305
  304.974
  304.946
  304.916
  304.888
  304.863
  304.847
  304.847
  304.896
  305.03
  305.209
  302.462
  302.387
  302.366
  303.843
  304.454
  304.708
  304.852
  304.946
  305.008
  305.053
  305.089
  305.12
  305.149
  305.177
  305.205
  305.232
  305.256
  305.275
  305.287
  305.292
  305.289
  305.281
  305.27
  305.256
  305.241
  305.226
  305.21
  305.192
  305.174
  305.155
  305.134
  305.111
  305.086
  305.06
  305.035
  305.014
  305.015
  305.085
  305.225
  305.417
)
;

boundaryField
{
  floor
  {
    type wallHeatTransfer;
    Tinf uniform 305.2;
    alphaWall uniform 0.24;
    value nonuniform List<scalar> 29
(
  302.978
  303.763
  303.676
  303.608
  303.586
  303.614
  303.645
  303.68
  303.715
  303.748
  303.78
  303.812
  303.842
  303.871
  303.899
  303.928
  303.957
  303.99
  304.032
  304.101
  304.101
  304.092
  304.097
  304.111
  302.978
  303.763
  303.787
  303.764
  303.059
)
;
  }
  ceiling
  {
    type wallHeatTransfer;
    Tinf uniform 303.2;
    alphaWall uniform 0.24;
    value nonuniform List<scalar> 43
(
  302.51
  302.438
  302.415
  303.808
  304.377
  304.609
  304.738
  304.82
  304.872
  304.91
  304.941
  304.969
  304.996
  305.021
  305.046
  305.07
  305.091
  305.105
  305.113
  305.112
  305.105
  305.094
  305.079
  305.063
  305.046
  305.028
  305.009
  304.99
  304.969
  304.947
  304.924
  304.899
  304.875
  304.85
  304.827
  304.811
  304.813
  304.873
  304.998
  305.169
  304.327
  304.084
  297.741
)
;
  }
  sWall
  {
    type wallHeatTransfer;
    Tinf uniform 315.2;
    alphaWall uniform 0.36;
    value uniform 303.68;
  }
  nWall
  {
    type wallHeatTransfer;
    Tinf uniform 307.2;
    alphaWall uniform 0.36;
    value nonuniform List<scalar> 6
(
  305.195
  304.961
  304.841
  305.528
  305.486
  305.701
)
;
  }
  sideWalls
  {
    type empty;
  }
  glass1
  {
    type wallHeatTransfer;
    Tinf uniform 315.2;
    alphaWall uniform 4.3;
    value nonuniform List<scalar> 9
(
  310.641
  310.085
  309.727
  309.452
  309.223
  309.03
  308.953
  309.071
  309.344
)
;
  }
  glass2
  {
    type wallHeatTransfer;
    Tinf uniform 307.2;
    alphaWall uniform 4.3;
    value nonuniform List<scalar> 2
(
  306.307
  306.413
)
;
  }
  sun
  {
    type wallHeatTransfer;
    Tinf uniform 305.2;
    alphaWall uniform 0.24;
    value nonuniform List<scalar> 14
(
  303.007
  302.754
  302.731
  302.716
  302.701
  302.689
  302.684
  302.699
  302.782
  302.827
  302.863
  302.891
  302.916
  302.942
)
;
  }
  heatsource1
  {
    type fixedGradient;
    gradient uniform 0;
  }
  heatsource2
  {
    type fixedGradient;
    gradient uniform 0;
  }
  Table_master
  {
    type zeroGradient;
  }
  Table_slave
  {
    type zeroGradient;
  }
  inlet
  {
    type fixedValue;
    value uniform 293.15;
  }
  outlet
  {
    type zeroGradient;
  }
} 	// ************************************************************************* //

