/*--------------------------------*- C++ -*----------------------------------*\
  =========                 |
  \\      /  F ield         | OpenFOAM: The Open Source CFD Toolbox
   \\    /   O peration     | Website:  https://openfoam.org
    \\  /    A nd           | Version:  6
     \\/     M anipulation  |
\*---------------------------------------------------------------------------*/
FoamFile
{
    version     2.0;
    format      ascii;
    class       surfaceScalarField;
    location    "1500";
    object      phi;
}
// * * * * * * * * * * * * * * * * * * * * * * * * * * * * * * * * * * * * * //

dimensions      [1 0 -1 0 0 0 0];

internalField   nonuniform List<scalar> 
852
(
-0.00293609
0.00299236
-0.00397331
0.00103722
-0.00476201
0.000788704
-0.00537933
0.000617319
-0.00579613
0.0004168
-0.00598981
0.000193677
-0.00593848
-5.13293e-05
-0.00562444
-0.000314036
-0.00505967
-0.000564777
-0.00429564
-0.000764022
-0.00341275
-0.000882896
-0.00249962
-0.000913127
-0.00163093
-0.000868691
-0.000828496
-0.000802433
-0.000827056
-0.000674552
0.000677238
-0.000343689
-0.000330862
0.000263631
-0.00060732
0.000735448
-0.000471818
0.00104747
-0.000312019
0.00124083
-0.000193361
0.00134578
-0.000104946
0.00139784
-5.20627e-05
0.00142708
-2.92381e-05
0.00144512
-1.80396e-05
0.0014551
-9.98161e-06
0.00145796
-2.86505e-06
0.00145212
5.84474e-06
0.00142893
2.31916e-05
0.00136626
6.26679e-05
0.00122639
0.000139865
0.000994871
0.000231522
0.000705334
0.000289537
0.000708948
-0.00209452
0.00523838
-0.00309886
0.00204156
-0.00390448
0.00159432
-0.00450852
0.00122136
-0.00491534
0.00082362
-0.00511141
0.000389752
-0.00507149
-9.12568e-05
-0.00478085
-0.000604675
-0.00426249
-0.00108313
-0.00357748
-0.00144903
-0.00280785
-0.00165253
-0.00203412
-0.00168685
-0.00132862
-0.00157419
-0.000779931
-0.00135113
-0.000577145
-0.00102984
-8.02424e-05
-0.000496954
-8.02937e-05
0.000380924
0.000303959
0.000804261
-0.000754198
0.00105165
-0.000854707
0.00125911
-0.000679281
0.00141302
-0.00046593
0.00150239
-0.000282725
0.00151598
-0.00011854
0.0015197
-5.57847e-05
0.00152428
-3.38127e-05
0.0015281
-2.18631e-05
0.00153058
-1.24652e-05
0.00153185
-4.13218e-06
0.00153097
6.7282e-06
0.00152435
2.9805e-05
0.0014833
0.000103719
0.00130885
0.000314317
0.00100728
0.00053309
0.000627156
0.000669665
0.00134541
-0.00146592
0.00693599
-0.0023286
0.00290424
-0.00303693
0.00230264
-0.00354814
0.00173258
-0.00389814
0.00117362
-0.00406902
0.000560634
-0.00401613
-0.000144147
-0.00371703
-0.000903772
-0.00321629
-0.00158387
-0.00258953
-0.00207579
-0.00191849
-0.00232358
-0.00126744
-0.0023379
-0.000687307
-0.00215432
-0.000229946
-0.00180849
7.45032e-05
-0.00133429
0.000276133
-0.000698583
0.000195839
0.00148284
-0.00117087
0.00169672
-0.000968077
0.00167587
-0.000833853
0.00167614
-0.000679554
0.00169731
-0.000487104
0.001707
-0.000292413
0.00158862
0.00153298
0.00149932
0.00147761
0.0014653
0.00146132
0.0014682
0.00149816
0.00160203
0.00132182
0.000594528
0.000981343
0.00087357
0.000548523
0.00110248
0.00190813
-0.00102393
0.0082599
-0.0017056
0.00358591
-0.00216657
0.00276362
-0.00249367
0.00205968
-0.00271739
0.00139734
-0.00280576
0.000649001
-0.00268405
-0.00026586
-0.00233931
-0.00124851
-0.00185473
-0.00206845
-0.00131361
-0.00261691
-0.000783266
-0.00285393
-0.000299496
-0.00282167
0.000119789
-0.0025736
0.000469333
-0.00215803
0.000776075
-0.00164103
0.00114455
-0.00106705
0.00190228
-0.000561893
0.00243938
-0.000529828
0.00203765
-0.000769147
0.00191168
-0.000842101
0.00180293
-0.000725106
0.00171049
-0.000587117
0.00166099
-0.000437597
0.0016429
-0.000274328
0.00175558
-0.000112837
0.00182745
-7.20224e-05
0.00188582
-5.85209e-05
0.00193098
-4.53102e-05
0.00194898
-1.81523e-05
0.0019187
3.01254e-05
0.00181565
0.000102902
0.00160744
0.000208056
0.00124011
0.000367171
0.00110954
0.000725101
0.000823454
0.00115966
0.00038629
0.00153965
0.00231304
-0.000718143
0.00933598
-0.00123466
0.00410242
-0.00132102
0.00284997
-0.00137247
0.00211113
-0.00139353
0.0014184
-0.00130484
0.000560304
-0.00102545
-0.000545251
-0.000616922
-0.00165704
-0.00018495
-0.00250042
0.000203909
-0.00300577
0.000522703
-0.00317272
0.000768666
-0.00306763
0.000954605
-0.00275954
0.0011088
-0.00231222
0.00126179
-0.00179403
0.00146515
-0.00127041
0.00174892
-0.000845668
0.0018869
-0.000667808
0.00179003
-0.000672278
0.00161612
-0.000668192
0.00147032
-0.000579302
0.00135172
-0.000468519
0.00127108
-0.000356959
0.00124128
-0.000244526
0.00128282
-0.000154379
0.00133039
-0.000119587
0.00138287
-0.000111007
0.00143692
-9.93541e-05
0.00148197
-6.32023e-05
0.00149857
1.352e-05
0.00146624
0.000135234
0.00137298
0.000301319
0.00121952
0.000520626
0.00108563
0.000858993
0.000941989
0.0013033
0.000623193
0.00185845
0.00055281
0.00238342
-0.000965784
0.00151839
-0.00142927
0.000463283
-0.00138229
-0.000626975
0.0103698
-0.000980818
0.00445627
-0.000553477
0.00242263
-0.000187547
0.0017452
9.4193e-05
0.00113666
0.000483632
0.000170865
0.000981924
-0.00104354
0.00140288
-0.002078
0.00168925
-0.00278679
0.00183668
-0.0031532
0.00187458
-0.00321062
0.00183132
-0.00302437
0.00173702
-0.00266525
0.00162781
-0.00220301
0.00153678
-0.001703
0.00148964
-0.00122327
0.00148056
-0.000836592
0.00142621
-0.000613455
0.00128252
-0.000528592
0.00109281
-0.000478475
0.000926254
-0.000412751
0.000799703
-0.000341968
0.000718951
-0.000276207
0.000691314
-0.000216889
0.000713764
-0.000176829
0.000762147
-0.00016797
0.000825711
-0.000174571
0.000899898
-0.000173542
0.000979143
-0.000142446
0.00105149
-5.88309e-05
0.00109934
8.73853e-05
0.00111839
0.000282274
0.00111676
0.00052225
0.00114173
0.000834024
0.00124074
0.00120429
0.00142725
0.00167194
0.00187034
0.00194033
0.00213252
0.00125621
0.00174357
0.000852232
0.000417845
-0.000681919
0.0115028
-0.00056117
0.00433552
0.000575429
0.00128603
0.00137154
0.000949091
0.00205701
0.000451188
0.00275845
-0.000530579
0.00330283
-0.00158792
0.00359018
-0.00236534
0.00362518
-0.0028218
0.00345324
-0.00298125
0.00313634
-0.00289372
0.00273557
-0.00262361
0.00230415
-0.00223383
0.00188879
-0.00178765
0.00152498
-0.00133919
0.00122893
-0.000927218
0.000999198
-0.000606856
0.000800739
-0.000414996
0.000600854
-0.000328707
0.000410868
-0.000288489
0.00025588
-0.000257764
0.000145594
-0.000231683
8.09032e-05
-0.000211515
6.20319e-05
-0.000198018
8.23112e-05
-0.000197108
0.000126828
-0.000212487
0.000186374
-0.000234117
0.000259891
-0.000247059
0.000351442
-0.000233997
0.000465886
-0.000173275
0.000591059
-3.77881e-05
0.000716356
0.000156978
0.000852959
0.000385647
0.00103839
0.000648592
0.00132094
0.000921743
0.0017623
0.00123057
0.0024292
0.00127344
0.00297084
0.000714571
0.00299166
0.000831406
0.00347057
0.00259542
0.00941205
0.00329988
0.00363106
0.00370257
0.000883342
0.00439316
0.000258508
0.00520896
-0.000364621
0.00583864
-0.00116025
0.00606018
-0.00180946
0.0059025
-0.00220766
0.00544235
-0.00236166
0.00477185
-0.00231075
0.00398627
-0.00210814
0.00316963
-0.00180697
0.00238343
-0.00144762
0.00167669
-0.00108091
0.00108226
-0.000744755
0.000606616
-0.000451577
0.000255136
-0.000255376
-5.69329e-07
-0.000159291
-0.000197051
-0.000132226
-0.00035086
-0.00013468
-0.000466791
-0.000141833
-0.00054733
-0.000151143
-0.000596162
-0.000162684
-0.000616847
-0.000177333
-0.000616235
-0.00019772
-0.000604381
-0.000224341
-0.000586827
-0.000251671
-0.000562726
-0.000271159
-0.000523863
-0.000272861
-0.000451504
-0.000245635
-0.000316799
-0.000172493
-0.000135322
-2.44988e-05
7.79819e-05
0.000172342
0.000346547
0.000380027
0.000681725
0.000586564
0.00112384
0.000788452
0.00160994
0.000787347
0.00181668
0.00050783
0.00108074
0.00156735
0.00480061
0.00996564
0.0135887
0.012458
0.00201399
0.0117514
0.000965139
0.0110958
0.000290986
0.0102156
-0.00028008
0.00907061
-0.00066447
0.0077654
-0.000902448
0.00639401
-0.00099027
0.0050299
-0.000946633
0.00374006
-0.000818309
0.00257724
-0.000644145
0.00156239
-0.000432769
0.000720119
-0.000238642
5.72042e-05
-8.18398e-05
-0.000410342
1.59694e-05
-0.000699422
3.37042e-05
-0.000878469
1.97559e-05
-0.00100495
-5.7479e-06
-0.00110612
-3.35111e-05
-0.00118846
-5.94915e-05
-0.00125483
-8.47711e-05
-0.00130896
-0.000108549
-0.00135511
-0.000131183
-0.00139995
-0.000152882
-0.00145179
-0.000172501
-0.00151805
-0.000185407
-0.00160584
-0.000183369
-0.00172367
-0.000155036
-0.00188183
-8.74776e-05
-0.00208608
3.17585e-05
-0.00232333
0.00021275
-0.00262046
0.000469478
-0.00305903
0.000818593
-0.00373061
0.00125814
-0.00470174
0.00175958
-0.00608903
0.00217464
-0.00777368
0.00219247
-0.0073017
0.00109537
-0.00222523
0.00467872
0.00351263
0.00379215
0.00185171
0.00417446
-9.13222e-05
0.00418133
-0.00028695
0.00377763
-0.000260768
0.00314691
-0.000271736
0.00239577
-0.000239129
0.00159209
-0.000142948
0.000778004
-4.22563e-06
5.79543e-06
0.000128064
-0.000633709
0.000206735
-0.00108565
0.000213296
-0.00137268
0.000205196
-0.00153635
0.000179638
-0.00163908
0.000136438
-0.00171267
9.33428e-05
-0.00177375
5.53352e-05
-0.0018311
2.38342e-05
-0.00188962
-9.67776e-07
-0.00195123
-2.31669e-05
-0.00201671
-4.30647e-05
-0.00208791
-5.99862e-05
-0.00216805
-7.27358e-05
-0.0022596
-8.0955e-05
-0.0023635
-8.15045e-05
-0.00247868
-6.81888e-05
-0.00260109
-3.26244e-05
-0.00272312
3.45494e-05
-0.0028328
0.000141438
-0.00292695
0.0003069
-0.00301333
0.000555853
-0.00309728
0.00090255
-0.00317458
0.00133544
-0.0032
0.001785
-0.00312121
0.00209586
-0.00275873
0.00182999
-0.00149801
-0.000165354
-0.00365125
-0.000539629
0.00411698
0.000297018
0.00101506
-8.1253e-05
0.000286949
-0.000454815
8.6612e-05
-0.000784765
6.91815e-05
-0.00114539
8.88879e-05
-0.00151209
0.000127574
-0.00183188
0.000176844
-0.00205793
0.000221822
-0.00218397
0.000254098
-0.00224068
0.00026345
-0.00226568
0.000238294
-0.00226386
0.000203377
-0.0022517
0.000167472
-0.00224808
0.000132826
-0.00225794
0.000103196
-0.00228105
7.84453e-05
-0.00231511
5.79007e-05
-0.00235693
4.08479e-05
-0.00240764
2.75396e-05
-0.00246604
1.53351e-05
-0.00252992
3.90315e-06
-0.0025967
-5.95733e-06
-0.00266428
-1.33792e-05
-0.00272905
-1.67343e-05
-0.00278428
-1.29561e-05
-0.0028191
2.19159e-06
-0.00282325
3.87052e-05
-0.00278659
0.000104777
-0.0026875
0.000207812
-0.00249477
0.00036312
-0.00218167
0.000589451
-0.0017292
0.000882965
-0.00110923
0.00116503
-0.00015108
0.00113771
0.0011419
0.000537014
0.00157803
-0.000601483
-0.00199437
-0.00723166
-0.0101331
-0.00597328
-0.00493826
-0.00464014
-0.00454661
-0.00447313
-0.00438192
-0.00425362
-0.00407743
-0.00385747
-0.00360639
-0.00334707
-0.00311395
-0.00291663
-0.00275594
-0.00263044
-0.00253501
-0.00246466
-0.0024151
-0.00238278
-0.0023639
-0.00235731
-0.00236218
-0.00237688
-0.00239894
-0.00242423
-0.00244557
-0.00245157
-0.0024208
-0.0023237
-0.00212327
-0.00176726
-0.00118463
-0.000308242
0.000850435
0.00198175
0.00251214
0.00190364
)
;

boundaryField
{
    floor
    {
        type            calculated;
        value           nonuniform List<scalar> 
29
(
0
0
0
0
0
0
0
0
0
0
0
0
0
0
0
0
0
0
0
0
-3.61414e-06
-9.30884e-06
-1.41959e-05
-1.86194e-05
-1.44e-06
-2.68649e-06
-7.64574e-06
-8.01222e-06
-7.27186e-06
)
;
    }
    ceiling
    {
        type            calculated;
        value           nonuniform List<scalar> 
43
(
-4.54169e-05
-4.40989e-05
-4.27921e-05
-1.99537e-05
-1.11747e-05
-6.92082e-06
-4.30011e-06
-2.32232e-06
-7.17257e-07
6.47394e-07
1.86799e-06
3.01297e-06
4.1301e-06
5.17203e-06
6.06511e-06
6.77829e-06
7.33077e-06
7.76106e-06
8.09409e-06
8.34461e-06
8.52845e-06
8.65933e-06
8.74185e-06
8.77293e-06
8.7481e-06
8.67366e-06
8.55453e-06
8.3921e-06
8.18706e-06
7.93955e-06
7.66858e-06
7.38704e-06
7.10458e-06
6.82806e-06
6.5739e-06
6.35654e-06
6.38832e-06
6.62732e-06
7.01949e-06
8.24825e-06
1.10882e-05
8.03886e-06
-6.47252e-05
)
;
    }
    sWall
    {
        type            calculated;
        value           uniform -0.000274902;
    }
    nWall
    {
        type            calculated;
        value           nonuniform List<scalar> 6(-4.71884e-05 -5.6563e-05 -6.10583e-05 -7.19931e-05 -7.88508e-05 -9.898e-05);
    }
    sideWalls
    {
        type            empty;
        value           nonuniform 0();
    }
    glass1
    {
        type            calculated;
        value           nonuniform List<scalar> 9(-5.62642e-05 -0.0001515 -0.000231695 -0.000299972 -0.000357939 -0.000406827 -0.000451079 -0.000504697 -0.000564676);
    }
    glass2
    {
        type            calculated;
        value           nonuniform List<scalar> 2(-0.000249303 -0.000275858);
    }
    sun
    {
        type            calculated;
        value           uniform 0;
    }
    heatsource1
    {
        type            calculated;
        value           nonuniform List<scalar> 3(2.03964e-07 2.0392e-07 2.03937e-07);
    }
    heatsource2
    {
        type            calculated;
        value           nonuniform List<scalar> 4(5.10985e-08 5.12207e-08 0 0);
    }
    Table_master
    {
        type            calculated;
        value           nonuniform List<scalar> 9(-1.52972e-07 -1.53053e-07 -1.53082e-07 -1.53102e-07 -1.53116e-07 -1.53125e-07 -1.53129e-07 -1.53122e-07 -1.5309e-07);
    }
    Table_slave
    {
        type            calculated;
        value           nonuniform List<scalar> 9(1.52849e-07 1.52874e-07 1.52858e-07 1.52844e-07 1.52839e-07 1.52842e-07 1.52858e-07 1.52901e-07 1.5298e-07);
    }
    inlet
    {
        type            calculated;
        value           uniform -0.00617735;
    }
    outlet
    {
        type            calculated;
        value           nonuniform List<scalar> 2(0.00755198 0.00294549);
    }
}


// ************************************************************************* //
