/*--------------------------------*- C++ -*----------------------------------*\
  =========                 |
  \\      /  F ield         | OpenFOAM: The Open Source CFD Toolbox
   \\    /   O peration     | Website:  https://openfoam.org
    \\  /    A nd           | Version:  6
     \\/     M anipulation  |
\*---------------------------------------------------------------------------*/
FoamFile
{
    version     2.0;
    format      ascii;
    class       volScalarField;
    location    "590";
    object      nut;
}
// * * * * * * * * * * * * * * * * * * * * * * * * * * * * * * * * * * * * * //

dimensions      [0 2 -1 0 0 0 0];

internalField   nonuniform List<scalar> 
459
(
0.00040689
0.000526104
0.000620638
0.000720559
0.000788225
0.000797833
0.00078669
0.00076427
0.00073695
0.000707509
0.000679018
0.000650921
0.000620494
0.000583522
0.000542126
0.000510771
0.000612133
0.000613586
0.000595518
0.000564249
0.000531195
0.000495125
0.000461505
0.000432015
0.000406441
0.000384197
0.000364667
0.000347303
0.0003317
0.000317004
0.000302203
0.000287653
0.000270223
0.000301073
0.000483574
0.00125794
0.00182733
0.00213759
0.00213906
0.00230849
0.00239684
0.00236538
0.00227049
0.00215149
0.00197813
0.00174816
0.00147858
0.00117208
0.000851122
0.000544206
0.000487185
0.000744687
0.00222251
0.00175238
0.00170556
0.00173267
0.0016801
0.00132728
0.00113251
0.000996869
0.000895311
0.00081652
0.000754341
0.000703692
0.000650729
0.000592086
0.000538054
0.000555326
0.000565908
0.000393498
0.000558217
0.00185222
0.00237407
0.00226487
0.00206326
0.00234784
0.00259269
0.00265889
0.00262116
0.00255004
0.00244125
0.00225999
0.00199016
0.00163943
0.00124665
0.000872017
0.000499614
0.000742533
0.00215065
0.00178227
0.001873
0.00204659
0.00199229
0.000654858
0.000576096
0.000512192
0.000460432
0.000418253
0.000383621
0.000355165
0.000332736
0.000316627
0.000357238
0.000500849
0.000710239
0.000458169
0.00063443
0.00235627
0.00274034
0.00211714
0.00189188
0.00230795
0.00268818
0.00281036
0.0027771
0.00271178
0.0026354
0.00249925
0.00226999
0.00194755
0.00156187
0.00115943
0.000749284
0.000521394
0.00108569
0.00138535
0.00186604
0.00235355
0.00268858
0.00257971
0.000711119
0.000651987
0.000605419
0.000564993
0.000527099
0.00048953
0.000450697
0.000409113
0.000361229
0.000350755
0.000471064
0.000846983
0.000533673
0.000706178
0.00277933
0.00295583
0.00188506
0.00178503
0.00235833
0.00287873
0.00303979
0.00297687
0.00289057
0.00281997
0.00269937
0.00249918
0.00222435
0.00190119
0.00156738
0.00127314
0.00133251
0.00178441
0.00244475
0.00304604
0.00347524
0.00371034
0.00371209
0.00320842
0.00290254
0.00258982
0.00228172
0.00197305
0.00166128
0.00134423
0.00102569
0.000707023
0.000511846
0.000522017
0.000810459
0.000738885
0.000571341
0.000596561
0.000820213
0.000765373
0.00308957
0.0027343
0.00163479
0.00173389
0.00247845
0.00314731
0.00334507
0.00325937
0.00320751
0.00313235
0.00300264
0.00283492
0.00263644
0.00243601
0.00228861
0.00228272
0.00272624
0.00334369
0.0038794
0.00426021
0.00447007
0.00453304
0.00446803
0.00424489
0.00391001
0.00350283
0.00306051
0.00260406
0.00214518
0.00168866
0.00127084
0.000968661
0.000838302
0.000827854
0.000866901
0.000843402
0.000894589
0.00129254
0.0011008
0.000838106
0.00331423
0.00211313
0.00139808
0.0017344
0.00266095
0.00347975
0.0037112
0.00365748
0.00355929
0.00342403
0.00331585
0.00323327
0.00316637
0.00315707
0.00326523
0.00356813
0.0041226
0.00461297
0.0049201
0.00505393
0.00503368
0.00490977
0.00469575
0.00439054
0.00401788
0.00359708
0.00314838
0.00269602
0.00226763
0.00189586
0.00162323
0.00148175
0.00145274
0.00143425
0.0013045
0.00104506
0.00128453
0.00238523
0.00149746
0.000881073
0.0030648
0.00137028
0.00122047
0.00181223
0.00293666
0.00389479
0.00414106
0.00394903
0.00369115
0.00354576
0.00351016
0.00354233
0.00363231
0.00380331
0.00409955
0.00451147
0.00495104
0.0052363
0.00530942
0.00520018
0.00493543
0.00459267
0.00423736
0.00388697
0.00354499
0.00320706
0.00288202
0.00259353
0.00237184
0.00224366
0.00222042
0.00228059
0.00235429
0.00233557
0.00215597
0.00172461
0.00189201
0.00432612
0.00205624
0.000906026
0.00116179
0.000722026
0.00118193
0.00205354
0.0034151
0.00446499
0.00459179
0.00424819
0.00402782
0.00398173
0.00402465
0.0041161
0.00425268
0.00444423
0.00469419
0.00496182
0.00515652
0.00518583
0.00503918
0.00476251
0.00442789
0.00409444
0.00379743
0.00354883
0.0033482
0.00319287
0.00308801
0.0030447
0.00307305
0.00317479
0.00333544
0.0035157
0.00364802
0.00365285
0.00349362
0.00307963
0.00300122
0.00565147
0.00230088
0.000464613
0.00164343
0.00284014
0.00437704
0.005063
0.00497509
0.00489976
0.00494287
0.00503073
0.00511867
0.00519866
0.00527555
0.00535337
0.00542689
0.00547481
0.00546623
0.00538477
0.00524365
0.00507146
0.00489532
0.00473323
0.00459445
0.00448354
0.00440498
0.00436459
0.00437001
0.0044287
0.00454434
0.00471209
0.00491254
0.00510633
0.00523374
0.00522161
0.00509051
0.00477967
0.00457086
0.00583915
0.00193805
0.00204383
0.00599507
0.00621177
0.00575771
0.00553805
0.00552787
0.00565713
0.00581873
0.00595335
0.00604674
0.0061055
0.00614108
0.00616327
0.00617763
0.00618408
0.00617725
0.00614968
0.00609996
0.00603397
0.00596083
0.00588781
0.00582031
0.00576365
0.00572476
0.00571156
0.0057324
0.00579484
0.00590365
0.00605735
0.00624275
0.00642754
0.00655298
0.00653321
0.00637352
0.00601077
0.0055634
0.00480465
0.00163235
0.00131678
0.00140053
0.00154319
0.00162638
0.00161173
0.00156398
0.00153313
0.00152204
0.00152212
0.00152546
0.00152899
0.00153219
0.00153539
0.00153902
0.00154322
0.00154763
0.00155129
0.00155301
0.00155221
0.0015492
0.00154487
0.00154011
0.00153562
0.00153195
0.00152958
0.00152901
0.00153071
0.00153511
0.00154245
0.00155259
0.0015647
0.0015768
0.00158543
0.00158601
0.00157961
0.00156553
0.00156565
0.00159141
0.0015883
0.00139407
)
;

boundaryField
{
    floor
    {
        type            nutkWallFunction;
        Cmu             0.09;
        kappa           0.41;
        E               9.8;
        value           nonuniform List<scalar> 
29
(
6.51087e-05
6.11289e-05
7.3886e-05
7.40671e-05
7.18136e-05
6.78946e-05
6.37228e-05
5.91338e-05
5.4819e-05
5.10021e-05
4.76655e-05
4.47417e-05
4.2157e-05
3.9844e-05
3.77529e-05
3.57718e-05
3.37643e-05
3.17784e-05
2.93815e-05
3.36081e-05
3.3608e-05
4.5963e-05
5.43849e-05
6.4033e-05
6.51087e-05
6.11289e-05
9.01924e-05
8.99259e-05
6.24802e-05
)
;
    }
    ceiling
    {
        type            nutkWallFunction;
        Cmu             0.09;
        kappa           0.41;
        E               9.8;
        value           nonuniform List<scalar> 
43
(
0.000157337
0.000166847
0.000182907
0.000192197
0.000190567
0.000185237
0.000181786
0.000180544
0.000180554
0.000180929
0.000181326
0.000181685
0.000182044
0.00018245
0.00018292
0.000183415
0.000183825
0.000184018
0.000183928
0.000183591
0.000183106
0.000182572
0.00018207
0.000181658
0.000181393
0.000181328
0.000181519
0.000182012
0.000182834
0.000183969
0.000185322
0.000186675
0.000187638
0.000187703
0.000186987
0.000185413
0.000185426
0.000188304
0.000187958
0.000166122
0.000109589
0.000139546
0.00023808
)
;
    }
    sWall
    {
        type            nutkWallFunction;
        Cmu             0.09;
        kappa           0.41;
        E               9.8;
        value           uniform 0.000157341;
    }
    nWall
    {
        type            nutkWallFunction;
        Cmu             0.09;
        kappa           0.41;
        E               9.8;
        value           nonuniform List<scalar> 6(9.9329e-05 0.000132485 0.000177782 0.000226572 0.000192869 0.000166122);
    }
    sideWalls
    {
        type            empty;
    }
    glass1
    {
        type            nutkWallFunction;
        Cmu             0.09;
        kappa           0.41;
        E               9.8;
        value           nonuniform List<scalar> 9(4.77235e-05 5.76592e-05 6.71447e-05 7.66696e-05 8.55079e-05 9.27166e-05 0.000101484 0.000106621 0.00010959);
    }
    glass2
    {
        type            nutkWallFunction;
        Cmu             0.09;
        kappa           0.41;
        E               9.8;
        value           nonuniform List<scalar> 2(0.000239394 0.000265789);
    }
    sun
    {
        type            nutkWallFunction;
        Cmu             0.09;
        kappa           0.41;
        E               9.8;
        value           nonuniform List<scalar> 
14
(
4.77291e-05
6.30832e-05
7.49511e-05
8.72623e-05
9.54776e-05
9.66344e-05
9.52875e-05
9.25728e-05
8.92527e-05
8.56588e-05
8.2164e-05
7.87003e-05
7.49289e-05
7.03161e-05
)
;
    }
    heatsource1
    {
        type            nutkWallFunction;
        Cmu             0.09;
        kappa           0.41;
        E               9.8;
        value           nonuniform List<scalar> 3(6.8778e-05 7.19374e-05 9.93298e-05);
    }
    heatsource2
    {
        type            nutkWallFunction;
        Cmu             0.09;
        kappa           0.41;
        E               9.8;
        value           nonuniform List<scalar> 4(6.53654e-05 5.8113e-05 5.8113e-05 5.97018e-05);
    }
    Table_master
    {
        type            nutkWallFunction;
        Cmu             0.09;
        kappa           0.41;
        E               9.8;
        value           nonuniform List<scalar> 9(7.91826e-05 6.9378e-05 6.13028e-05 5.46709e-05 4.91977e-05 4.46516e-05 4.08769e-05 3.78743e-05 3.57016e-05);
    }
    Table_slave
    {
        type            nutkWallFunction;
        Cmu             0.09;
        kappa           0.41;
        E               9.8;
        value           nonuniform List<scalar> 9(8.6099e-05 7.88278e-05 7.30457e-05 6.79824e-05 6.31957e-05 5.84081e-05 5.34112e-05 4.79999e-05 4.16811e-05);
    }
    inlet
    {
        type            calculated;
        value           uniform 0.000100623;
    }
    outlet
    {
        type            calculated;
        value           nonuniform List<scalar> 2(0.00131678 0.00140053);
    }
}


// ************************************************************************* //
