/*--------------------------------*- C++ -*----------------------------------*\
  =========                 |
  \\      /  F ield         | OpenFOAM: The Open Source CFD Toolbox
   \\    /   O peration     | Website:  https://openfoam.org
    \\  /    A nd           | Version:  6
     \\/     M anipulation  |
\*---------------------------------------------------------------------------*/
FoamFile
{
    version     2.0;
    format      ascii;
    class       volScalarField;
    location    "700";
    object      epsilon;
}
// * * * * * * * * * * * * * * * * * * * * * * * * * * * * * * * * * * * * * //

dimensions      [0 2 -3 0 0 0 0];

internalField   nonuniform List<scalar> 
459
(
0.000646042
0.000867174
0.000947953
0.00110916
0.00128535
0.00148823
0.00167912
0.00180738
0.0018357
0.00174632
0.00153651
0.00110718
0.000788247
0.000504743
0.000312412
5.90317e-05
9.54245e-05
0.000153364
0.000194956
0.000199793
0.000185258
0.000152919
0.000122724
9.91453e-05
8.12285e-05
6.75233e-05
5.69086e-05
4.85357e-05
4.18425e-05
3.63201e-05
3.15268e-05
2.70411e-05
2.3058e-05
1.71347e-05
0.00148814
0.00197631
0.000805367
0.00080542
0.000886654
0.00102714
0.00119201
0.00131603
0.00134984
0.00127824
0.00111815
0.00086876
0.000666632
0.000498519
0.000367008
0.00058249
0.000295914
5.57424e-05
9.41781e-05
0.000144453
0.000161514
0.000159744
0.00015143
0.000154545
0.000125675
9.83323e-05
7.68727e-05
6.06564e-05
4.84894e-05
3.92788e-05
3.22522e-05
2.69177e-05
2.35435e-05
2.19158e-05
3.32201e-05
2.67948e-05
0.00256183
0.00438637
0.000955262
0.000801277
0.000915903
0.00112621
0.00134779
0.00148542
0.00150896
0.00142216
0.00124142
0.00101252
0.000802739
0.000623121
0.000471352
0.00043182
0.000554697
0.000140043
0.000179051
0.000192864
0.000192962
0.000182753
0.000180176
0.000392183
0.000257187
0.000174347
0.000122708
8.95449e-05
6.7549e-05
5.25193e-05
4.22112e-05
3.54787e-05
2.66148e-05
2.22552e-05
4.92806e-05
3.51825e-05
0.00396242
0.0086855
0.00142643
0.000878457
0.00102602
0.0013661
0.00163888
0.0017534
0.00174285
0.00162206
0.00141501
0.00116436
0.000918884
0.000714414
0.000555992
0.000464883
0.000463468
0.000804975
0.000526685
0.000377574
0.00030188
0.000257922
0.000226461
0.000219148
0.000576605
0.000426358
0.000330548
0.000264261
0.000214366
0.000173758
0.000138916
0.000107967
7.9227e-05
4.24039e-05
2.69066e-05
7.3489e-05
4.27425e-05
0.00582289
0.0151485
0.00266979
0.00115021
0.00132476
0.00190978
0.0021437
0.00216953
0.00209026
0.00191633
0.0016517
0.00132716
0.00100805
0.000749637
0.000567795
0.000458122
0.000428242
0.00046862
0.000422123
0.000376413
0.000339016
0.000302054
0.000263268
0.000229622
0.000225737
0.000207446
0.000187419
0.000166764
0.000145182
0.000123042
0.000101226
8.07653e-05
6.20959e-05
4.22565e-05
2.9322e-05
5.63143e-05
4.2621e-05
6.91586e-05
0.00012119
0.000172269
0.00833924
0.0224134
0.0058709
0.00227168
0.00265389
0.00297413
0.00293444
0.002787
0.00259507
0.00232708
0.00195888
0.00151859
0.00109377
0.000761615
0.000546337
0.000435826
0.000409576
0.000425131
0.000428293
0.000414044
0.000381768
0.000336434
0.000285741
0.000238805
0.00020587
0.000183708
0.000165581
0.000147195
0.000127488
0.000107181
8.75338e-05
6.97941e-05
5.47348e-05
4.16801e-05
3.4359e-05
4.43948e-05
4.56248e-05
5.51209e-05
0.000227494
0.000197685
0.0110228
0.0268132
0.0119039
0.0064779
0.00552982
0.0047191
0.0040939
0.00364145
0.00326857
0.00285511
0.00233513
0.00173152
0.00116993
0.000756378
0.000516913
0.000421704
0.000415136
0.000439214
0.000448809
0.000428637
0.000384974
0.000329421
0.000272571
0.000223394
0.000188484
0.000167695
0.000152735
0.000138709
0.000124161
0.000109439
9.53956e-05
8.25433e-05
7.14596e-05
6.2299e-05
6.02418e-05
6.90303e-05
8.8954e-05
0.000145047
0.000332376
0.00031086
0.011522
0.027253
0.0163228
0.0115769
0.00852311
0.00655915
0.00536591
0.00463748
0.00408491
0.00348353
0.00274437
0.00189767
0.00116192
0.000678089
0.000463319
0.000410381
0.000415921
0.000430405
0.000422234
0.000387151
0.000335036
0.000278796
0.000228535
0.000190023
0.000165336
0.000152121
0.000145447
0.000142585
0.000143441
0.0001481
0.000155853
0.000166372
0.000181653
0.00020824
0.000256099
0.000389898
0.000719635
0.00140113
0.00419588
0.00112156
0.0106011
0.0171622
0.0134941
0.0103887
0.00818417
0.00689036
0.00614881
0.00561829
0.00498895
0.00408833
0.00296938
0.00168523
0.000851902
0.000532819
0.000417958
0.000385337
0.000379337
0.000370455
0.000344533
0.000303729
0.000257163
0.000213456
0.000177903
0.000152875
0.000138001
0.000131356
0.00013133
0.000138009
0.000152759
0.000177849
0.000216383
0.00027257
0.000353692
0.000470916
0.000633395
0.000845029
0.00108503
0.00129923
0.0014696
0.000911621
0.00281658
0.00465446
0.00658579
0.00708913
0.00689102
0.00609621
0.00450727
0.00269876
0.00154249
0.000884893
0.000558451
0.000419305
0.000362315
0.000337053
0.000318812
0.000295249
0.0002635
0.000227839
0.00019416
0.000166281
0.000145369
0.000130954
0.000121932
0.000117526
0.000117827
0.000123719
0.000136642
0.000158752
0.000193208
0.00024451
0.000318678
0.000422306
0.000557872
0.000714356
0.000858452
0.000947245
0.000886701
0.00054862
0.00302226
0.00882346
0.00807962
0.00593628
0.00430197
0.00298682
0.00195423
0.00122321
0.000778737
0.000539635
0.00042089
0.000364147
0.000335314
0.000317306
0.00030179
0.000285294
0.000267604
0.000250313
0.000235014
0.000222451
0.000212587
0.000204982
0.000199101
0.000194561
0.000191356
0.00019016
0.000192552
0.000201086
0.00021926
0.000251492
0.000302879
0.00037769
0.000475437
0.000589493
0.00066595
0.000745624
0.000796914
0.000585483
0.00220142
0.0026347
0.00298377
0.00374963
0.00297249
0.00240037
0.00198726
0.00157796
0.00121078
0.000925486
0.000732659
0.000614784
0.000542728
0.000494747
0.000457584
0.00042298
0.000386454
0.000347196
0.000307498
0.000270786
0.000239575
0.000214652
0.000195476
0.000180985
0.000170238
0.000162761
0.00015864
0.000158443
0.0001631
0.000173795
0.000191955
0.0002194
0.000258562
0.000312332
0.000383199
0.00047874
0.000498653
0.000444069
0.000375038
0.000308223
)
;

boundaryField
{
    floor
    {
        Cmu             0.09;
        kappa           0.41;
        E               9.8;
        type            epsilonWallFunction;
        value           nonuniform List<scalar> 
29
(
0.000312412
5.90317e-05
9.54245e-05
0.000153364
0.000194956
0.000199793
0.000185258
0.000152919
0.000122724
9.91453e-05
8.12285e-05
6.75233e-05
5.69086e-05
4.85357e-05
4.18425e-05
3.63201e-05
3.15268e-05
2.70411e-05
2.3058e-05
1.71347e-05
1.71347e-05
2.67948e-05
3.51825e-05
4.27425e-05
0.000312412
5.90317e-05
5.57424e-05
0.000140043
0.000804975
)
;
    }
    ceiling
    {
        Cmu             0.09;
        kappa           0.41;
        E               9.8;
        type            epsilonWallFunction;
        value           nonuniform List<scalar> 
43
(
0.00220142
0.0026347
0.00298377
0.00374963
0.00297249
0.00240037
0.00198726
0.00157796
0.00121078
0.000925486
0.000732659
0.000614784
0.000542728
0.000494747
0.000457584
0.00042298
0.000386454
0.000347196
0.000307498
0.000270786
0.000239575
0.000214652
0.000195476
0.000180985
0.000170238
0.000162761
0.00015864
0.000158443
0.0001631
0.000173795
0.000191955
0.0002194
0.000258562
0.000312332
0.000383199
0.00047874
0.000498653
0.000444069
0.000375038
0.000308223
0.0106011
0.0171622
0.00302226
)
;
    }
    sWall
    {
        Cmu             0.09;
        kappa           0.41;
        E               9.8;
        type            epsilonWallFunction;
        value           uniform 0.00220142;
    }
    nWall
    {
        Cmu             0.09;
        kappa           0.41;
        E               9.8;
        type            epsilonWallFunction;
        value           nonuniform List<scalar> 6(0.000172269 0.000197685 0.00031086 0.00054862 0.000585483 0.000308223);
    }
    sideWalls
    {
        type            empty;
    }
    glass1
    {
        Cmu             0.09;
        kappa           0.41;
        E               9.8;
        type            epsilonWallFunction;
        value           nonuniform List<scalar> 9(0.000646042 0.00148814 0.00256183 0.00396242 0.00582289 0.00833924 0.0110228 0.011522 0.0106011);
    }
    glass2
    {
        Cmu             0.09;
        kappa           0.41;
        E               9.8;
        type            epsilonWallFunction;
        value           nonuniform List<scalar> 2(0.00112156 0.000911621);
    }
    sun
    {
        Cmu             0.09;
        kappa           0.41;
        E               9.8;
        type            epsilonWallFunction;
        value           nonuniform List<scalar> 
14
(
0.000646042
0.000867174
0.000947953
0.00110916
0.00128535
0.00148823
0.00167912
0.00180738
0.0018357
0.00174632
0.00153651
0.00110718
0.000788247
0.000504743
)
;
    }
    heatsource1
    {
        Cmu             0.09;
        kappa           0.41;
        E               9.8;
        type            epsilonWallFunction;
        value           nonuniform List<scalar> 3(6.91586e-05 0.00012119 0.000172269);
    }
    heatsource2
    {
        Cmu             0.09;
        kappa           0.41;
        E               9.8;
        type            epsilonWallFunction;
        value           nonuniform List<scalar> 4(0.00058249 0.000295914 0.000295914 0.000554697);
    }
    Table_master
    {
        Cmu             0.09;
        kappa           0.41;
        E               9.8;
        type            epsilonWallFunction;
        value           nonuniform List<scalar> 9(0.000392183 0.000257187 0.000174347 0.000122708 8.95449e-05 6.7549e-05 5.25193e-05 4.22112e-05 3.54787e-05);
    }
    Table_slave
    {
        Cmu             0.09;
        kappa           0.41;
        E               9.8;
        type            epsilonWallFunction;
        value           nonuniform List<scalar> 9(0.000576605 0.000426358 0.000330548 0.000264261 0.000214366 0.000173758 0.000138916 0.000107967 7.9227e-05);
    }
    inlet
    {
        type            turbulentMixingLengthDissipationRateInlet;
        mixingLength    0.01;
        phi             phi;
        k               k;
        value           uniform 0.000101881;
    }
    outlet
    {
        type            zeroGradient;
    }
}


// ************************************************************************* //
