/*--------------------------------*- C++ -*----------------------------------*\
  =========                 |
  \\      /  F ield         | OpenFOAM: The Open Source CFD Toolbox
   \\    /   O peration     | Website:  https://openfoam.org
    \\  /    A nd           | Version:  6
     \\/     M anipulation  |
\*---------------------------------------------------------------------------*/
FoamFile
{
    version     2.0;
    format      ascii;
    class       surfaceScalarField;
    location    "900";
    object      phi;
}
// * * * * * * * * * * * * * * * * * * * * * * * * * * * * * * * * * * * * * //

dimensions      [1 0 -1 0 0 0 0];

internalField   nonuniform List<scalar> 
852
(
-0.00290717
0.00296423
-0.00388805
0.000980891
-0.00465659
0.000768549
-0.00527879
0.000622219
-0.00572613
0.000447343
-0.0059783
0.000252188
-0.00601311
3.48183e-05
-0.00580707
-0.000206023
-0.00535283
-0.000454236
-0.00467864
-0.000674173
-0.00384625
-0.000832381
-0.00293477
-0.000911464
-0.00201196
-0.000922801
-0.00107967
-0.000932281
-0.00107818
-0.000616339
0.000619286
-0.00024329
-0.000373035
0.000345878
-0.000589154
0.000763199
-0.000417308
0.00101857
-0.000255358
0.00116444
-0.00014586
0.00123837
-7.39097e-05
0.00127425
-3.58685e-05
0.00129287
-1.86012e-05
0.00130188
-8.99499e-06
0.00130414
-2.24243e-06
0.00130059
3.56459e-06
0.00128947
1.11374e-05
0.00126347
2.60146e-05
0.00120288
6.0609e-05
0.00107543
0.000127472
0.000875165
0.000200286
0.000656144
0.00021904
0.00066018
-0.00207291
0.00519048
-0.00304415
0.00195215
-0.00383863
0.00156303
-0.00444899
0.0012326
-0.00488498
0.000883339
-0.00513794
0.000505159
-0.00518446
8.13551e-05
-0.00499976
-0.000390714
-0.00458349
-0.000870494
-0.00397566
-0.00128199
-0.00324565
-0.00156238
-0.00247308
-0.00168402
-0.00173516
-0.00166072
-0.00113937
-0.00152806
-0.000957508
-0.00126003
-0.000260395
-0.000697153
-0.000260433
0.000520814
0.000106692
0.000887182
-0.00073939
0.00107383
-0.000775792
0.00123978
-0.000583239
0.00135661
-0.000372179
0.00141499
-0.000204228
0.00141973
-7.86344e-05
0.00142141
-3.75425e-05
0.00142387
-2.10406e-05
0.00142603
-1.1141e-05
0.00142749
-3.69417e-06
0.00142804
3.03471e-06
0.00142682
1.23726e-05
0.00142064
3.22109e-05
0.00138245
9.88145e-05
0.00121938
0.000290566
0.000938232
0.000481448
0.000591555
0.000565737
0.00126179
-0.00145515
0.00687973
-0.00230319
0.00280021
-0.00300692
0.00226678
-0.00352533
0.00175102
-0.00390325
0.00126126
-0.00413124
0.000733166
-0.00417265
0.000122775
-0.00398552
-0.00057784
-0.00357776
-0.00127824
-0.00300865
-0.0018511
-0.00235459
-0.00221642
-0.00168967
-0.00234893
-0.0010774
-0.00227297
-0.000584091
-0.00202136
-0.000245271
-0.00159883
6.38373e-05
-0.00100625
-0.000196584
0.0013853
-0.00127018
0.00159387
-0.000947947
0.00157132
-0.00075323
0.00156825
-0.000580157
0.0015816
-0.000385519
0.00156195
-0.000184568
0.00148348
0.0014461
0.00142523
0.00141425
0.00141073
0.00141393
0.00142647
0.00145885
0.00155783
0.00128705
0.000561369
0.000953704
0.000814809
0.000529606
0.000989855
0.00180653
-0.00102332
0.00820556
-0.00170862
0.00348552
-0.0021719
0.00273007
-0.00251133
0.00209047
-0.00276771
0.00151765
-0.00292413
0.000889595
-0.00291803
0.000116685
-0.00268869
-0.000807169
-0.00227423
-0.00169268
-0.00175853
-0.00236678
-0.0012153
-0.00275964
-0.000700339
-0.00286388
-0.000246049
-0.00272725
0.000133906
-0.0024013
0.000463859
-0.00192878
0.000833434
-0.00137582
0.00148877
-0.000851909
0.00216257
-0.000665956
0.00173797
-0.000845567
0.00164699
-0.000856956
0.0015826
-0.00068883
0.00152867
-0.000526225
0.00151442
-0.000371253
0.00154819
-0.000218332
0.00164549
-9.74414e-05
0.00172271
-7.73563e-05
0.00179393
-7.13668e-05
0.00185603
-6.22359e-05
0.00189421
-3.83298e-05
0.0018848
9.26992e-06
0.0018005
8.41638e-05
0.00160834
0.000192013
0.00125571
0.000352495
0.00111815
0.000698939
0.000818753
0.00111423
0.000344623
0.001464
0.00217088
-0.000722756
0.00928869
-0.00125639
0.00401916
-0.00135413
0.00282783
-0.00143041
0.00216676
-0.00149724
0.00158449
-0.00152211
0.000914474
-0.00138767
-1.77392e-05
-0.00106543
-0.0011294
-0.000658237
-0.00209986
-0.000246574
-0.00277843
0.000120313
-0.00312652
0.000419505
-0.00316306
0.000648609
-0.00295635
0.000825217
-0.0025779
0.000987415
-0.00209097
0.00117982
-0.00156821
0.00143461
-0.00110668
0.00160606
-0.000837399
0.00152748
-0.00076698
0.00137886
-0.000708323
0.00126841
-0.000578376
0.00118738
-0.000445178
0.00114452
-0.000328385
0.00115133
-0.000225134
0.00121165
-0.000157748
0.00127526
-0.000140961
0.0013453
-0.000141394
0.00141725
-0.00013417
0.00147998
-0.000101052
0.00151401
-2.47474e-05
0.00149667
0.000101518
0.00141364
0.000275051
0.00126606
0.000500089
0.00112983
0.000835185
0.000975275
0.00126879
0.000621971
0.00181732
0.000487049
0.00230582
-0.000989267
0.00147612
-0.00145181
0.00046235
-0.00140346
-0.000635333
0.0103331
-0.00101531
0.00439915
-0.000610693
0.00242323
-0.000298963
0.00185505
-8.51018e-05
0.00137064
0.000143408
0.000685976
0.000492228
-0.000366547
0.00088221
-0.00151937
0.00121141
-0.00242905
0.00143374
-0.00300076
0.00154429
-0.00323706
0.00156496
-0.00318372
0.00152149
-0.00291287
0.00144174
-0.00249814
0.00136035
-0.00200957
0.00130614
-0.00151399
0.00128157
-0.00108211
0.0012302
-0.000786019
0.00109723
-0.000633998
0.000923999
-0.000535088
0.000782219
-0.000436587
0.000685784
-0.000348734
0.000637167
-0.000279759
0.000639899
-0.000227857
0.000684172
-0.00020201
0.000747836
-0.000204615
0.000823928
-0.000217475
0.000909414
-0.000219646
0.000999918
-0.000191544
0.00108658
-0.000111392
0.00114917
3.89355e-05
0.0011765
0.000247737
0.00117996
0.000496641
0.00120766
0.000807491
0.00130672
0.00116976
0.00148943
0.00163462
0.00191486
0.00188041
0.00216222
0.00122878
0.00177323
0.000851357
0.000427877
-0.000718684
0.0115047
-0.00062872
0.00430919
0.00045148
0.00134304
0.00112496
0.00118158
0.00159411
0.000901504
0.00212414
0.000155956
0.00267677
-0.000919163
0.00304764
-0.00189022
0.00319758
-0.00257898
0.00314637
-0.00294953
0.00293515
-0.00302583
0.00261676
-0.00286532
0.00224327
-0.00253936
0.00185846
-0.00211333
0.00150002
-0.00165112
0.00119215
-0.0012061
0.000939245
-0.000829198
0.000722671
-0.000569436
0.000513609
-0.000424927
0.0003255
-0.00034697
0.000183446
-0.000294525
9.34666e-05
-0.000258746
5.13826e-05
-0.000237666
5.25596e-05
-0.000229024
8.58603e-05
-0.000235301
0.00013706
-0.000255805
0.000199581
-0.000279984
0.000274366
-0.000294419
0.000366791
-0.000283958
0.000483784
-0.000228372
0.000622246
-9.95135e-05
0.000764311
0.000105685
0.000912222
0.000348743
0.00111057
0.000609161
0.00140843
0.000871908
0.00186913
0.00117394
0.00252841
0.00122115
0.00304051
0.000716692
0.00305748
0.000834406
0.0035487
0.00253634
0.00947469
0.00319777
0.00364777
0.00348779
0.00105304
0.00391384
0.000755544
0.00444687
0.000368487
0.00505929
-0.000456458
0.00543933
-0.00129918
0.00547896
-0.00192984
0.00520552
-0.00230553
0.00469297
-0.00243696
0.00402708
-0.00235993
0.00329069
-0.00212892
0.00255317
-0.00180183
0.00185962
-0.00141977
0.00124804
-0.00103953
0.000737704
-0.000695761
0.000334536
-0.000426022
3.26698e-05
-0.000267562
-0.000191985
-0.000200264
-0.000355047
-0.000183899
-0.000467312
-0.000182251
-0.00053869
-0.00018736
-0.000578323
-0.000198023
-0.000593219
-0.000214119
-0.000591811
-0.000236698
-0.000582969
-0.000264637
-0.000570627
-0.000292315
-0.000552872
-0.000312162
-0.000521516
-0.000315302
-0.00045864
-0.000291235
-0.000331586
-0.000226554
-0.000131534
-9.43525e-05
0.0001139
0.000103322
0.000408556
0.000314518
0.000774115
0.000506363
0.00125346
0.000694608
0.00175386
0.000720757
0.00189597
0.000574599
0.000950885
0.00177951
0.00475943
0.01003
0.0136699
0.01237
0.00235297
0.0114511
0.00167445
0.010759
0.00106066
0.0100251
0.000277458
0.0090575
-0.000331618
0.00790812
-0.000780441
0.00666646
-0.00106385
0.00540181
-0.0011723
0.00417391
-0.00113202
0.0030339
-0.000988896
0.00202114
-0.000789067
0.00113801
-0.000536627
0.000406747
-0.000308264
-0.000153828
-0.000135179
-0.000533497
-4.63462e-05
-0.000769277
-3.17747e-05
-0.000924275
-4.52588e-05
-0.00103862
-6.95425e-05
-0.00112584
-9.50292e-05
-0.00119448
-0.000118704
-0.00125147
-0.000141025
-0.00130233
-0.000163256
-0.00135345
-0.000185562
-0.00141204
-0.000206042
-0.00148444
-0.000219904
-0.00157682
-0.000219769
-0.00169666
-0.000195448
-0.00185385
-0.000134034
-0.00205731
-2.30825e-05
-0.00229888
0.000147235
-0.0025843
0.000388752
-0.00298583
0.000716065
-0.0036108
0.00113135
-0.00453323
0.00161705
-0.00587996
0.00206749
-0.00758716
0.00228182
-0.00741902
0.00161138
-0.00237173
0.00475572
0.00372183
0.00414351
0.00228669
0.00479621
0.000407977
0.00492305
0.000150646
0.00458233
9.12194e-06
0.00399907
-0.000197165
0.00326805
-0.000332829
0.00245443
-0.000358679
0.00161983
-0.000297418
0.000810953
-0.000180012
5.17478e-05
-2.98572e-05
-0.000585586
0.000100711
-0.00103117
0.000137322
-0.00130221
0.000135869
-0.00145602
0.000107472
-0.00155362
6.5832e-05
-0.001627
2.81361e-05
-0.00169442
-2.11698e-06
-0.00176184
-2.76005e-05
-0.00183104
-4.95006e-05
-0.0019046
-6.74525e-05
-0.00198425
-8.35932e-05
-0.00207232
-9.74852e-05
-0.00217111
-0.000107242
-0.00228171
-0.000109288
-0.00240323
-9.82402e-05
-0.00253174
-6.69282e-05
-0.0026597
-6.05893e-06
-0.00277565
9.2879e-05
-0.00287237
0.000243966
-0.00295408
0.000470477
-0.00302458
0.000786575
-0.00308099
0.00118776
-0.0030861
0.00162218
-0.00297187
0.00195327
-0.0022975
0.00160746
-0.000610707
-7.54038e-05
-0.00290415
-0.000578566
0.00436005
0.000438848
0.00126929
0.00036396
0.000482872
0.000263183
0.000251426
0.000138991
0.000133314
-0.000110639
5.24615e-05
-0.000482705
3.92381e-05
-0.000909452
6.80706e-05
-0.00131885
0.000111984
-0.0016547
0.000155847
-0.00187392
0.000189362
-0.00197749
0.000204283
-0.00202872
0.000188564
-0.00205037
0.000157528
-0.00206456
0.000121664
-0.00208583
8.71114e-05
-0.00211565
5.79629e-05
-0.00215222
3.44552e-05
-0.00219662
1.68072e-05
-0.00224805
1.93867e-06
-0.00230546
-1.0036e-05
-0.00236889
-2.01505e-05
-0.00243779
-2.85723e-05
-0.00251049
-3.45353e-05
-0.00258345
-3.63198e-05
-0.00265054
-3.11389e-05
-0.00270226
-1.51983e-05
-0.00272558
1.72783e-05
-0.00271037
7.76766e-05
-0.0026377
0.000171302
-0.00247762
0.000310418
-0.0022017
0.000510658
-0.00178965
0.000775726
-0.00119964
0.00103218
-0.000136033
0.000889679
0.00175614
-0.000284708
0.00337732
-0.00169657
0.000558768
0.000981946
-0.0102411
-0.00583827
-0.00454703
-0.00405022
-0.00378908
-0.003649
-0.00359203
-0.00354999
-0.00348046
-0.00336816
-0.003213
-0.00302523
-0.0028234
-0.00263806
-0.0024844
-0.00236707
-0.00228463
-0.00223155
-0.00220212
-0.00219042
-0.00219362
-0.0022088
-0.00223408
-0.00226774
-0.00230729
-0.00234856
-0.00238454
-0.00240447
-0.00239178
-0.00231855
-0.00215155
-0.00184528
-0.00133863
-0.000566803
0.000461551
0.00134729
0.00105816
-0.000644132
)
;

boundaryField
{
    floor
    {
        type            calculated;
        value           nonuniform List<scalar> 
29
(
0
0
0
0
0
0
0
0
0
0
0
0
0
0
0
0
0
0
0
0
-4.01865e-06
-1.00355e-05
-1.51142e-05
-1.97158e-05
-1.48189e-06
-2.93225e-06
-8.20474e-06
-8.41795e-06
-7.83821e-06
)
;
    }
    ceiling
    {
        type            calculated;
        value           nonuniform List<scalar> 
43
(
-2.09013e-05
-4.09521e-05
-4.27321e-05
-2.19535e-05
-1.39377e-05
-9.71774e-06
-6.75888e-06
-4.51456e-06
-2.79974e-06
-1.44678e-06
-3.1326e-07
6.8421e-07
1.60036e-06
2.4579e-06
3.23396e-06
3.87095e-06
4.34484e-06
4.67432e-06
4.89245e-06
5.03022e-06
5.11093e-06
5.15015e-06
5.15413e-06
5.13371e-06
5.09206e-06
5.03068e-06
4.95073e-06
4.85312e-06
4.73817e-06
4.60488e-06
4.45706e-06
4.30662e-06
4.15921e-06
4.02195e-06
3.90696e-06
3.83778e-06
3.95007e-06
4.42835e-06
5.73744e-06
6.62699e-06
1.09472e-05
7.86963e-06
-5.96531e-05
)
;
    }
    sWall
    {
        type            calculated;
        value           uniform -0.000227606;
    }
    nWall
    {
        type            calculated;
        value           nonuniform List<scalar> 6(-4.85412e-05 -5.80998e-05 -6.33309e-05 -7.82828e-05 -8.55911e-05 -9.19818e-05);
    }
    sideWalls
    {
        type            empty;
        value           nonuniform 0();
    }
    glass1
    {
        type            calculated;
        value           nonuniform List<scalar> 9(-5.70426e-05 -0.000153335 -0.000234084 -0.000302496 -0.000360366 -0.000409088 -0.000452888 -0.000506316 -0.000566266);
    }
    glass2
    {
        type            calculated;
        value           nonuniform List<scalar> 2(-0.000259831 -0.000287848);
    }
    sun
    {
        type            calculated;
        value           uniform 0;
    }
    heatsource1
    {
        type            calculated;
        value           nonuniform List<scalar> 3(2.04175e-07 2.04111e-07 2.04126e-07);
    }
    heatsource2
    {
        type            calculated;
        value           nonuniform List<scalar> 4(5.10785e-08 5.12184e-08 0 0);
    }
    Table_master
    {
        type            calculated;
        value           nonuniform List<scalar> 9(-1.53129e-07 -1.53191e-07 -1.53215e-07 -1.53231e-07 -1.53244e-07 -1.53252e-07 -1.53255e-07 -1.53251e-07 -1.53223e-07);
    }
    Table_slave
    {
        type            calculated;
        value           nonuniform List<scalar> 9(1.53014e-07 1.53031e-07 1.53012e-07 1.52994e-07 1.52984e-07 1.52989e-07 1.53e-07 1.53037e-07 1.53113e-07);
    }
    inlet
    {
        type            calculated;
        value           uniform -0.00612458;
    }
    outlet
    {
        type            calculated;
        value           nonuniform List<scalar> 2(-0.000733431 0.011264);
    }
}


// ************************************************************************* //
