// -*- C++ -*-
// File generated by PyFoam - sorry for the ugliness

FoamFile
{
 version 2.0;
 format ascii;
 class volVectorField;
 location "1500";
 object U;
}

dimensions [ 0 1 -1 0 0 0 0 ];

internalField nonuniform List<vector> 459
(
  (0.0386326 0.0829157 0)
  (-0.161089 0.0235047 0)
  (-0.18319 0.0179322 0)
  (-0.214234 0.0133968 0)
  (-0.238743 0.00841665 0)
  (-0.256219 0.00319646 0)
  (-0.265665 -0.00242533 0)
  (-0.265537 -0.00860965 0)
  (-0.25469 -0.0154711 0)
  (-0.233164 -0.0225294 0)
  (-0.201977 -0.0289035 0)
  (-0.163253 -0.0340231 0)
  (-0.119827 -0.0382525 0)
  (-0.0779048 -0.0434559 0)
  (-0.0558037 -0.0508647 0)
  (0.00566322 0.00831458 0)
  (-0.00964292 -0.0207426 0)
  (0.0186003 -0.0256924 0)
  (0.0370169 -0.0183309 0)
  (0.0528212 -0.0120253 0)
  (0.0630777 -0.00765077 0)
  (0.0683598 -0.00491533 0)
  (0.0707317 -0.00353648 0)
  (0.0719042 -0.00290126 0)
  (0.0727173 -0.00257455 0)
  (0.0733891 -0.00236881 0)
  (0.0739155 -0.00219446 0)
  (0.0742 -0.00195036 0)
  (0.0739385 -0.00142003 0)
  (0.0723768 -0.000171725 0)
  (0.0680269 0.00240832 0)
  (0.0591643 0.00571269 0)
  (0.0463717 0.00980652 0)
  (0.00441609 0.0231388 0)
  (0.215899 0.170329 0)
  (-0.153099 0.0617619 0)
  (-0.146954 0.0515777 0)
  (-0.17877 0.0424658 0)
  (-0.20238 0.0324401 0)
  (-0.219374 0.0214831 0)
  (-0.228923 0.0089908 0)
  (-0.229366 -0.00550228 0)
  (-0.21948 -0.0215495 0)
  (-0.19982 -0.0371511 0)
  (-0.171913 -0.0498724 0)
  (-0.138595 -0.0579774 0)
  (-0.103574 -0.0611116 0)
  (-0.0721832 -0.0604598 0)
  (-0.051488 -0.0549827 0)
  (-0.0341124 -0.0312808 0)
  (-0.0110928 -6.73208e-05 0)
  (0.0607494 0.0172426 0)
  (0.0402331 -0.0260294 0)
  (0.0476562 -0.0317055 0)
  (0.0592761 -0.02424 0)
  (0.0679378 -0.0151831 0)
  (0.0727117 -0.00763963 0)
  (0.0741803 -0.00272517 0)
  (0.0741017 -0.00023805 0)
  (0.0739194 0.00083084 0)
  (0.0739622 0.00130134 0)
  (0.0740793 0.00153656 0)
  (0.0741556 0.00172774 0)
  (0.0741738 0.00213851 0)
  (0.0740204 0.00319693 0)
  (0.0730868 0.00594461 0)
  (0.0687577 0.0132559 0)
  (0.0580643 0.0204999 0)
  (0.0459573 0.0275527 0)
  (-0.0244444 0.0486422 0)
  (0.378983 0.255075 0)
  (-0.174576 0.0988109 0)
  (-0.108875 0.0831222 0)
  (-0.139898 0.0661848 0)
  (-0.159872 0.0494783 0)
  (-0.174816 0.0316712 0)
  (-0.183734 0.011391 0)
  (-0.184078 -0.0120665 0)
  (-0.173986 -0.0376504 0)
  (-0.154875 -0.0618518 0)
  (-0.129015 -0.0805799 0)
  (-0.0995563 -0.0913301 0)
  (-0.0699828 -0.0933672 0)
  (-0.0436615 -0.0873917 0)
  (-0.0231368 -0.0723108 0)
  (-0.00682212 -0.0454014 0)
  (0.01034 -0.00798266 0)
  (0.100538 -0.0599739 0)
  (0.0712761 -0.0536912 0)
  (0.0699093 -0.0434958 0)
  (0.0739497 -0.0318391 0)
  (0.0765346 -0.0204988 0)
  (0.0770953 -0.0110474 0)
  (0.0747215 -0.0092904 0)
  (0.0714521 -0.00708537 0)
  (0.0693437 -0.00590575 0)
  (0.0682851 -0.00524188 0)
  (0.0676448 -0.00483688 0)
  (0.0671382 -0.00454809 0)
  (0.0668419 -0.00419347 0)
  (0.0673774 -0.00330755 0)
  (0.0703104 0.000177498 0)
  (0.0683771 0.0187255 0)
  (0.0552692 0.0333767 0)
  (0.0480865 0.0461237 0)
  (-0.0504455 0.0760753 0)
  (0.525029 0.323222 0)
  (-0.214276 0.131916 0)
  (-0.0684788 0.109071 0)
  (-0.0990025 0.0854276 0)
  (-0.112192 0.0644383 0)
  (-0.122628 0.0421107 0)
  (-0.129324 0.0156251 0)
  (-0.127818 -0.0165348 0)
  (-0.115947 -0.0519847 0)
  (-0.0970368 -0.0842105 0)
  (-0.0742065 -0.107609 0)
  (-0.050192 -0.119741 0)
  (-0.0277141 -0.12021 0)
  (-0.00799259 -0.110514 0)
  (0.00953117 -0.0900828 0)
  (0.0262434 -0.0627857 0)
  (0.051481 -0.0349244 0)
  (0.0869684 -0.0191556 0)
  (0.0983419 -0.0474143 0)
  (0.0842674 -0.047176 0)
  (0.0759295 -0.0384468 0)
  (0.0730846 -0.0289291 0)
  (0.0721141 -0.0192642 0)
  (0.0730466 -0.00881943 0)
  (0.076214 -0.00525029 0)
  (0.0799591 -0.00448915 0)
  (0.0827097 -0.00394216 0)
  (0.0843576 -0.00334477 0)
  (0.0848656 -0.00249727 0)
  (0.083571 -0.00125097 0)
  (0.0798399 0.000488603 0)
  (0.0727114 0.00298297 0)
  (0.059096 0.00681407 0)
  (0.049842 0.0288811 0)
  (0.0417043 0.0479059 0)
  (0.0488692 0.0653716 0)
  (-0.0751399 0.101221 0)
  (0.649135 0.376379 0)
  (-0.260145 0.159729 0)
  (-0.0286853 0.122888 0)
  (-0.0573961 0.0956062 0)
  (-0.0617049 0.0725087 0)
  (-0.0651427 0.0480125 0)
  (-0.0674348 0.0176784 0)
  (-0.0596653 -0.0221565 0)
  (-0.0442233 -0.0666819 0)
  (-0.0264951 -0.104214 0)
  (-0.00912333 -0.129112 0)
  (0.00674754 -0.140099 0)
  (0.0192966 -0.137576 0)
  (0.029315 -0.124949 0)
  (0.0378794 -0.104318 0)
  (0.0470303 -0.0791531 0)
  (0.059509 -0.0552617 0)
  (0.0725684 -0.0436289 0)
  (0.0760263 -0.0469205 0)
  (0.069283 -0.0424346 0)
  (0.0612219 -0.033936 0)
  (0.056029 -0.0255273 0)
  (0.0532697 -0.0178609 0)
  (0.0529076 -0.0109289 0)
  (0.0545855 -0.00619599 0)
  (0.0575239 -0.00389384 0)
  (0.0601876 -0.00263143 0)
  (0.0623699 -0.00127846 0)
  (0.0639769 0.000850722 0)
  (0.0643833 0.00390491 0)
  (0.0629576 0.00791272 0)
  (0.0594251 0.0131337 0)
  (0.0530475 0.0203931 0)
  (0.0463455 0.0361951 0)
  (0.0391041 0.0567189 0)
  (0.0567719 0.0802327 0)
  (-0.00698512 0.114612 0)
  (0.0400355 0.0362604 0)
  (-0.0648848 -0.0383685 0)
  (-0.260306 -0.0590204 0)
  (0.736008 0.42154 0)
  (-0.301943 0.179541 0)
  (-3.37805e-06 0.11726 0)
  (-0.015878 0.0957528 0)
  (-0.00993894 0.0742248 0)
  (-0.00484634 0.0494106 0)
  (-0.000737941 0.0148553 0)
  (0.0214791 -0.034835 0)
  (0.039315 -0.0830693 0)
  (0.0527355 -0.119469 0)
  (0.0615062 -0.141183 0)
  (0.0657815 -0.14855 0)
  (0.0663845 -0.143493 0)
  (0.0646068 -0.128945 0)
  (0.0617799 -0.107829 0)
  (0.0594943 -0.0838337 0)
  (0.0588736 -0.0613661 0)
  (0.0585176 -0.0461819 0)
  (0.0543606 -0.0395836 0)
  (0.0460085 -0.0338761 0)
  (0.0373404 -0.0271362 0)
  (0.0313008 -0.0208558 0)
  (0.0281443 -0.0155503 0)
  (0.0276657 -0.0110738 0)
  (0.0292945 -0.0079855 0)
  (0.0321061 -0.00663503 0)
  (0.0351738 -0.00580781 0)
  (0.0382246 -0.00444541 0)
  (0.0410922 -0.00180196 0)
  (0.0437659 0.00249511 0)
  (0.045064 0.00818615 0)
  (0.0452016 0.015255 0)
  (0.044334 0.0242996 0)
  (0.0440361 0.0381335 0)
  (0.0435457 0.057339 0)
  (0.064713 0.0823697 0)
  (0.0502131 0.106776 0)
  (0.0860312 0.0730655 0)
  (0.111022 0.0450079 0)
  (-0.133134 -0.0131567 0)
  (0.778268 0.462674 0)
  (-0.321348 0.165848 0)
  (0.0215254 0.0659192 0)
  (0.0387393 0.07397 0)
  (0.052775 0.0666254 0)
  (0.0656118 0.0410223 0)
  (0.0880717 -0.00163774 0)
  (0.113998 -0.0535708 0)
  (0.129577 -0.0970244 0)
  (0.135072 -0.126889 0)
  (0.132127 -0.14238 0)
  (0.122633 -0.144717 0)
  (0.108781 -0.136253 0)
  (0.0927995 -0.119889 0)
  (0.0765455 -0.0985835 0)
  (0.061575 -0.0756959 0)
  (0.0487073 -0.054521 0)
  (0.0377765 -0.0389039 0)
  (0.027043 -0.0297887 0)
  (0.0166594 -0.024247 0)
  (0.00813261 -0.0198388 0)
  (0.0026686 -0.0163912 0)
  (8.80993e-05 -0.0138284 0)
  (-0.000113232 -0.0118297 0)
  (0.00141809 -0.0104699 0)
  (0.003881 -0.00983423 0)
  (0.00668858 -0.00924329 0)
  (0.00971814 -0.00799167 0)
  (0.0130382 -0.00538075 0)
  (0.0171335 -0.000687791 0)
  (0.0218645 0.00591134 0)
  (0.0258162 0.0135221 0)
  (0.0299278 0.0224784 0)
  (0.0358044 0.0343042 0)
  (0.0427843 0.0495856 0)
  (0.0644922 0.0698435 0)
  (0.0780324 0.0831036 0)
  (0.109336 0.0593517 0)
  (0.149831 0.0442766 0)
  (-0.0440648 0.0877323 0)
  (0.878608 0.468578 0)
  (-0.0840603 0.14618 0)
  (0.0996591 -0.0140497 0)
  (0.162915 -0.0167852 0)
  (0.171373 -0.00840791 0)
  (0.178645 -0.0283549 0)
  (0.208949 -0.0583055 0)
  (0.227152 -0.0865814 0)
  (0.228874 -0.109193 0)
  (0.216749 -0.123627 0)
  (0.194676 -0.128645 0)
  (0.16632 -0.124593 0)
  (0.135016 -0.113107 0)
  (0.103582 -0.0962331 0)
  (0.0739571 -0.0761442 0)
  (0.047581 -0.0556676 0)
  (0.0250634 -0.0371948 0)
  (0.00753143 -0.024141 0)
  (-0.0066401 -0.0171963 0)
  (-0.0162035 -0.0148669 0)
  (-0.0228391 -0.0139219 0)
  (-0.0268792 -0.0135149 0)
  (-0.028949 -0.0133064 0)
  (-0.0295712 -0.0130868 0)
  (-0.029203 -0.0128814 0)
  (-0.0283096 -0.01273 0)
  (-0.0272023 -0.0124433 0)
  (-0.0259006 -0.0117194 0)
  (-0.0241656 -0.0101717 0)
  (-0.0213518 -0.00730975 0)
  (-0.0156115 -0.00258353 0)
  (-0.0084484 0.00357639 0)
  (-0.00150913 0.0101206 0)
  (0.00849894 0.0173077 0)
  (0.0196774 0.0245972 0)
  (0.0406196 0.0335612 0)
  (0.062491 0.0306051 0)
  (0.0858313 0.00072332 0)
  (0.147624 0.0345482 0)
  (-0.389392 0.190806 0)
  (1.01627 0.428729 0)
  (0.485609 0.2855 0)
  (0.49995 0.193397 0)
  (0.513739 0.134323 0)
  (0.480831 0.0947571 0)
  (0.447066 0.0547388 0)
  (0.413355 0.0113486 0)
  (0.372648 -0.0284485 0)
  (0.325752 -0.0588438 0)
  (0.274855 -0.0774445 0)
  (0.222773 -0.0844325 0)
  (0.171857 -0.0818663 0)
  (0.124029 -0.0725916 0)
  (0.0807335 -0.0588848 0)
  (0.0426354 -0.0425609 0)
  (0.0106325 -0.0265289 0)
  (-0.0155796 -0.0132634 0)
  (-0.0308125 -0.00779414 0)
  (-0.041023 -0.00672181 0)
  (-0.0479682 -0.00777169 0)
  (-0.0529596 -0.00917212 0)
  (-0.0565653 -0.0103926 0)
  (-0.0592515 -0.0113393 0)
  (-0.061316 -0.0120067 0)
  (-0.0630447 -0.0124547 0)
  (-0.0647756 -0.012713 0)
  (-0.0668513 -0.012675 0)
  (-0.0695762 -0.0120599 0)
  (-0.0732232 -0.0103758 0)
  (-0.0780172 -0.0069755 0)
  (-0.0842251 -0.00124253 0)
  (-0.0908707 0.00646337 0)
  (-0.0993626 0.016009 0)
  (-0.112633 0.0281741 0)
  (-0.133438 0.0434635 0)
  (-0.163803 0.0610804 0)
  (-0.207933 0.0773 0)
  (-0.262362 0.0896363 0)
  (-0.331012 0.0981721 0)
  (-0.586549 0.101491 0)
  (-0.199692 0.0157438 0)
  (0.141308 0.0472436 0)
  (0.240486 0.0309059 0)
  (0.237511 0.00879908 0)
  (0.223368 -0.0116795 0)
  (0.209278 -0.0268623 0)
  (0.185234 -0.0366448 0)
  (0.15337 -0.0413691 0)
  (0.116744 -0.0409942 0)
  (0.0784121 -0.0362873 0)
  (0.0408139 -0.0282532 0)
  (0.00501556 -0.0167527 0)
  (-0.0269951 -0.00335522 0)
  (-0.0480442 0.00516864 0)
  (-0.0609343 0.00929039 0)
  (-0.0679267 0.00995088 0)
  (-0.0725235 0.0091029 0)
  (-0.0763821 0.00732695 0)
  (-0.0801629 0.00571115 0)
  (-0.0840439 0.0047713 0)
  (-0.0880235 0.00448285 0)
  (-0.0920067 0.00482781 0)
  (-0.0959646 0.00572003 0)
  (-0.0999356 0.00704338 0)
  (-0.103993 0.00867435 0)
  (-0.10822 0.0104826 0)
  (-0.112702 0.0123499 0)
  (-0.11738 0.0141094 0)
  (-0.121335 0.0168911 0)
  (-0.124483 0.0221843 0)
  (-0.127075 0.0309695 0)
  (-0.129231 0.0438614 0)
  (-0.131239 0.0606889 0)
  (-0.133194 0.0787748 0)
  (-0.132648 0.089041 0)
  (-0.115787 0.0709535 0)
  (-0.078384 -0.0133282 0)
  (-0.258457 -0.187717 0)
  (-0.0240406 0.199837 0)
  (0.0678431 0.0909996 0)
  (0.0401926 0.0272458 0)
  (0.0387673 0.0124393 0)
  (0.0397908 0.00353976 0)
  (0.0360518 -0.00702101 0)
  (0.0262389 -0.0152909 0)
  (0.00876583 -0.019527 0)
  (-0.0145339 -0.0195047 0)
  (-0.0378596 -0.0175643 0)
  (-0.0583425 -0.0166483 0)
  (-0.0734095 -0.0176262 0)
  (-0.0818151 -0.0211021 0)
  (-0.0853513 -0.0270097 0)
  (-0.0868273 -0.0340294 0)
  (-0.0875271 -0.0411744 0)
  (-0.0884995 -0.0472072 0)
  (-0.0902865 -0.0517432 0)
  (-0.093202 -0.0552233 0)
  (-0.0971278 -0.0579006 0)
  (-0.101832 -0.0604323 0)
  (-0.107111 -0.0626659 0)
  (-0.112691 -0.0642633 0)
  (-0.11822 -0.0647853 0)
  (-0.123264 -0.0637068 0)
  (-0.127318 -0.0604106 0)
  (-0.129879 -0.0541367 0)
  (-0.130668 -0.0446917 0)
  (-0.12961 -0.0329615 0)
  (-0.126033 -0.0191954 0)
  (-0.118781 -0.00312543 0)
  (-0.106632 0.0156979 0)
  (-0.0888218 0.0369735 0)
  (-0.0658058 0.0574562 0)
  (-0.0402661 0.0697524 0)
  (-0.000951903 0.0529363 0)
  (0.144019 -0.0182789 0)
  (-0.192598 -0.098143 0)
  (0.92431 0.0554784 0)
  (-0.408207 -0.46907 0)
  (-0.333414 0.0615795 0)
  (-0.223755 -0.0143621 0)
  (-0.177725 -0.0210556 0)
  (-0.153041 -0.00659991 0)
  (-0.140583 0.00660788 0)
  (-0.136546 0.0189711 0)
  (-0.136531 0.0314405 0)
  (-0.138839 0.043945 0)
  (-0.140207 0.0557449 0)
  (-0.138247 0.0662397 0)
  (-0.134175 0.0776436 0)
  (-0.128038 0.0899924 0)
  (-0.120704 0.102344 0)
  (-0.113542 0.113807 0)
  (-0.107674 0.123928 0)
  (-0.103621 0.132271 0)
  (-0.101399 0.138713 0)
  (-0.100615 0.143476 0)
  (-0.100837 0.147179 0)
  (-0.101702 0.150057 0)
  (-0.102985 0.153042 0)
  (-0.104509 0.155816 0)
  (-0.106147 0.157831 0)
  (-0.107797 0.158459 0)
  (-0.109352 0.157074 0)
  (-0.110652 0.153127 0)
  (-0.111388 0.146163 0)
  (-0.110876 0.137017 0)
  (-0.108023 0.127579 0)
  (-0.101294 0.119154 0)
  (-0.0886363 0.112839 0)
  (-0.0682788 0.10978 0)
  (-0.0401231 0.110883 0)
  (-0.000711398 0.115182 0)
  (0.0423721 0.116027 0)
  (0.0799724 0.107359 0)
  (0.157085 0.0889361 0)
  (-0.271038 0.0521615 0)
)
;

boundaryField
{
  floor
  {
    type noSlip;
  }
  ceiling
  {
    type noSlip;
  }
  sWall
  {
    type noSlip;
  }
  nWall
  {
    type noSlip;
  }
  sideWalls
  {
    type empty;
  }
  glass1
  {
    type noSlip;
  }
  glass2
  {
    type noSlip;
  }
  sun
  {
    type noSlip;
  }
  heatsource1
  {
    type noSlip;
  }
  heatsource2
  {
    type noSlip;
  }
  Table_master
  {
    type noSlip;
  }
  Table_slave
  {
    type noSlip;
  }
  inlet
  {
    type fixedValue;
    value uniform (0.277164 -0.114805 0);
  }
  outlet
  {
    type zeroGradient;
  }
} 	// ************************************************************************* //

