/*--------------------------------*- C++ -*----------------------------------*\
  =========                 |
  \\      /  F ield         | OpenFOAM: The Open Source CFD Toolbox
   \\    /   O peration     | Website:  https://openfoam.org
    \\  /    A nd           | Version:  6
     \\/     M anipulation  |
\*---------------------------------------------------------------------------*/
FoamFile
{
    version     2.0;
    format      ascii;
    class       volScalarField;
    location    "500";
    object      nut;
}
// * * * * * * * * * * * * * * * * * * * * * * * * * * * * * * * * * * * * * //

dimensions      [0 2 -1 0 0 0 0];

internalField   nonuniform List<scalar> 
459
(
0.00100563
0.0010902
0.00110357
0.00115341
0.00119893
0.00124068
0.00128046
0.0013205
0.00135427
0.00137444
0.00137582
0.00135419
0.00130877
0.00124579
0.0011772
0.00043591
0.000536127
0.000585949
0.000569473
0.000544168
0.000516132
0.000485825
0.000457007
0.000430911
0.000407563
0.000386692
0.000368086
0.000351393
0.000336183
0.000321969
0.000308051
0.00029335
0.000285423
0.000262978
0.00139456
0.00319795
0.00298978
0.00346783
0.00391376
0.00436943
0.00479733
0.00513684
0.0054214
0.00566507
0.00582791
0.00585543
0.00566288
0.00507354
0.00360334
0.0011909
0.00079088
0.000500347
0.000925643
0.00121112
0.00139992
0.00148607
0.00147563
0.00125574
0.00111411
0.00100737
0.000922481
0.000852961
0.00079294
0.000738771
0.00068812
0.00063987
0.000598394
0.000559483
0.000672774
0.00035871
0.00172353
0.0043813
0.00362744
0.00467244
0.00514246
0.00548229
0.00573999
0.0059407
0.00613951
0.00635791
0.00657044
0.00673619
0.0067958
0.00668351
0.00626792
0.00511014
0.00115281
0.00099294
0.00132102
0.00158482
0.00179823
0.00193164
0.00187233
0.00068301
0.00061113
0.000552958
0.000505599
0.000466668
0.000434335
0.00040727
0.000384602
0.000365927
0.000393502
0.000450671
0.000753597
0.000421095
0.00204414
0.00573219
0.00358238
0.00496317
0.00543794
0.00557915
0.0056261
0.00568328
0.00580427
0.00600138
0.00624837
0.00651023
0.00671984
0.00682842
0.00678414
0.00638643
0.00496775
0.00131825
0.00164832
0.00205448
0.00237595
0.00259581
0.00272219
0.00255941
0.000762649
0.00070534
0.000666321
0.000637734
0.0006132
0.000588357
0.000564153
0.000537963
0.000506343
0.0004769
0.000481353
0.000869991
0.000468773
0.0023722
0.00749481
0.00396727
0.00469846
0.00540913
0.00548111
0.00538503
0.00532654
0.00541992
0.0056147
0.00588151
0.00619481
0.0064603
0.00660692
0.00659143
0.00637131
0.00582505
0.00474686
0.00429226
0.00406048
0.00392093
0.0038413
0.00379877
0.00370897
0.00325234
0.0030599
0.00295994
0.00287825
0.00277609
0.00261653
0.00235284
0.00201257
0.0016227
0.00121757
0.000896524
0.000882197
0.000623048
0.00058846
0.000709906
0.000794457
0.00271875
0.00940947
0.00565493
0.00449265
0.00503998
0.00533264
0.00535923
0.00517526
0.00527271
0.00545266
0.00571814
0.00603529
0.00631909
0.00647161
0.00642624
0.00617694
0.00577747
0.00532322
0.00500641
0.00478348
0.00461043
0.00448482
0.00439037
0.0042921
0.00414063
0.00401112
0.00389167
0.00376572
0.00362394
0.00345886
0.00322162
0.00288606
0.00245137
0.00194097
0.00146524
0.00107036
0.000836242
0.000727593
0.00105193
0.000827397
0.00304346
0.010811
0.00830975
0.00589142
0.00529672
0.00534611
0.00542411
0.00536288
0.00535817
0.00547859
0.00573624
0.00607015
0.00636732
0.00650683
0.00641118
0.00609029
0.00565678
0.00528799
0.00508188
0.00494318
0.00478482
0.00459557
0.0043932
0.00420913
0.00405651
0.00393423
0.00382058
0.00370431
0.00358446
0.00346608
0.00335023
0.00314044
0.00279648
0.00235188
0.00191061
0.0014952
0.00121069
0.00112956
0.00116928
0.000929098
0.0031124
0.00988973
0.00861717
0.00770923
0.00696296
0.00649928
0.00600348
0.00561237
0.0054727
0.00559797
0.0059158
0.00629742
0.00659213
0.00666762
0.00645803
0.00600996
0.00549247
0.00513877
0.00499168
0.00476664
0.00444491
0.00411335
0.00384241
0.00365351
0.00352768
0.0034346
0.00335317
0.00327858
0.00321608
0.00317607
0.00317028
0.00317923
0.00298587
0.00267906
0.00240204
0.00226241
0.00236787
0.00277829
0.00348362
0.00147005
0.0030353
0.00362076
0.00406754
0.00426239
0.00436895
0.0043906
0.00448843
0.00475759
0.00520495
0.00577067
0.00634143
0.00678165
0.00697035
0.00682438
0.00634153
0.00567503
0.00513795
0.00477552
0.00443839
0.00401555
0.00359779
0.00327913
0.00307072
0.00293986
0.00285087
0.00277895
0.00271104
0.0026418
0.00256854
0.0024885
0.00239887
0.00230008
0.00221604
0.00215434
0.00213806
0.002161
0.00216312
0.00208687
0.00195504
0.0013806
0.00171707
0.00330063
0.00434134
0.0050888
0.00579561
0.00643143
0.00697843
0.00738624
0.00758925
0.00751647
0.0071416
0.00645778
0.00555558
0.00473614
0.00420253
0.00376195
0.00329708
0.00288275
0.00259201
0.00241228
0.0023034
0.00223325
0.00218284
0.00214248
0.00210811
0.00207882
0.00205552
0.00204054
0.0020376
0.00205521
0.00207998
0.00211172
0.00214533
0.00215729
0.00210747
0.00198049
0.00178937
0.00113992
0.00206413
0.00448166
0.00598256
0.00658002
0.00711655
0.00753196
0.00763229
0.00754884
0.00720474
0.00649832
0.00558384
0.00465237
0.00387798
0.00328917
0.00280952
0.00240388
0.00211811
0.00194112
0.00182757
0.00175801
0.00171809
0.00169809
0.0016934
0.00170205
0.00172321
0.00175625
0.00179994
0.00185139
0.00191321
0.00198817
0.00207462
0.00216738
0.00225279
0.00231303
0.00230425
0.00233575
0.00232704
0.00115899
0.00179805
0.00190279
0.00197887
0.00209344
0.00198225
0.00185518
0.00173947
0.00162716
0.00152834
0.00141681
0.00128454
0.00113315
0.000969749
0.000816233
0.000693397
0.000610508
0.000562587
0.000539206
0.000531535
0.000533718
0.00054257
0.000555449
0.0005713
0.000589919
0.000611278
0.000635459
0.000662648
0.000693184
0.000727664
0.000767161
0.000812115
0.000861747
0.000916761
0.000977878
0.0010452
0.00112606
0.00115405
0.00112675
0.00105654
0.000982276
)
;

boundaryField
{
    floor
    {
        type            nutkWallFunction;
        Cmu             0.09;
        kappa           0.41;
        E               9.8;
        value           nonuniform List<scalar> 
29
(
0.000141378
5.14477e-05
6.43065e-05
7.05852e-05
6.85163e-05
6.53244e-05
6.17666e-05
5.78936e-05
5.41829e-05
5.07973e-05
4.77464e-05
4.50001e-05
4.2536e-05
4.03115e-05
3.82727e-05
3.63567e-05
3.44697e-05
3.24643e-05
3.13776e-05
2.8278e-05
2.82779e-05
4.12883e-05
4.95176e-05
5.57019e-05
0.000141378
5.14477e-05
5.97547e-05
0.000119893
0.000157563
)
;
    }
    ceiling
    {
        type            nutkWallFunction;
        Cmu             0.09;
        kappa           0.41;
        E               9.8;
        value           nonuniform List<scalar> 
43
(
0.000211168
0.000222661
0.000230968
0.000243499
0.000231447
0.00021756
0.000204818
0.000192358
0.000181314
0.000168753
0.000153709
0.000136276
0.000117156
9.88505e-05
8.3912e-05
7.36547e-05
6.76488e-05
6.46962e-05
6.37242e-05
6.40014e-05
6.51228e-05
6.67502e-05
6.87468e-05
7.10833e-05
7.37527e-05
7.67612e-05
8.01275e-05
8.38884e-05
8.81114e-05
9.29197e-05
9.83571e-05
0.000104319
0.000110882
0.000118119
0.000126031
0.000135458
0.000138703
0.000135539
0.000127358
0.000118638
0.000343817
0.000404342
0.00024013
)
;
    }
    sWall
    {
        type            nutkWallFunction;
        Cmu             0.09;
        kappa           0.41;
        E               9.8;
        value           uniform 0.000211226;
    }
    nWall
    {
        type            nutkWallFunction;
        Cmu             0.09;
        kappa           0.41;
        E               9.8;
        value           nonuniform List<scalar> 6(9.62263e-05 0.000100199 0.000112351 0.000137076 0.000139285 0.000118644);
    }
    sideWalls
    {
        type            empty;
    }
    glass1
    {
        type            nutkWallFunction;
        Cmu             0.09;
        kappa           0.41;
        E               9.8;
        value           nonuniform List<scalar> 9(0.000121467 0.00016644 0.000203365 0.000238609 0.000274059 0.000310948 0.000345066 0.00035227 0.000344239);
    }
    glass2
    {
        type            nutkWallFunction;
        Cmu             0.09;
        kappa           0.41;
        E               9.8;
        value           nonuniform List<scalar> 2(0.000174845 0.000164725);
    }
    sun
    {
        type            nutkWallFunction;
        Cmu             0.09;
        kappa           0.41;
        E               9.8;
        value           nonuniform List<scalar> 
14
(
0.00012139
0.000131287
0.000132842
0.000138627
0.000143885
0.000148689
0.000153249
0.000157822
0.000161667
0.000163958
0.000164114
0.000161657
0.000156482
0.000149275
)
;
    }
    heatsource1
    {
        type            nutkWallFunction;
        Cmu             0.09;
        kappa           0.41;
        E               9.8;
        value           nonuniform List<scalar> 3(7.09031e-05 8.59403e-05 9.62258e-05);
    }
    heatsource2
    {
        type            nutkWallFunction;
        Cmu             0.09;
        kappa           0.41;
        E               9.8;
        value           nonuniform List<scalar> 4(0.000142954 9.57932e-05 9.57932e-05 0.000138554);
    }
    Table_master
    {
        type            nutkWallFunction;
        Cmu             0.09;
        kappa           0.41;
        E               9.8;
        value           nonuniform List<scalar> 9(8.2638e-05 7.37361e-05 6.64389e-05 6.04288e-05 5.54361e-05 5.12501e-05 4.77159e-05 4.47329e-05 4.22586e-05);
    }
    Table_slave
    {
        type            nutkWallFunction;
        Cmu             0.09;
        kappa           0.41;
        E               9.8;
        value           nonuniform List<scalar> 9(9.23712e-05 8.53802e-05 8.05816e-05 7.70448e-05 7.39942e-05 7.08899e-05 6.78501e-05 6.4543e-05 6.05236e-05);
    }
    inlet
    {
        type            calculated;
        value           uniform 0.000100623;
    }
    outlet
    {
        type            calculated;
        value           nonuniform List<scalar> 2(0.00179805 0.00190279);
    }
}


// ************************************************************************* //
