/*--------------------------------*- C++ -*----------------------------------*\
  =========                 |
  \\      /  F ield         | OpenFOAM: The Open Source CFD Toolbox
   \\    /   O peration     | Website:  https://openfoam.org
    \\  /    A nd           | Version:  6
     \\/     M anipulation  |
\*---------------------------------------------------------------------------*/
FoamFile
{
    version     2.0;
    format      ascii;
    class       volScalarField;
    location    "1100";
    object      alphat;
}
// * * * * * * * * * * * * * * * * * * * * * * * * * * * * * * * * * * * * * //

dimensions      [1 -1 -1 0 0 0 0];

internalField   nonuniform List<scalar> 
459
(
0.00196901
0.00282612
0.00270136
0.0025742
0.0024604
0.00235687
0.00225695
0.00215356
0.00203987
0.00190643
0.00173482
0.00146285
0.000680785
0.000456638
0.000466039
0.000485128
0.00060524
0.00059985
0.000577638
0.00055253
0.000514719
0.000471957
0.000430045
0.000387176
0.000343767
0.000302383
0.000267606
0.000243008
0.000228342
0.000222905
0.000233636
0.000300526
0.000466704
0.000385833
0.00317257
0.0037247
0.00379449
0.00369241
0.00358654
0.00349302
0.00338813
0.00327231
0.00313873
0.0029513
0.00263706
0.00207893
0.0012187
0.00120669
0.0012165
0.000466135
0.000385031
0.000556729
0.00185643
0.00198828
0.00183468
0.00150634
0.0012579
0.000987625
0.000828112
0.000697006
0.000598538
0.00053836
0.00050925
0.000502084
0.000508669
0.000503916
0.000449975
0.000593872
0.00113246
0.00051957
0.00351932
0.00443876
0.00415381
0.00383008
0.00371971
0.00367846
0.00365233
0.00361903
0.00354352
0.0033594
0.00297594
0.00233121
0.00179808
0.00166248
0.00124022
0.000904516
0.000407584
0.000786017
0.00253353
0.00226453
0.00177694
0.00131157
0.000942019
0.000415114
0.000360114
0.000330957
0.000306456
0.00029029
0.000278336
0.000269069
0.000261305
0.00026403
0.000518647
0.000920126
0.00162836
0.000597253
0.00370545
0.00503443
0.00402676
0.00340722
0.003339
0.00346739
0.00361772
0.00370542
0.00367723
0.00346692
0.00300063
0.00247649
0.00250363
0.00187182
0.00107437
0.000782377
0.000712832
0.000869024
0.00195986
0.00214597
0.00183984
0.00147306
0.00119022
0.000933362
0.000730996
0.000754104
0.00078469
0.000820095
0.000860477
0.000906105
0.00092875
0.000926745
0.00088978
0.000938858
0.00103382
0.00150752
0.000835702
0.00385498
0.00524334
0.00329448
0.00296981
0.00322498
0.00339182
0.00360277
0.00368984
0.00361019
0.00334725
0.00294554
0.00265422
0.00276721
0.00229382
0.00183191
0.00156206
0.00149866
0.00166539
0.00215935
0.00243259
0.00246354
0.00248192
0.0025141
0.002552
0.00261231
0.00272638
0.00286581
0.00301933
0.0031769
0.00331614
0.00336759
0.00331646
0.00314925
0.00276907
0.00225815
0.00188331
0.00145287
0.000820817
0.0008076
0.000952749
0.00400414
0.00499483
0.00238272
0.00357217
0.00355124
0.00344932
0.00353151
0.0035478
0.00343319
0.00319891
0.00293153
0.00278381
0.00290991
0.0029498
0.00290092
0.00278484
0.0027139
0.00278209
0.00301173
0.0031159
0.00313382
0.00315335
0.00316646
0.00316364
0.00316137
0.00318908
0.00325556
0.00335207
0.00346113
0.00356424
0.00363104
0.00363765
0.00358679
0.00342654
0.00298716
0.0024791
0.00198747
0.00146327
0.00168195
0.00102645
0.00418354
0.00442739
0.00195299
0.00327937
0.00348771
0.00340766
0.0034215
0.00339505
0.00328686
0.00312541
0.00298868
0.00295343
0.00339699
0.00391915
0.00411872
0.00418541
0.00418612
0.00416922
0.00416318
0.004114
0.00404764
0.00397935
0.00387262
0.00374528
0.00360975
0.00350985
0.00347388
0.0035008
0.0035629
0.00362921
0.00367664
0.00370928
0.00374606
0.00381867
0.00371377
0.00325729
0.00282263
0.00251697
0.00231586
0.00128773
0.0044384
0.0043693
0.00247706
0.00237948
0.00344354
0.00341652
0.00339599
0.00335153
0.00326996
0.00319045
0.00318606
0.00338756
0.0042718
0.0048774
0.0051386
0.0052913
0.00534613
0.00531991
0.00524807
0.00515063
0.00504888
0.00493727
0.00476491
0.00453429
0.0042746
0.0040336
0.00386691
0.00380792
0.00381575
0.00384069
0.00384197
0.00383462
0.00387808
0.00406
0.00442732
0.00471432
0.0048876
0.00504172
0.00517155
0.00160012
0.00489332
0.00559419
0.00561258
0.00204688
0.00307417
0.0037513
0.00364147
0.00355179
0.00348704
0.00348694
0.00365158
0.00423468
0.00509126
0.00546848
0.00569175
0.00585082
0.00592622
0.00591554
0.00584709
0.00574917
0.00564611
0.00554381
0.00542056
0.00522597
0.00496601
0.00466894
0.00438553
0.00424831
0.00420809
0.00420108
0.00412753
0.0039526
0.00369603
0.00339998
0.00313871
0.00294401
0.00276842
0.0025207
0.002278
0.00154309
0.0097438
0.00414505
0.00307371
0.00442818
0.0042715
0.00409967
0.00403201
0.00409341
0.00440472
0.00507427
0.00549191
0.00569058
0.00581158
0.00590407
0.00595902
0.00595716
0.0059088
0.00582761
0.00572876
0.00562368
0.00550876
0.0053655
0.00517501
0.00495437
0.00474588
0.0046088
0.00457407
0.00465385
0.00475681
0.00481856
0.00484299
0.00483023
0.0046729
0.004365
0.00409043
0.0039907
0.00381795
0.0014428
0.00507603
0.00282704
0.00459168
0.0045561
0.00434533
0.00418186
0.00410588
0.00407893
0.0041567
0.00439082
0.00472259
0.00498911
0.00515038
0.00523328
0.00526896
0.00527845
0.00526411
0.00522578
0.00516919
0.00511187
0.00506327
0.00502696
0.00500309
0.00498724
0.00498307
0.00499827
0.00502631
0.00504008
0.00505632
0.00511338
0.00517739
0.00517192
0.00496055
0.0046168
0.00423269
0.00399061
0.00372017
0.00146315
0.00211615
0.00277871
0.00382659
0.00160722
0.00135522
0.00133726
0.00137454
0.00138463
0.0013722
0.00131854
0.00124115
0.00117812
0.0011359
0.00111503
0.00110998
0.00111032
0.001111
0.00111011
0.00110728
0.00110317
0.00109913
0.00109549
0.00109304
0.00109254
0.00109486
0.0011011
0.001113
0.00113061
0.00115106
0.00116529
0.00116441
0.00114809
0.00113108
0.00115985
0.00125842
0.00135177
0.00136674
0.00129388
0.00124667
0.00115171
)
;

boundaryField
{
    floor
    {
        type            compressible::alphatWallFunction;
        Prt             0.85;
        value           nonuniform List<scalar> 
29
(
6.40115e-05
6.69883e-05
8.51938e-05
8.43933e-05
8.10695e-05
7.72876e-05
7.15437e-05
6.498e-05
5.84733e-05
5.17336e-05
4.48102e-05
3.81035e-05
3.23738e-05
2.82604e-05
2.57796e-05
2.48506e-05
2.66604e-05
3.77485e-05
6.41438e-05
5.14743e-05
5.14736e-05
7.22358e-05
8.39853e-05
0.000118928
6.40107e-05
6.69874e-05
7.79022e-05
0.000111781
0.000123737
)
;
    }
    ceiling
    {
        type            compressible::alphatWallFunction;
        Prt             0.85;
        value           nonuniform List<scalar> 
43
(
0.000292509
0.00037704
0.000506598
0.000225623
0.000191636
0.000189195
0.000194253
0.00019561
0.000193899
0.000186573
0.000175972
0.000167291
0.000161449
0.000158555
0.000157854
0.000157902
0.000157997
0.000157874
0.000157482
0.000156912
0.000156352
0.000155847
0.000155506
0.000155437
0.000155759
0.000156631
0.000158288
0.000160734
0.000163561
0.000165508
0.000165349
0.000163045
0.000160652
0.000164622
0.000178243
0.000191029
0.000193093
0.000183164
0.0001767
0.000163618
0.000634726
0.000717393
0.000656455
)
;
    }
    sWall
    {
        type            compressible::alphatWallFunction;
        Prt             0.85;
        value           uniform 0.000291487;
    }
    nWall
    {
        type            compressible::alphatWallFunction;
        Prt             0.85;
        value           nonuniform List<scalar> 6(0.000135448 0.000145833 0.000181997 0.000203052 0.000205809 0.000163296);
    }
    sideWalls
    {
        type            empty;
    }
    glass1
    {
        type            compressible::alphatWallFunction;
        Prt             0.85;
        value           nonuniform List<scalar> 9(0.000268781 0.000420117 0.00046254 0.00048513 0.000503187 0.000521122 0.000542607 0.000572999 0.000626903);
    }
    glass2
    {
        type            compressible::alphatWallFunction;
        Prt             0.85;
        value           nonuniform List<scalar> 2(0.000223038 0.000215437);
    }
    sun
    {
        type            compressible::alphatWallFunction;
        Prt             0.85;
        value           nonuniform List<scalar> 
14
(
0.000273278
0.000382825
0.000367116
0.000351025
0.000336553
0.000323325
0.000310498
0.000297159
0.000282411
0.000264983
0.000242361
0.000205927
9.5974e-05
6.2565e-05
)
;
    }
    heatsource1
    {
        type            compressible::alphatWallFunction;
        Prt             0.85;
        value           nonuniform List<scalar> 3(0.00011688 0.000114999 0.000135745);
    }
    heatsource2
    {
        type            compressible::alphatWallFunction;
        Prt             0.85;
        value           nonuniform List<scalar> 4(6.41572e-05 5.14746e-05 5.14739e-05 5.50259e-05);
    }
    Table_master
    {
        type            compressible::alphatWallFunction;
        Prt             0.85;
        value           nonuniform List<scalar> 9(5.62157e-05 4.75108e-05 4.28254e-05 3.88449e-05 3.61959e-05 3.42239e-05 3.26874e-05 3.13947e-05 3.18437e-05);
    }
    Table_slave
    {
        type            compressible::alphatWallFunction;
        Prt             0.85;
        value           nonuniform List<scalar> 9(0.000103858 0.000107224 0.000111661 0.000116773 0.000122573 0.000129079 0.000132293 0.000132002 0.000126733);
    }
    inlet
    {
        type            fixedValue;
        value           uniform 1.94e-05;
    }
    outlet
    {
        type            zeroGradient;
    }
}


// ************************************************************************* //
