/*--------------------------------*- C++ -*----------------------------------*\
  =========                 |
  \\      /  F ield         | OpenFOAM: The Open Source CFD Toolbox
   \\    /   O peration     | Website:  https://openfoam.org
    \\  /    A nd           | Version:  6
     \\/     M anipulation  |
\*---------------------------------------------------------------------------*/
FoamFile
{
    version     2.0;
    format      ascii;
    class       volScalarField;
    location    "1100";
    object      epsilon;
}
// * * * * * * * * * * * * * * * * * * * * * * * * * * * * * * * * * * * * * //

dimensions      [0 2 -3 0 0 0 0];

internalField   nonuniform List<scalar> 
459
(
0.00177475
0.00521357
0.00455086
0.00393703
0.00343713
0.00302087
0.00265235
0.00230388
0.00195748
0.00159735
0.00120273
0.000718336
7.04853e-05
2.15676e-05
2.29167e-05
2.58807e-05
5.02557e-05
4.89393e-05
4.37233e-05
3.82773e-05
3.09466e-05
2.38542e-05
1.80443e-05
1.31659e-05
9.21398e-06
6.27029e-06
4.34605e-06
3.2542e-06
2.69927e-06
2.50969e-06
2.88604e-06
6.1261e-06
2.30095e-05
1.29792e-05
0.00739021
0.0064809
0.00506446
0.00387134
0.00305099
0.00251596
0.0021664
0.00192855
0.00174239
0.00154189
0.00125792
0.000805433
0.000240962
4.60384e-05
2.71768e-05
2.29897e-05
1.29594e-05
3.9123e-05
8.29885e-05
4.66109e-05
3.88593e-05
3.54132e-05
2.99851e-05
1.84536e-05
1.35047e-05
9.77265e-06
7.01722e-06
5.19175e-06
4.07928e-06
3.43594e-06
3.04287e-06
2.78386e-06
4.8832e-06
1.70167e-05
7.47893e-05
3.17216e-05
0.0100751
0.00871826
0.0057448
0.00381201
0.00282378
0.0022472
0.00189094
0.00167514
0.00153142
0.00137702
0.00113059
0.000727995
0.000270026
8.68483e-05
3.20197e-05
2.19195e-05
1.53647e-05
0.000110083
0.000109296
5.69664e-05
4.75875e-05
4.37329e-05
4.05649e-05
1.62264e-05
1.05933e-05
8.22192e-06
6.52637e-06
5.5463e-06
4.88811e-06
4.41523e-06
4.04335e-06
4.16873e-06
2.02467e-05
5.68597e-05
0.00019969
4.82224e-05
0.0117506
0.010865
0.00543968
0.00279313
0.00184621
0.0015094
0.00139198
0.00133567
0.00127597
0.00115718
0.000925674
0.000618166
0.000294656
7.74969e-05
3.93538e-05
4.59815e-05
7.04855e-05
0.000148801
0.000118744
5.71862e-05
4.44359e-05
4.49668e-05
5.08469e-05
6.37166e-05
8.8555e-05
9.71994e-05
0.000109489
0.000124961
0.000144319
0.000168441
0.000181346
0.000180135
0.00015939
0.000113438
9.01472e-05
0.000170324
0.000132108
0.0132212
0.0128747
0.00417883
0.00156118
0.000864263
0.000906472
0.00101275
0.00104616
0.00101714
0.000914052
0.000737491
0.000526352
0.000235636
6.20362e-05
3.86922e-05
4.07627e-05
4.93639e-05
5.85189e-05
4.76123e-05
3.6821e-05
3.57045e-05
3.91763e-05
4.48808e-05
5.1856e-05
6.01709e-05
7.0212e-05
8.33958e-05
0.000100028
0.000120589
0.000145599
0.000165405
0.000171906
0.000157869
0.000119659
9.23622e-05
0.000106619
0.000118472
0.000125187
0.00011939
0.000196003
0.0148033
0.014559
0.00288454
0.00086016
0.000592148
0.000672611
0.000769099
0.000808908
0.00079067
0.00071456
0.000592562
0.000423664
0.000155431
4.85345e-05
3.7372e-05
3.84589e-05
4.05021e-05
4.13118e-05
3.86121e-05
3.74931e-05
3.99548e-05
4.502e-05
5.1465e-05
5.84801e-05
6.67353e-05
7.78897e-05
9.32789e-05
0.000113391
0.000138356
0.000168428
0.000202575
0.000232665
0.000243153
0.000212471
0.000143825
0.000111771
0.000104841
0.000105602
0.000230909
0.000245031
0.0168656
0.0158769
0.00405231
0.000691605
0.000495679
0.000538865
0.000603558
0.000634297
0.000622089
0.000568643
0.000477727
0.00031989
0.000106395
4.90161e-05
4.64657e-05
5.01302e-05
5.23532e-05
5.24593e-05
5.15032e-05
5.17687e-05
5.4609e-05
5.99283e-05
6.61907e-05
7.32374e-05
8.16212e-05
9.38221e-05
0.000112006
0.000137036
0.000169273
0.00020931
0.000258024
0.000312046
0.000362718
0.000404163
0.000324329
0.00026856
0.000280133
0.000342764
0.000528761
0.000483667
0.0201159
0.0210493
0.0122073
0.000778262
0.000452835
0.000460534
0.000501777
0.000521358
0.000509453
0.000465906
0.0003855
0.000236353
9.13186e-05
6.4189e-05
6.80913e-05
7.45795e-05
7.83795e-05
7.89999e-05
7.7828e-05
7.69344e-05
7.81228e-05
8.23337e-05
8.8475e-05
9.63891e-05
0.000106167
0.000120664
0.000143531
0.000175839
0.000218037
0.000271006
0.000338978
0.0004236
0.000526959
0.000668155
0.000888526
0.00113863
0.00162661
0.00236226
0.00490381
0.000931006
0.026923
0.0401278
0.0576005
0.00645504
0.000625638
0.000475047
0.000469261
0.000468788
0.000448337
0.000402627
0.000323672
0.000193785
0.00011066
0.000105111
0.000114383
0.000121402
0.000124136
0.00012332
0.000120522
0.000117491
0.00011594
0.000117051
0.000121269
0.000128329
0.00013933
0.000156433
0.000187444
0.000230535
0.000285901
0.000349761
0.000427739
0.000520872
0.000615869
0.000702486
0.000796315
0.000922615
0.00107739
0.00122139
0.00135592
0.000835108
0.142714
0.0296697
0.00181453
0.000654486
0.000524533
0.000489755
0.000455401
0.000404668
0.000335305
0.000225601
0.000191498
0.000209413
0.000226038
0.000231418
0.000228852
0.000223
0.00021562
0.000208006
0.00020163
0.000197686
0.000196723
0.000198801
0.000205854
0.000220357
0.000248423
0.000296534
0.000370556
0.000442133
0.000509209
0.000610733
0.000778304
0.001
0.00120336
0.0013336
0.00142508
0.00155544
0.00126244
0.000681204
0.0299248
0.00317734
0.0016781
0.000663389
0.00051408
0.000469173
0.000433448
0.000378382
0.000288346
0.000253348
0.000298361
0.000363461
0.000405699
0.000421707
0.000420473
0.000410044
0.000396422
0.000383449
0.000373811
0.000369724
0.000372772
0.000384642
0.000406328
0.000441378
0.000496193
0.00057667
0.00067896
0.000763026
0.000790647
0.000774141
0.000790482
0.000870358
0.000973305
0.00105079
0.00101146
0.000920886
0.00106824
0.00071056
0.00219382
0.00494215
0.012829
0.000951183
0.000569923
0.000547619
0.000594516
0.000607396
0.000590543
0.000523249
0.000436047
0.000372808
0.000334097
0.000315997
0.000311672
0.000311905
0.000312435
0.000311655
0.000309265
0.000305836
0.000302495
0.000299509
0.000297505
0.0002971
0.000298988
0.000304143
0.000314107
0.000329209
0.000347264
0.000360002
0.000358723
0.000343292
0.000327782
0.000353109
0.000451348
0.000559833
0.000578971
0.000491218
0.000439418
0.000346674
)
;

boundaryField
{
    floor
    {
        Cmu             0.09;
        kappa           0.41;
        E               9.8;
        type            epsilonWallFunction;
        value           nonuniform List<scalar> 
29
(
2.29167e-05
2.58807e-05
5.02557e-05
4.89393e-05
4.37233e-05
3.82773e-05
3.09466e-05
2.38542e-05
1.80443e-05
1.31659e-05
9.21398e-06
6.27029e-06
4.34605e-06
3.2542e-06
2.69927e-06
2.50969e-06
2.88604e-06
6.1261e-06
2.30095e-05
1.29792e-05
1.29792e-05
3.17216e-05
4.82224e-05
0.000132108
2.29167e-05
2.58807e-05
3.9123e-05
0.000110083
0.000148801
)
;
    }
    ceiling
    {
        Cmu             0.09;
        kappa           0.41;
        E               9.8;
        type            epsilonWallFunction;
        value           nonuniform List<scalar> 
43
(
0.00219382
0.00494215
0.012829
0.000951183
0.000569923
0.000547619
0.000594516
0.000607396
0.000590543
0.000523249
0.000436047
0.000372808
0.000334097
0.000315997
0.000311672
0.000311905
0.000312435
0.000311655
0.000309265
0.000305836
0.000302495
0.000299509
0.000297505
0.0002971
0.000298988
0.000304143
0.000314107
0.000329209
0.000347264
0.000360002
0.000358723
0.000343292
0.000327782
0.000353109
0.000451348
0.000559833
0.000578971
0.000491218
0.000439418
0.000346674
0.026923
0.0401278
0.0299248
)
;
    }
    sWall
    {
        Cmu             0.09;
        kappa           0.41;
        E               9.8;
        type            epsilonWallFunction;
        value           uniform 0.00219382;
    }
    nWall
    {
        Cmu             0.09;
        kappa           0.41;
        E               9.8;
        type            epsilonWallFunction;
        value           nonuniform List<scalar> 6(0.000196003 0.000245031 0.000483667 0.000681204 0.00071056 0.000346674);
    }
    sideWalls
    {
        type            empty;
    }
    glass1
    {
        Cmu             0.09;
        kappa           0.41;
        E               9.8;
        type            epsilonWallFunction;
        value           nonuniform List<scalar> 9(0.00177475 0.00739021 0.0100751 0.0117506 0.0132212 0.0148033 0.0168656 0.0201159 0.026923);
    }
    glass2
    {
        Cmu             0.09;
        kappa           0.41;
        E               9.8;
        type            epsilonWallFunction;
        value           nonuniform List<scalar> 2(0.000931006 0.000835108);
    }
    sun
    {
        Cmu             0.09;
        kappa           0.41;
        E               9.8;
        type            epsilonWallFunction;
        value           nonuniform List<scalar> 
14
(
0.00177475
0.00521357
0.00455086
0.00393703
0.00343713
0.00302087
0.00265235
0.00230388
0.00195748
0.00159735
0.00120273
0.000718336
7.04853e-05
2.15676e-05
)
;
    }
    heatsource1
    {
        Cmu             0.09;
        kappa           0.41;
        E               9.8;
        type            epsilonWallFunction;
        value           nonuniform List<scalar> 3(0.000125187 0.00011939 0.000196003);
    }
    heatsource2
    {
        Cmu             0.09;
        kappa           0.41;
        E               9.8;
        type            epsilonWallFunction;
        value           nonuniform List<scalar> 4(2.29897e-05 1.29594e-05 1.29594e-05 1.53647e-05);
    }
    Table_master
    {
        Cmu             0.09;
        kappa           0.41;
        E               9.8;
        type            epsilonWallFunction;
        value           nonuniform List<scalar> 9(1.62264e-05 1.05933e-05 8.22192e-06 6.52637e-06 5.5463e-06 4.88811e-06 4.41523e-06 4.04335e-06 4.16873e-06);
    }
    Table_slave
    {
        Cmu             0.09;
        kappa           0.41;
        E               9.8;
        type            epsilonWallFunction;
        value           nonuniform List<scalar> 9(8.8555e-05 9.71994e-05 0.000109489 0.000124961 0.000144319 0.000168441 0.000181346 0.000180135 0.00015939);
    }
    inlet
    {
        type            turbulentMixingLengthDissipationRateInlet;
        mixingLength    0.01;
        phi             phi;
        k               k;
        value           uniform 3.77336e-06;
    }
    outlet
    {
        type            zeroGradient;
    }
}


// ************************************************************************* //
