/*--------------------------------*- C++ -*----------------------------------*\
  =========                 |
  \\      /  F ield         | OpenFOAM: The Open Source CFD Toolbox
   \\    /   O peration     | Website:  https://openfoam.org
    \\  /    A nd           | Version:  6
     \\/     M anipulation  |
\*---------------------------------------------------------------------------*/
FoamFile
{
    version     2.0;
    format      ascii;
    class       volVectorField;
    location    "750";
    object      U;
}
// * * * * * * * * * * * * * * * * * * * * * * * * * * * * * * * * * * * * * //

dimensions      [0 1 -1 0 0 0 0];

internalField   nonuniform List<vector> 
459
(
(0.0361664 0.0723516 0)
(-0.140654 0.0201538 0)
(-0.158946 0.01535 0)
(-0.185672 0.0114837 0)
(-0.206569 0.00698038 0)
(-0.22088 0.00212728 0)
(-0.227488 -0.00315024 0)
(-0.224921 -0.00892854 0)
(-0.212593 -0.0152157 0)
(-0.190779 -0.0213291 0)
(-0.161066 -0.026426 0)
(-0.126152 -0.0298949 0)
(-0.0889131 -0.0314365 0)
(-0.0508744 -0.0313319 0)
(-0.0114191 -0.0316891 0)
(-0.106094 0.00412146 0)
(0.0380615 -0.0124133 0)
(0.0368508 -0.0135703 0)
(0.0464963 -0.0112966 0)
(0.0591641 -0.00849619 0)
(0.0688669 -0.00585061 0)
(0.0743074 -0.00337418 0)
(0.0764306 -0.00201856 0)
(0.0767981 -0.00151504 0)
(0.0765768 -0.00131885 0)
(0.0761612 -0.00116242 0)
(0.0755053 -0.000952719 0)
(0.0744038 -0.000576851 0)
(0.072429 0.000220432 0)
(0.0686349 0.00203721 0)
(0.0611589 0.00590467 0)
(0.0500367 0.011666 0)
(-0.0117699 0.0228486 0)
(0.116812 -0.00900237 0)
(0.190799 0.148885 0)
(-0.135755 0.0536427 0)
(-0.130451 0.0445743 0)
(-0.158534 0.0366668 0)
(-0.179217 0.0274255 0)
(-0.193563 0.0170015 0)
(-0.200622 0.00503131 0)
(-0.198834 -0.00869447 0)
(-0.187704 -0.0233344 0)
(-0.167977 -0.0367826 0)
(-0.141664 -0.0469498 0)
(-0.111781 -0.0525167 0)
(-0.0817466 -0.0528979 0)
(-0.0553163 -0.0480624 0)
(-0.0361317 -0.0380159 0)
(-0.022623 -0.0185485 0)
(-0.00926959 0.00490132 0)
(-0.132443 -0.000838916 0)
(0.0435271 -0.0346842 0)
(0.0447294 -0.0287648 0)
(0.0536761 -0.0216487 0)
(0.0637022 -0.0153267 0)
(0.0710425 -0.00953414 0)
(0.0745484 -0.0032149 0)
(0.0751529 0.000337724 0)
(0.0750306 0.00175553 0)
(0.0751335 0.00235016 0)
(0.0753605 0.0027295 0)
(0.075511 0.0031362 0)
(0.0755192 0.00383421 0)
(0.0753089 0.00535048 0)
(0.0742142 0.00896957 0)
(0.0692256 0.0183832 0)
(0.060755 0.0285651 0)
(0.00482359 0.0406596 0)
(0.163765 0.0235431 0)
(0.332346 0.223665 0)
(-0.154872 0.0869472 0)
(-0.0999006 0.072944 0)
(-0.128075 0.0580275 0)
(-0.146559 0.0425247 0)
(-0.159947 0.0255005 0)
(-0.167054 0.0060398 0)
(-0.16546 -0.0161233 0)
(-0.154384 -0.0394545 0)
(-0.13542 -0.0600535 0)
(-0.111153 -0.0745309 0)
(-0.0846168 -0.0812029 0)
(-0.0586257 -0.0796097 0)
(-0.035859 -0.0700911 0)
(-0.0177258 -0.0529958 0)
(-0.00375784 -0.0300368 0)
(0.00351345 -0.00241584 0)
(-0.0167784 -0.0429364 0)
(0.0441219 -0.0470143 0)
(0.0570538 -0.0404848 0)
(0.061566 -0.0310887 0)
(0.0666917 -0.0226364 0)
(0.0710956 -0.016379 0)
(0.0726342 -0.0123138 0)
(0.069561 -0.00827028 0)
(0.0672501 -0.0061734 0)
(0.0667143 -0.00502407 0)
(0.0670542 -0.00424615 0)
(0.0677385 -0.00359425 0)
(0.0688976 -0.00282244 0)
(0.0713394 -0.00142703 0)
(0.0769967 0.00312098 0)
(0.0778406 0.0244339 0)
(0.0720348 0.0414664 0)
(0.0168171 0.0589794 0)
(0.191647 0.0572654 0)
(0.459311 0.284458 0)
(-0.188543 0.117503 0)
(-0.0667288 0.0975856 0)
(-0.0951541 0.0765606 0)
(-0.108988 0.0567736 0)
(-0.119649 0.0348815 0)
(-0.125732 0.00884463 0)
(-0.122985 -0.0220516 0)
(-0.110672 -0.0545546 0)
(-0.0923273 -0.0817869 0)
(-0.070843 -0.09965 0)
(-0.0488168 -0.10691 0)
(-0.0278879 -0.10364 0)
(-0.00953533 -0.0910172 0)
(0.0075323 -0.0692828 0)
(0.0234786 -0.044897 0)
(0.0440916 -0.0279175 0)
(0.0748378 -0.0801568 0)
(0.0845378 -0.0602602 0)
(0.0777525 -0.0501466 0)
(0.0694523 -0.0419335 0)
(0.0646368 -0.032668 0)
(0.0630374 -0.0240929 0)
(0.0628123 -0.0158974 0)
(0.0654527 -0.00974839 0)
(0.0721413 -0.00762371 0)
(0.0782173 -0.00651023 0)
(0.0831567 -0.00580914 0)
(0.0873869 -0.00510913 0)
(0.0906884 -0.00411356 0)
(0.0922017 -0.00246895 0)
(0.0899456 0.000376117 0)
(0.0813841 0.0049916 0)
(0.0740438 0.0288319 0)
(0.0760983 0.0501753 0)
(0.0306512 0.0733241 0)
(0.208629 0.109151 0)
(0.569033 0.332287 0)
(-0.227657 0.143546 0)
(-0.0326105 0.112777 0)
(-0.0602 0.0881824 0)
(-0.067431 0.0660791 0)
(-0.0732211 0.0411401 0)
(-0.0764782 0.009997 0)
(-0.0692447 -0.0289963 0)
(-0.0545846 -0.0698592 0)
(-0.0383441 -0.101102 0)
(-0.0219104 -0.119886 0)
(-0.00689056 -0.126251 0)
(0.00662686 -0.120727 0)
(0.0177899 -0.10591 0)
(0.0284964 -0.0845185 0)
(0.0402074 -0.0610543 0)
(0.0544444 -0.0418799 0)
(0.066467 -0.0364714 0)
(0.0686271 -0.03817 0)
(0.0615483 -0.0374276 0)
(0.0545963 -0.0334518 0)
(0.0499075 -0.0276715 0)
(0.0473727 -0.0216997 0)
(0.046844 -0.0158167 0)
(0.0489406 -0.0100826 0)
(0.0534747 -0.00750187 0)
(0.0582416 -0.00671197 0)
(0.0628108 -0.00628293 0)
(0.0672025 -0.0054149 0)
(0.0711694 -0.00351084 0)
(0.0742712 0.000176643 0)
(0.0758531 0.00616937 0)
(0.0750913 0.0151823 0)
(0.0744479 0.0315421 0)
(0.0828265 0.0500256 0)
(0.0685354 0.0677976 0)
(0.151783 0.107296 0)
(0.141832 0.0866451 0)
(0.118666 0.0640809 0)
(-0.129622 0.0653459 0)
(0.648919 0.372932 0)
(-0.265124 0.162351 0)
(-0.00532529 0.112244 0)
(-0.0238289 0.0921171 0)
(-0.0235203 0.0705564 0)
(-0.0232679 0.0445082 0)
(-0.0217305 0.00995853 0)
(-0.00261333 -0.0392899 0)
(0.0131705 -0.0860354 0)
(0.0240949 -0.116149 0)
(0.0324693 -0.132375 0)
(0.0379793 -0.136038 0)
(0.0411526 -0.128783 0)
(0.0429695 -0.112976 0)
(0.0446075 -0.0917137 0)
(0.0470955 -0.0693535 0)
(0.0506151 -0.0509152 0)
(0.0521345 -0.0413626 0)
(0.0486666 -0.0379313 0)
(0.0417156 -0.0339191 0)
(0.0349304 -0.0290994 0)
(0.0298522 -0.0243206 0)
(0.0268493 -0.0200234 0)
(0.0261122 -0.0161584 0)
(0.0277277 -0.0130317 0)
(0.0311644 -0.0118581 0)
(0.0352808 -0.0116776 0)
(0.0396096 -0.0114324 0)
(0.0440062 -0.0104813 0)
(0.0483784 -0.00827175 0)
(0.0526642 -0.00401603 0)
(0.0573286 0.00321346 0)
(0.061057 0.0134204 0)
(0.0651874 0.027049 0)
(0.0742824 0.0414483 0)
(0.074087 0.0494814 0)
(0.101635 0.0690243 0)
(0.0991842 0.0569844 0)
(0.111138 0.0557502 0)
(-0.135888 0.0951187 0)
(0.689221 0.409395 0)
(-0.285372 0.152132 0)
(0.0156182 0.0751749 0)
(0.0225666 0.0814947 0)
(0.0287159 0.0689966 0)
(0.0352435 0.0394561 0)
(0.0538648 -0.0059891 0)
(0.0754226 -0.0571435 0)
(0.0868876 -0.0969184 0)
(0.0901358 -0.122368 0)
(0.0879506 -0.13449 0)
(0.0817999 -0.134994 0)
(0.0731293 -0.125795 0)
(0.063523 -0.109263 0)
(0.0543022 -0.0883308 0)
(0.0463952 -0.0668689 0)
(0.0399034 -0.0488832 0)
(0.0335761 -0.0374302 0)
(0.0261272 -0.0311168 0)
(0.0182071 -0.0266602 0)
(0.0112826 -0.0230689 0)
(0.00614855 -0.0202714 0)
(0.00304554 -0.0181862 0)
(0.00202597 -0.0166535 0)
(0.00296538 -0.0157664 0)
(0.00530745 -0.0157847 0)
(0.00832634 -0.0161053 0)
(0.0116529 -0.0160702 0)
(0.0151622 -0.0152277 0)
(0.0188881 -0.0131844 0)
(0.0230762 -0.00935814 0)
(0.0284286 -0.00270215 0)
(0.0360656 0.00745242 0)
(0.0436893 0.019502 0)
(0.053322 0.0314413 0)
(0.0586068 0.0389858 0)
(0.0719669 0.0536061 0)
(0.076913 0.061373 0)
(0.120234 0.0804002 0)
(-0.113667 0.152969 0)
(0.783946 0.41627 0)
(-0.0883921 0.126127 0)
(0.0805433 0.00369289 0)
(0.124727 0.0100109 0)
(0.123753 0.0135704 0)
(0.126534 -0.0132447 0)
(0.152553 -0.0489537 0)
(0.167574 -0.0796689 0)
(0.167468 -0.10314 0)
(0.156542 -0.117691 0)
(0.139005 -0.123033 0)
(0.117812 -0.119769 0)
(0.0952316 -0.109098 0)
(0.0732122 -0.0928401 0)
(0.0531453 -0.0733076 0)
(0.0359971 -0.0538333 0)
(0.0218492 -0.0377109 0)
(0.0104115 -0.0272615 0)
(0.000621303 -0.0214973 0)
(-0.00763536 -0.0184292 0)
(-0.0140334 -0.0168311 0)
(-0.0187535 -0.0160925 0)
(-0.0219022 -0.0159565 0)
(-0.0236312 -0.0162552 0)
(-0.0241352 -0.0169253 0)
(-0.0237579 -0.0178878 0)
(-0.0228569 -0.0187954 0)
(-0.021639 -0.0192436 0)
(-0.0202292 -0.0189098 0)
(-0.0187023 -0.0176025 0)
(-0.0169196 -0.0152486 0)
(-0.0141679 -0.011551 0)
(-0.0079359 -0.00541737 0)
(0.00331004 0.00381554 0)
(0.0135937 0.0123407 0)
(0.0209071 0.0170887 0)
(0.0318496 0.0246546 0)
(0.0408585 0.029567 0)
(0.119766 0.0840541 0)
(-0.37296 0.220561 0)
(0.911833 0.411146 0)
(0.43665 0.285442 0)
(0.434345 0.196708 0)
(0.425747 0.139258 0)
(0.382526 0.0983676 0)
(0.347981 0.0542828 0)
(0.319683 0.00790564 0)
(0.285315 -0.0333599 0)
(0.247447 -0.0636796 0)
(0.207964 -0.0817753 0)
(0.16862 -0.0888608 0)
(0.130657 -0.0869537 0)
(0.0950022 -0.0780613 0)
(0.0628247 -0.0643374 0)
(0.0350226 -0.0479096 0)
(0.0127018 -0.0319955 0)
(-0.00471553 -0.0193867 0)
(-0.0167407 -0.0126288 0)
(-0.0256069 -0.00964024 0)
(-0.032497 -0.00856077 0)
(-0.0380117 -0.00849048 0)
(-0.042525 -0.00897594 0)
(-0.0462826 -0.00982535 0)
(-0.0494719 -0.0109301 0)
(-0.052237 -0.0122176 0)
(-0.0547103 -0.0135752 0)
(-0.0569739 -0.0147744 0)
(-0.0590674 -0.0155545 0)
(-0.0611557 -0.0157043 0)
(-0.0637678 -0.0150715 0)
(-0.0678272 -0.013416 0)
(-0.0742065 -0.0097861 0)
(-0.083454 -0.00205472 0)
(-0.0939728 0.0103996 0)
(-0.107669 0.0272751 0)
(-0.131087 0.050159 0)
(-0.163527 0.0812277 0)
(-0.206147 0.117538 0)
(-0.276939 0.15166 0)
(-0.552829 0.172486 0)
(-0.22957 0.0920996 0)
(0.135074 0.0960012 0)
(0.220255 0.0650788 0)
(0.218819 0.031257 0)
(0.211466 0.00234533 0)
(0.202386 -0.0220245 0)
(0.184005 -0.0408043 0)
(0.157079 -0.052594 0)
(0.124775 -0.0574733 0)
(0.0901995 -0.0561843 0)
(0.0558322 -0.0495067 0)
(0.0243903 -0.038842 0)
(-0.00277795 -0.0255325 0)
(-0.0219382 -0.0139768 0)
(-0.0342319 -0.0063281 0)
(-0.0424421 -0.00241286 0)
(-0.0484521 -0.000903382 0)
(-0.0533935 -0.000589938 0)
(-0.057902 -0.000914914 0)
(-0.0623009 -0.00146245 0)
(-0.0668144 -0.00198801 0)
(-0.0716176 -0.00232407 0)
(-0.0768472 -0.00230883 0)
(-0.0825793 -0.0017056 0)
(-0.0887639 -0.000134334 0)
(-0.0951741 0.0029099 0)
(-0.101466 0.00795125 0)
(-0.10747 0.015197 0)
(-0.113484 0.0235361 0)
(-0.120051 0.0302999 0)
(-0.126295 0.0357277 0)
(-0.131525 0.0430924 0)
(-0.135783 0.0549846 0)
(-0.138656 0.0731366 0)
(-0.137561 0.0966938 0)
(-0.129305 0.112039 0)
(-0.117539 0.0748928 0)
(-0.17517 -0.172932 0)
(-0.177196 0.141649 0)
(0.109336 0.0678814 0)
(0.117253 0.00276765 0)
(0.11922 -0.0309646 0)
(0.121114 -0.0569078 0)
(0.116616 -0.0737639 0)
(0.100476 -0.0775186 0)
(0.0776172 -0.0776582 0)
(0.0512065 -0.0762915 0)
(0.0242675 -0.0741825 0)
(-0.000952445 -0.0728367 0)
(-0.0210593 -0.0742572 0)
(-0.0359017 -0.0772894 0)
(-0.04646 -0.08029 0)
(-0.0536573 -0.0824584 0)
(-0.0587466 -0.084822 0)
(-0.062832 -0.0870231 0)
(-0.0665793 -0.0884108 0)
(-0.0702637 -0.0896157 0)
(-0.0740687 -0.0908246 0)
(-0.0781196 -0.092255 0)
(-0.0825362 -0.0942134 0)
(-0.0874976 -0.0970871 0)
(-0.0932604 -0.101267 0)
(-0.100097 -0.106972 0)
(-0.108107 -0.113939 0)
(-0.116892 -0.120966 0)
(-0.125375 -0.125401 0)
(-0.132183 -0.125224 0)
(-0.13646 -0.118388 0)
(-0.137787 -0.104058 0)
(-0.134771 -0.0827036 0)
(-0.124845 -0.0548608 0)
(-0.105201 -0.0222431 0)
(-0.0748673 0.0100352 0)
(-0.0388488 0.0259823 0)
(0.079876 -0.089198 0)
(-0.129508 -0.155297 0)
(0.235786 -0.164257 0)
(-0.245494 -0.0499381 0)
(-0.170431 0.190458 0)
(-0.0238912 0.173461 0)
(-0.0285713 0.195136 0)
(-0.0100833 0.227394 0)
(-0.000603544 0.254753 0)
(-0.000711617 0.264287 0)
(-0.00814652 0.252648 0)
(-0.0229925 0.248551 0)
(-0.0381588 0.249609 0)
(-0.0516315 0.253936 0)
(-0.0624504 0.260036 0)
(-0.070064 0.267446 0)
(-0.0748869 0.275764 0)
(-0.0778082 0.282985 0)
(-0.0797482 0.287537 0)
(-0.0815826 0.291123 0)
(-0.0837618 0.29345 0)
(-0.0864263 0.293872 0)
(-0.0896685 0.293659 0)
(-0.0934933 0.293159 0)
(-0.0978525 0.292807 0)
(-0.102651 0.293217 0)
(-0.107735 0.295183 0)
(-0.112889 0.299563 0)
(-0.117857 0.306978 0)
(-0.122368 0.317326 0)
(-0.126129 0.329132 0)
(-0.12874 0.33896 0)
(-0.129715 0.344885 0)
(-0.12821 0.345837 0)
(-0.122825 0.341775 0)
(-0.111589 0.334211 0)
(-0.0925265 0.325263 0)
(-0.0656218 0.318535 0)
(-0.0341842 0.319144 0)
(0.010004 0.329159 0)
(0.128329 0.40523 0)
(-0.291384 0.413646 0)
)
;

boundaryField
{
    floor
    {
        type            noSlip;
    }
    ceiling
    {
        type            noSlip;
    }
    sWall
    {
        type            noSlip;
    }
    nWall
    {
        type            noSlip;
    }
    sideWalls
    {
        type            empty;
    }
    glass1
    {
        type            noSlip;
    }
    glass2
    {
        type            noSlip;
    }
    sun
    {
        type            noSlip;
    }
    heatsource1
    {
        type            noSlip;
    }
    heatsource2
    {
        type            noSlip;
    }
    Table_master
    {
        type            noSlip;
    }
    Table_slave
    {
        type            noSlip;
    }
    inlet
    {
        type            fixedValue;
        value           uniform (0.2 0 0);
    }
    outlet
    {
        type            zeroGradient;
    }
}


// ************************************************************************* //
