/*--------------------------------*- C++ -*----------------------------------*\
  =========                 |
  \\      /  F ield         | OpenFOAM: The Open Source CFD Toolbox
   \\    /   O peration     | Website:  https://openfoam.org
    \\  /    A nd           | Version:  6
     \\/     M anipulation  |
\*---------------------------------------------------------------------------*/
FoamFile
{
    version     2.0;
    format      ascii;
    class       surfaceScalarField;
    location    "300";
    object      phi;
}
// * * * * * * * * * * * * * * * * * * * * * * * * * * * * * * * * * * * * * //

dimensions      [1 0 -1 0 0 0 0];

internalField   nonuniform List<scalar> 
852
(
-0.0020568
0.00208518
-0.00246854
0.000412251
-0.00250146
3.34331e-05
-0.00241959
-8.13489e-05
-0.00218046
-0.000238582
-0.00173766
-0.000442208
-0.00124993
-0.000487128
-0.000808249
-0.000441093
-0.000448984
-0.000358702
-0.000173383
-0.000275083
3.02706e-05
-0.000203193
0.000168126
-0.00013747
0.000236942
-6.851e-05
0.000233715
3.44606e-06
0.000228758
0.00034259
-0.000346371
0.000359964
-1.68308e-05
0.000269643
9.08316e-05
6.03498e-05
0.000209744
-0.000234367
0.000294848
-0.000490035
0.000255577
-0.00048653
-3.33119e-06
-0.000236784
-0.000249278
0.000113036
-0.000349275
0.00034269
-0.000229216
0.000485704
-0.000142627
0.00058384
-9.77796e-05
0.00065764
-7.34633e-05
0.000690205
-3.22555e-05
0.00067749
1.29802e-05
0.000602546
7.51589e-05
0.00042264
0.000180037
1.81748e-06
0.000420855
-3.37842e-06
-2.1208e-05
0.00218262
-0.000590413
0.000982204
-0.00108094
0.000524667
-0.00150999
0.000348355
-0.00162297
-0.000125004
-0.00135218
-0.000712342
-0.00103776
-0.000800889
-0.000731488
-0.000746713
-0.000475411
-0.000614168
-0.000278018
-0.000471914
-0.000133472
-0.000347237
-3.08942e-05
-0.000239616
4.56859e-05
-0.000144744
0.000130999
-8.16254e-05
0.000314064
4.5798e-05
9.53876e-05
0.000218691
9.57637e-05
-0.000114575
-0.000243981
-1.27651e-05
-0.00011839
-1.21894e-06
7.9307e-05
-2.68119e-05
0.000235192
-8.54664e-05
0.000353198
-0.000223761
0.00039353
-0.000309176
8.20962e-05
-0.000212268
-0.000345902
-7.1865e-05
-0.000489369
-2.9072e-05
-0.000271741
-2.91655e-05
-0.00014235
-6.17352e-05
-6.51074e-05
-0.000127227
-7.92586e-06
-0.000206546
4.7051e-05
-0.00026697
7.3353e-05
-0.000302004
0.000110097
-0.000236532
0.000114489
-0.000102326
0.000286702
-0.000120054
0.00383508
-0.00157779
0.00391329
0.000905751
0.00269307
0.00174629
0.00121747
0.00182504
-0.000111535
0.00120495
-0.000752425
-7.07286e-05
-0.000731038
-0.000821555
-0.000597966
-0.000879089
-0.000474114
-0.000737366
-0.000381689
-0.000563742
-0.000321658
-0.000406734
-0.000292275
-0.00026854
-0.000296171
-0.000140478
-0.000362101
-1.54362e-05
-0.000441363
0.000125196
-0.000379922
0.000157266
-0.000284059
-0.000434149
0.000170032
-0.000425518
-0.000126881
-0.000339065
-7.31754e-06
-0.000222829
0.000118598
-5.64535e-05
0.000186304
0.000176012
0.000160582
0.000258118
-8.74614e-05
-0.000576533
-0.000848124
-0.000990491
-0.00105573
-0.00106382
-0.00101686
-0.000943453
-0.000819985
-1.31015e-05
-0.000577731
-0.000126841
2.49699e-05
-0.000314487
-0.0001143
0.00213473
-0.00369234
0.00302614
1.5414e-05
0.00268317
0.0020903
0.00171857
0.0027906
0.000675138
0.00224927
-0.000159898
0.000765202
-0.000425163
-0.00055551
-0.000481278
-0.000822231
-0.000504302
-0.000713643
-0.000530442
-0.000536958
-0.000565259
-0.000371334
-0.000610566
-0.000222716
-0.000669067
-8.15267e-05
-0.000738749
5.46356e-05
-0.000775508
0.000162282
-0.000784356
0.000166436
-0.000957438
-0.000110549
-0.000801526
-0.000180476
-0.000692053
6.07335e-05
-0.000773715
-4.50504e-05
-0.000786755
5.74929e-06
-0.000741471
7.30967e-05
-0.000674223
0.000118697
-0.000639231
0.000125293
-0.000734004
9.49002e-05
-0.000776514
4.26643e-05
-0.000800796
2.43826e-05
-0.000826131
2.53595e-05
-0.00085761
3.14084e-05
-0.000884164
2.64052e-05
-0.000879954
-4.34022e-06
-0.000817
-6.28991e-05
-0.000675073
-0.000141538
-0.000403339
-0.000283785
-8.20848e-05
-0.000446585
0.000293505
-0.000688058
0.000155968
0.00162895
-0.00530631
0.00267364
-0.00102836
0.00251018
0.00225469
0.00168677
0.00361492
0.000812556
0.00312437
0.000171996
0.00140665
-0.000220541
-0.00016214
-0.000436494
-0.000605489
-0.000598959
-0.000550429
-0.000734137
-0.000401077
-0.000846422
-0.000258396
-0.000935492
-0.000133042
-0.000998275
-1.81897e-05
-0.00102641
8.32823e-05
-0.00101502
0.000151357
-0.000988929
0.000140804
-0.00111418
1.51737e-05
-0.00121199
-8.22494e-05
-0.00115244
1.46129e-06
-0.00117635
-2.08684e-05
-0.00117493
4.51333e-06
-0.00113983
3.80815e-05
-0.00108038
5.93121e-05
-0.0010117
5.67373e-05
-0.000940777
2.42167e-05
-0.00087468
-2.31745e-05
-0.000795206
-5.48433e-05
-0.000699054
-7.05755e-05
-0.000587558
-7.98997e-05
-0.000465759
-9.52135e-05
-0.000343249
-0.000126649
-0.000224733
-0.000181171
-0.000100789
-0.000265141
1.29943e-05
-0.000397071
0.000128598
-0.000561449
0.000219917
-0.000778345
0.000907062
-0.000529229
0.000540832
0.000367175
-0.000474852
0.001016
-0.000520532
0.00123545
-0.00652747
0.00246682
-0.00225886
0.00228589
0.00243648
0.00140413
0.00449754
0.000645394
0.00388397
0.000235063
0.00181783
-0.000164701
0.000238476
-0.000500083
-0.000269271
-0.000765981
-0.000283722
-0.000971301
-0.00019498
-0.00112085
-0.000108104
-0.0012183
-3.48884e-05
-0.00126519
2.93551e-05
-0.00126625
8.49521e-05
-0.00123623
0.000121917
-0.00120914
0.000114248
-0.00124643
5.29869e-05
-0.0013211
-7.12283e-06
-0.0013158
-3.43554e-06
-0.00131806
-1.82422e-05
-0.0012977
-1.55414e-05
-0.00124853
-1.08237e-05
-0.00117329
-1.56831e-05
-0.00107887
-3.74052e-05
-0.000976273
-7.80709e-05
-0.000871334
-0.000127781
-0.000754959
-0.000170895
-0.000621166
-0.000204062
-0.000470084
-0.000230696
-0.000308368
-0.00025666
-0.000147323
-0.000287432
-2.25916e-07
-0.000328004
0.000117455
-0.000382544
0.000174208
-0.00045351
0.000145076
-0.000531942
-3.12624e-05
-0.000601558
-0.000229827
-0.00033013
-0.000456752
0.000594684
-0.000684314
0.00124344
-0.00124864
0.000704458
-0.00721817
0.00188573
-0.00343921
0.0017745
0.00254855
0.000705797
0.00556705
0.000162945
0.00442762
-5.08184e-05
0.00203243
-0.000365106
0.000553667
-0.000706807
7.33622e-05
-0.000980892
-8.74024e-06
-0.00117096
-4.0328e-06
-0.00128496
6.74665e-06
-0.00133633
1.73039e-05
-0.0013377
3.14863e-05
-0.00130303
5.09978e-05
-0.0012487
6.82382e-05
-0.00120012
6.62739e-05
-0.00118438
3.78012e-05
-0.00119454
3.56069e-06
-0.00118257
-1.49425e-05
-0.00116568
-3.4686e-05
-0.00113207
-4.87483e-05
-0.00107816
-6.43387e-05
-0.00100543
-8.80175e-05
-0.000918456
-0.000123994
-0.000823553
-0.000172578
-0.000722883
-0.000228056
-0.000611512
-0.000281878
-0.000485129
-0.000330072
-0.000343437
-0.000372036
-0.000191223
-0.000408545
-3.79191e-05
-0.000440432
0.000100911
-0.000466556
0.00020413
-0.000485511
0.000245902
-0.000495051
0.000194604
-0.000480424
-1.34025e-05
-0.000393342
-0.000335834
-7.62303e-06
-0.000469456
0.000728371
-0.000180569
0.000954237
-0.00147072
-0.00102516
-0.00618006
0.000188833
-0.00465222
0.000740243
0.00199798
-0.000655477
0.00696349
-0.000764348
0.00453728
-0.000701927
0.00197092
-0.000818908
0.000671692
-0.000986473
0.000242003
-0.00109735
0.000103212
-0.00113803
3.76771e-05
-0.00112795
-2.3561e-06
-0.00108587
-2.38337e-05
-0.00102528
-2.82123e-05
-0.000953328
-2.01218e-05
-0.000876628
-7.71001e-06
-0.000807573
-2.10565e-06
-0.000759211
-9.94429e-06
-0.000729475
-2.55928e-05
-0.0007022
-4.16696e-05
-0.000675244
-6.11271e-05
-0.000641628
-8.18743e-05
-0.000598593
-0.0001069
-0.000546556
-0.000139587
-0.000487867
-0.000182219
-0.000425221
-0.000234761
-0.000358858
-0.00029396
-0.000285571
-0.000354715
-0.00020217
-0.000413042
-0.00010774
-0.000466063
-4.5984e-06
-0.000511323
0.00010042
-0.000545131
0.000197218
-0.000563087
0.000275087
-0.000563164
0.000325071
-0.000544865
0.000350317
-0.000505536
0.000379546
-0.000422461
0.000553581
-0.00018155
0.00101855
0.000263413
0.00166028
0.00031227
-8.42371e-05
-0.00620894
-0.0108924
-0.00586884
-0.00302449
-0.00332181
0.00441724
-0.00213571
0.0033521
-0.00150019
0.00133654
-0.00113993
0.000312651
-0.000893159
-3.6431e-06
-0.0006706
-0.000118256
-0.000483704
-0.000148143
-0.00033228
-0.000152711
-0.000212126
-0.000142957
-0.00011755
-0.000121812
-4.16339e-05
-9.5125e-05
2.12483e-05
-6.97468e-05
7.18985e-05
-5.19792e-05
0.000108713
-4.60412e-05
0.000134163
-5.03745e-05
0.000154031
-6.09101e-05
0.000170465
-7.69685e-05
0.000186507
-9.73494e-05
0.000203261
-0.000123103
0.000220154
-0.00015594
0.000235661
-0.00019719
0.000248367
-0.000246934
0.000258339
-0.000303405
0.00026753
-0.000363391
0.000278292
-0.000423316
0.000292075
-0.0004794
0.000308554
-0.000527414
0.000326154
-0.000562413
0.000342682
-0.000579373
0.000355118
-0.000575432
0.00036311
-0.000552755
0.000379544
-0.000521919
0.000455428
-0.000498336
0.000732991
-0.000459133
0.00134603
-0.000349645
0.00196437
-0.000306201
0.00157131
-0.00797072
0.00314543
-0.00546553
0.00191313
-0.00269569
0.000583495
-0.000910131
-0.000447569
1.46493e-05
-0.00061076
0.000499923
-0.000487605
0.000796291
-0.000413399
0.000996223
-0.000346916
0.00113082
-0.000286201
0.00121516
-0.000226252
0.00126238
-0.000168036
0.00128542
-0.000117229
0.00129555
-7.90068e-05
0.00129975
-5.5353e-05
0.00129994
-4.54691e-05
0.00129633
-4.60459e-05
0.00128946
-5.33574e-05
0.0012788
-6.5653e-05
0.00126403
-8.19492e-05
0.00124418
-0.000102642
0.00121755
-0.000128699
0.00118194
-0.000160974
0.00113527
-0.000199664
0.00107641
-0.000243952
0.00100567
-0.000292062
0.000924469
-0.00034156
0.000834926
-0.000389352
0.000739509
-0.000431565
0.000641001
-0.000463567
0.000542449
-0.000480587
0.000446486
-0.000479338
0.000354227
-0.000460452
0.000262964
-0.000430679
0.000167168
-0.000402613
8.06704e-05
-0.000372746
1.26303e-05
-0.000281752
-0.000130043
-0.000163734
0.00138491
-0.000154369
0.00326068
0.00249205
-0.000732039
0.00329559
-0.0002187
0.00325068
-0.000401333
0.00320582
-0.000564622
0.00324116
-0.000521705
0.00323364
-0.000404688
0.00317541
-0.000287542
0.00307562
-0.000185321
0.0029548
-0.000104394
0.0028367
-4.89561e-05
0.00273772
-1.73139e-05
0.00266288
-3.29268e-06
0.00260848
-1.24747e-07
0.00256649
-2.69595e-06
0.00252902
-7.83516e-06
0.00249034
-1.39722e-05
0.0024462
-2.08293e-05
0.00239372
-2.88037e-05
0.00233041
-3.86764e-05
0.00225367
-5.13085e-05
0.00216075
-6.73962e-05
0.00204905
-8.73091e-05
0.00191674
-0.00011098
0.00176319
-0.00013786
0.00158917
-0.000166915
0.00139696
-0.000196566
0.0011905
-0.000224604
0.0009755
-0.00024818
0.000759248
-0.000264077
0.000549601
-0.000269565
0.000352749
-0.000263587
0.000170502
-0.000248503
1.04717e-05
-0.000242707
-0.000117916
-0.000244508
-0.000238485
-0.000161358
-0.00064926
0.000246828
0.000663195
0.000696782
0.00648966
0.00967174
0.00885854
0.00855293
0.00805803
0.00739266
0.00676288
0.00624335
0.00583556
0.00552684
0.00529848
0.00512709
0.00498992
0.00486948
0.00475459
0.00463904
0.00451985
0.00439572
0.00426576
0.00412873
0.00398268
0.00382486
0.0036518
0.0034597
0.0032448
0.00300391
0.00273485
0.002437
0.00211194
0.00176409
0.00140105
0.00103313
0.000671694
0.000325711
-1.41539e-05
-0.000354824
-0.000611311
-0.000462033
)
;

boundaryField
{
    floor
    {
        type            calculated;
        value           nonuniform List<scalar> 
29
(
0
0
0
0
0
0
0
0
0
0
0
0
0
0
0
0
0
0
0
0
5.13556e-06
1.44318e-05
1.96614e-05
2.47253e-05
5.16168e-06
4.52306e-06
1.26583e-05
2.0542e-05
2.49578e-05
)
;
    }
    ceiling
    {
        type            calculated;
        value           nonuniform List<scalar> 
43
(
0.000201768
0.000156332
7.94355e-05
8.20493e-05
8.78212e-05
9.45087e-05
0.000101716
0.000109042
0.000115831
0.000121228
0.000124377
0.000124918
0.000123361
0.00012075
0.000117997
0.000115583
0.000113636
0.000112102
0.000110873
0.000109839
0.000108917
0.000108051
0.000107208
0.000106366
0.000105517
0.000104655
0.000103779
0.000102888
0.000101984
0.000101074
0.000100173
9.93088e-05
9.85209e-05
9.78569e-05
9.73694e-05
9.69788e-05
9.59846e-05
9.49584e-05
9.73812e-05
0.000108702
4.01975e-05
3.22406e-05
4.06544e-05
)
;
    }
    sWall
    {
        type            calculated;
        value           uniform 7.5326e-05;
    }
    nWall
    {
        type            calculated;
        value           nonuniform List<scalar> 6(4.50697e-05 4.3301e-05 4.10298e-05 5.60666e-05 7.2196e-05 9.22799e-05);
    }
    sideWalls
    {
        type            empty;
        value           nonuniform 0();
    }
    glass1
    {
        type            calculated;
        value           nonuniform List<scalar> 9(-2.79121e-05 -7.56845e-05 -7.24638e-05 -1.92639e-05 -1.41223e-05 -1.3398e-05 -1.28349e-05 -1.19783e-05 -1.03184e-05);
    }
    glass2
    {
        type            calculated;
        value           nonuniform List<scalar> 2(0.000273408 0.000308557);
    }
    sun
    {
        type            calculated;
        value           uniform 0;
    }
    heatsource1
    {
        type            calculated;
        value           nonuniform List<scalar> 3(1.9432e-07 1.93164e-07 1.92138e-07);
    }
    heatsource2
    {
        type            calculated;
        value           nonuniform List<scalar> 4(4.90515e-08 4.91918e-08 0 0);
    }
    Table_master
    {
        type            calculated;
        value           nonuniform List<scalar> 9(-1.47002e-07 -1.47361e-07 -1.47527e-07 -1.47365e-07 -1.4728e-07 -1.47261e-07 -1.47284e-07 -1.47313e-07 -1.47303e-07);
    }
    Table_slave
    {
        type            calculated;
        value           nonuniform List<scalar> 9(1.45187e-07 1.45154e-07 1.45139e-07 1.4515e-07 1.45192e-07 1.45277e-07 1.45413e-07 1.45581e-07 1.45766e-07);
    }
    inlet
    {
        type            calculated;
        value           uniform 0.00180251;
    }
    outlet
    {
        type            calculated;
        value           nonuniform List<scalar> 2(-0.000973538 -0.00594881);
    }
}


// ************************************************************************* //
