// -*- C++ -*-
// File generated by PyFoam - sorry for the ugliness

FoamFile
{
 version 2.0;
 format ascii;
 class volScalarField;
 location "1000";
 object T;
}

dimensions [ 0 0 0 1 0 0 0 ];

internalField nonuniform List<scalar> 459
(
  304.18
  303.882
  303.867
  303.863
  303.858
  303.853
  303.848
  303.842
  303.836
  303.828
  303.818
  303.803
  303.785
  303.764
  303.741
  303.39
  303.394
  303.38
  303.328
  303.241
  303.16
  303.117
  303.098
  303.087
  303.08
  303.075
  303.075
  303.082
  303.103
  303.141
  303.194
  303.22
  303.187
  303.166
  304.4
  303.946
  303.915
  303.916
  303.918
  303.92
  303.919
  303.916
  303.911
  303.902
  303.886
  303.861
  303.827
  303.782
  303.73
  303.682
  303.671
  303.404
  303.426
  303.426
  303.405
  303.358
  303.268
  303.187
  303.156
  303.134
  303.115
  303.102
  303.095
  303.101
  303.136
  303.212
  303.291
  303.269
  303.215
  303.18
  304.606
  304.022
  303.968
  303.977
  303.99
  304.001
  304.01
  304.014
  304.013
  304.006
  303.988
  303.954
  303.904
  303.836
  303.757
  303.679
  303.625
  303.452
  303.472
  303.482
  303.48
  303.465
  303.424
  303.268
  303.244
  303.237
  303.225
  303.205
  303.176
  303.142
  303.149
  303.264
  303.445
  303.372
  303.323
  303.363
  304.796
  304.11
  304.024
  304.038
  304.064
  304.089
  304.112
  304.129
  304.139
  304.139
  304.124
  304.088
  304.027
  303.942
  303.837
  303.722
  303.614
  303.542
  303.513
  303.541
  303.557
  303.565
  303.566
  303.564
  303.563
  303.56
  303.558
  303.557
  303.555
  303.552
  303.549
  303.545
  303.542
  303.532
  303.513
  303.49
  303.476
  304.97
  304.208
  304.087
  304.093
  304.129
  304.168
  304.207
  304.243
  304.271
  304.286
  304.283
  304.257
  304.202
  304.12
  304.015
  303.898
  303.784
  303.693
  303.637
  303.634
  303.64
  303.642
  303.637
  303.628
  303.619
  303.611
  303.602
  303.594
  303.585
  303.577
  303.57
  303.563
  303.556
  303.547
  303.534
  303.514
  303.493
  303.478
  303.457
  303.49
  305.12
  304.323
  304.177
  304.152
  304.183
  304.229
  304.279
  304.329
  304.376
  304.411
  304.428
  304.421
  304.384
  304.318
  304.226
  304.117
  304.006
  303.907
  303.834
  303.79
  303.77
  303.753
  303.735
  303.716
  303.697
  303.679
  303.66
  303.64
  303.62
  303.602
  303.588
  303.578
  303.569
  303.558
  303.543
  303.523
  303.503
  303.485
  303.466
  303.471
  305.246
  304.495
  304.362
  304.285
  304.264
  304.291
  304.335
  304.386
  304.439
  304.492
  304.528
  304.542
  304.531
  304.492
  304.426
  304.339
  304.24
  304.143
  304.059
  303.995
  303.949
  303.911
  303.878
  303.845
  303.813
  303.78
  303.744
  303.706
  303.667
  303.634
  303.609
  303.594
  303.584
  303.573
  303.56
  303.542
  303.523
  303.508
  303.485
  303.484
  305.448
  304.885
  304.76
  304.629
  304.519
  304.469
  304.463
  304.481
  304.515
  304.559
  304.593
  304.613
  304.618
  304.606
  304.575
  304.522
  304.45
  304.368
  304.287
  304.216
  304.157
  304.106
  304.059
  304.015
  303.97
  303.921
  303.867
  303.804
  303.738
  303.681
  303.64
  303.617
  303.606
  303.6
  303.593
  303.585
  303.581
  303.583
  303.592
  303.637
  305.727
  305.489
  305.27
  305.107
  304.944
  304.829
  304.757
  304.716
  304.699
  304.687
  304.681
  304.679
  304.675
  304.668
  304.654
  304.628
  304.589
  304.538
  304.479
  304.419
  304.361
  304.307
  304.255
  304.205
  304.154
  304.099
  304.036
  303.956
  303.857
  303.768
  303.698
  303.656
  303.641
  303.643
  303.653
  303.667
  303.682
  303.698
  303.713
  303.751
  303.203
  304.664
  304.787
  304.791
  304.774
  304.756
  304.743
  304.734
  304.725
  304.717
  304.709
  304.7
  304.689
  304.675
  304.656
  304.63
  304.597
  304.558
  304.515
  304.471
  304.425
  304.377
  304.328
  304.274
  304.214
  304.14
  304.05
  303.946
  303.841
  303.752
  303.693
  303.664
  303.648
  303.642
  303.642
  303.644
  303.638
  303.655
  303.507
  304.444
  304.63
  304.697
  304.719
  304.724
  304.723
  304.719
  304.715
  304.71
  304.704
  304.698
  304.69
  304.681
  304.671
  304.657
  304.639
  304.617
  304.591
  304.56
  304.527
  304.491
  304.452
  304.408
  304.357
  304.297
  304.223
  304.135
  304.035
  303.936
  303.849
  303.779
  303.726
  303.689
  303.667
  303.658
  303.651
  303.662
  303.685
  303.631
  303.626
  304.327
  304.582
  304.655
  304.676
  304.683
  304.684
  304.683
  304.68
  304.677
  304.672
  304.667
  304.66
  304.653
  304.644
  304.634
  304.622
  304.609
  304.594
  304.576
  304.556
  304.533
  304.508
  304.479
  304.447
  304.41
  304.365
  304.312
  304.249
  304.176
  304.097
  304.016
  303.938
  303.868
  303.809
  303.758
  303.709
  303.685
)
;

boundaryField
{
  floor
  {
    type wallHeatTransfer;
    Tinf uniform 305.2;
    alphaWall uniform 0.24;
    value nonuniform List<scalar> 29
(
  303.923
  303.779
  303.751
  303.777
  303.772
  303.752
  303.737
  303.724
  303.712
  303.704
  303.701
  303.704
  303.703
  303.689
  303.656
  303.616
  303.587
  303.565
  303.519
  303.552
  303.552
  303.541
  303.627
  303.685
  303.923
  303.779
  303.705
  303.694
  303.741
)
;
  }
  ceiling
  {
    type wallHeatTransfer;
    Tinf uniform 303.2;
    alphaWall uniform 0.24;
    value nonuniform List<scalar> 43
(
  303.659
  303.611
  303.609
  304.275
  304.515
  304.579
  304.591
  304.59
  304.584
  304.575
  304.565
  304.554
  304.544
  304.533
  304.521
  304.51
  304.498
  304.487
  304.475
  304.463
  304.449
  304.434
  304.416
  304.395
  304.373
  304.347
  304.319
  304.286
  304.247
  304.2
  304.145
  304.081
  304.012
  303.941
  303.872
  303.809
  303.755
  303.706
  303.661
  303.635
  305.611
  305.398
  303.497
)
;
  }
  sWall
  {
    type wallHeatTransfer;
    Tinf uniform 315.2;
    alphaWall uniform 0.36;
    value uniform 304.579;
  }
  nWall
  {
    type wallHeatTransfer;
    Tinf uniform 307.2;
    alphaWall uniform 0.36;
    value nonuniform List<scalar> 6
(
  304.136
  304.08
  304.019
  304.071
  304.099
  304.2
)
;
  }
  sideWalls
  {
    type empty;
  }
  glass1
  {
    type wallHeatTransfer;
    Tinf uniform 315.2;
    alphaWall uniform 4.3;
    value nonuniform List<scalar> 9
(
  312.517
  311.635
  311.058
  310.626
  310.302
  310.048
  309.852
  309.918
  310.137
)
;
  }
  glass2
  {
    type wallHeatTransfer;
    Tinf uniform 307.2;
    alphaWall uniform 4.3;
    value nonuniform List<scalar> 2
(
  305.999
  305.909
)
;
  }
  sun
  {
    type wallHeatTransfer;
    Tinf uniform 305.2;
    alphaWall uniform 0.24;
    value nonuniform List<scalar> 14
(
  304.328
  304.068
  304.063
  304.054
  304.045
  304.036
  304.027
  304.019
  304.009
  303.999
  303.987
  303.972
  303.956
  303.939
)
;
  }
  heatsource1
  {
    type fixedGradient;
    gradient uniform 0;
  }
  heatsource2
  {
    type fixedGradient;
    gradient uniform 0;
  }
  Table_master
  {
    type zeroGradient;
  }
  Table_slave
  {
    type zeroGradient;
  }
  inlet
  {
    type fixedValue;
    value uniform 290.15;
  }
  outlet
  {
    type zeroGradient;
  }
} 	// ************************************************************************* //

