/*--------------------------------*- C++ -*----------------------------------*\
  =========                 |
  \\      /  F ield         | OpenFOAM: The Open Source CFD Toolbox
   \\    /   O peration     | Website:  https://openfoam.org
    \\  /    A nd           | Version:  6
     \\/     M anipulation  |
\*---------------------------------------------------------------------------*/
FoamFile
{
    version     2.0;
    format      ascii;
    class       volScalarField;
    location    "80";
    object      epsilon;
}
// * * * * * * * * * * * * * * * * * * * * * * * * * * * * * * * * * * * * * //

dimensions      [0 2 -3 0 0 0 0];

internalField   nonuniform List<scalar> 
459
(
0.000436609
0.000612742
0.000718027
0.000862036
0.00102983
0.0012232
0.00139644
0.00151162
0.00152819
0.0013108
0.00109557
0.000875262
0.000659875
0.000494647
0.000350443
8.02433e-05
0.000140056
0.000197357
0.000236115
0.000237545
0.000223047
0.000185032
0.000148809
0.000119776
9.63888e-05
7.69334e-05
6.05408e-05
4.63392e-05
3.41297e-05
2.40306e-05
1.61189e-05
1.04787e-05
7.75837e-06
2.36201e-05
0.000821858
0.000974991
0.000555712
0.000583861
0.000673866
0.000817993
0.000961189
0.00104998
0.00104843
0.000918738
0.000762462
0.00061632
0.000495633
0.000414582
0.000332355
0.000516788
0.000320702
0.000168
0.000390401
0.000254154
0.000219566
0.000196407
0.000178735
0.000180644
0.00014014
0.000105027
7.88197e-05
5.94047e-05
4.43377e-05
3.21947e-05
2.25964e-05
1.57439e-05
1.20543e-05
1.37986e-05
1.2707e-05
2.83418e-05
0.00127401
0.00176966
0.00057596
0.000555773
0.000672064
0.000845581
0.000982427
0.00105933
0.00105652
0.000957648
0.000809987
0.000658172
0.000529857
0.000429581
0.000345486
0.000350064
0.000445023
0.0002348
0.000687852
0.000366495
0.000260708
0.000213096
0.00019373
0.000404356
0.000252353
0.00014865
8.61493e-05
5.34798e-05
3.736e-05
2.79766e-05
2.1768e-05
1.75921e-05
1.27615e-05
1.4244e-05
1.7495e-05
3.36774e-05
0.00184277
0.00323456
0.000750803
0.000602599
0.000761917
0.00096635
0.0010693
0.00113175
0.00113333
0.00104066
0.000877976
0.000703559
0.000557546
0.000446693
0.000363078
0.000328794
0.000347908
0.000535496
0.00044593
0.000336761
0.000278903
0.000249931
0.000227849
0.000215503
0.00051746
0.000376695
0.000286299
0.000220137
0.000168884
0.000125941
8.93112e-05
5.97867e-05
3.85117e-05
1.81803e-05
1.44751e-05
3.43085e-05
4.72128e-05
0.00259323
0.00555904
0.00127218
0.000789193
0.00105429
0.00121811
0.00125702
0.0013034
0.00129675
0.00117778
0.000968221
0.000744869
0.000563729
0.000437436
0.000355642
0.000315989
0.000326405
0.000360726
0.000322478
0.000310029
0.000307032
0.000297864
0.000274738
0.000238765
0.000209483
0.000178683
0.000159155
0.000143808
0.000126055
0.000101553
7.43116e-05
5.19089e-05
3.26902e-05
2.32687e-05
1.81144e-05
4.50625e-05
6.61664e-05
9.09964e-05
8.83058e-05
7.03501e-05
0.00360467
0.00839668
0.00268374
0.0014336
0.0016837
0.00160663
0.00156291
0.0015854
0.00155168
0.00137622
0.00108553
0.000785788
0.000554299
0.00040857
0.00033394
0.000312
0.00033688
0.000373816
0.00039615
0.000410323
0.000407649
0.000381645
0.000333881
0.00027142
0.000210723
0.000170989
0.000143635
0.000118787
9.43513e-05
7.36401e-05
5.89779e-05
4.8371e-05
3.65472e-05
3.27707e-05
3.1159e-05
5.46951e-05
9.26843e-05
0.000101917
9.21045e-05
8.06978e-05
0.00461484
0.010285
0.00551226
0.00347696
0.00261504
0.00214655
0.00199618
0.00199142
0.0019082
0.00163691
0.00122087
0.000818797
0.000532982
0.00038093
0.000327928
0.000334849
0.000384313
0.000445435
0.000492037
0.000508642
0.000490367
0.00043659
0.000359396
0.00027404
0.000192165
0.000138425
0.000109569
8.99402e-05
7.61506e-05
6.76369e-05
6.22626e-05
5.65415e-05
4.87447e-05
4.53064e-05
4.81641e-05
6.18547e-05
9.91505e-05
0.000102043
0.000103128
8.66829e-05
0.00482952
0.0107527
0.00669519
0.00456717
0.00327663
0.00267542
0.00254659
0.00255148
0.00237428
0.00193705
0.0013298
0.000816528
0.000505849
0.000399786
0.000382115
0.000415369
0.000483703
0.000552113
0.000591535
0.000584308
0.000530432
0.000429728
0.000319306
0.00022393
0.000158706
0.000124303
0.000107377
9.84455e-05
9.39817e-05
9.13384e-05
8.73703e-05
7.96532e-05
6.92281e-05
6.19177e-05
6.23736e-05
7.09707e-05
9.0704e-05
0.000102398
0.000123309
9.64187e-05
0.00449253
0.00723314
0.00541868
0.00398417
0.0031721
0.00306726
0.00328277
0.00331619
0.00287692
0.0021397
0.00126473
0.000812195
0.000622965
0.000562165
0.000563421
0.00059988
0.000653621
0.000694028
0.000692065
0.000638459
0.000545584
0.000437654
0.000343695
0.000277385
0.000238778
0.00022031
0.000213194
0.00021178
0.000212084
0.000209779
0.000200213
0.00018042
0.00015235
0.000124237
0.000106325
0.000104883
0.000122791
0.00016641
0.000253922
0.000407415
0.000759828
0.00129536
0.0029886
0.00434953
0.00473593
0.0040698
0.00259949
0.00171892
0.00129184
0.00113099
0.00107273
0.00106182
0.00107284
0.00109292
0.00110681
0.00109601
0.00105255
0.000984419
0.000907836
0.000838741
0.00078649
0.000752539
0.000735008
0.000731427
0.000738682
0.000752677
0.000767076
0.000772756
0.000758854
0.000716054
0.0006417
0.000544418
0.000443911
0.000364025
0.000323755
0.000350851
0.000518334
0.00090737
0.00138626
0.00806457
0.0102832
0.00933878
0.0074062
0.00533507
0.00374118
0.00290933
0.00252344
0.0023758
0.00232118
0.00230542
0.00231528
0.00235084
0.00240679
0.00246546
0.00250266
0.00250364
0.00246953
0.00241446
0.00235463
0.002302
0.00226666
0.0022577
0.00228
0.0023332
0.00240945
0.00249007
0.00254419
0.00253281
0.00242066
0.00219484
0.00188055
0.00153612
0.00123365
0.00115687
0.00187995
0.00171497
0.00155965
0.00201429
0.00259332
0.00379327
0.00389761
0.00375117
0.0033446
0.00291249
0.00247949
0.00217328
0.00200801
0.00192913
0.00190021
0.00189971
0.0019122
0.00192481
0.00192612
0.00190891
0.00187408
0.00182944
0.00178479
0.00174761
0.00172216
0.00171033
0.00171228
0.00172668
0.00175059
0.00177909
0.00180495
0.00181906
0.001812
0.00177638
0.00170909
0.00161235
0.00149306
0.0013608
0.00122882
0.00115463
0.00124516
0.00105611
)
;

boundaryField
{
    floor
    {
        Cmu             0.09;
        kappa           0.41;
        E               9.8;
        type            epsilonWallFunction;
        value           nonuniform List<scalar> 
29
(
0.000350443
8.02433e-05
0.000140056
0.000197357
0.000236115
0.000237545
0.000223047
0.000185032
0.000148809
0.000119776
9.63888e-05
7.69334e-05
6.05408e-05
4.63392e-05
3.41297e-05
2.40306e-05
1.61189e-05
1.04787e-05
7.75837e-06
2.36201e-05
2.36201e-05
2.83418e-05
3.36774e-05
4.72128e-05
0.000350443
8.02433e-05
0.000168
0.0002348
0.000535496
)
;
    }
    ceiling
    {
        Cmu             0.09;
        kappa           0.41;
        E               9.8;
        type            epsilonWallFunction;
        value           nonuniform List<scalar> 
43
(
0.00155965
0.00201429
0.00259332
0.00379327
0.00389761
0.00375117
0.0033446
0.00291249
0.00247949
0.00217328
0.00200801
0.00192913
0.00190021
0.00189971
0.0019122
0.00192481
0.00192612
0.00190891
0.00187408
0.00182944
0.00178479
0.00174761
0.00172216
0.00171033
0.00171228
0.00172668
0.00175059
0.00177909
0.00180495
0.00181906
0.001812
0.00177638
0.00170909
0.00161235
0.00149306
0.0013608
0.00122882
0.00115463
0.00124516
0.00105611
0.00449253
0.00723314
0.00138626
)
;
    }
    sWall
    {
        Cmu             0.09;
        kappa           0.41;
        E               9.8;
        type            epsilonWallFunction;
        value           uniform 0.00155965;
    }
    nWall
    {
        Cmu             0.09;
        kappa           0.41;
        E               9.8;
        type            epsilonWallFunction;
        value           nonuniform List<scalar> 6(7.03501e-05 8.06978e-05 8.66829e-05 0.00090737 0.00171497 0.00105611);
    }
    sideWalls
    {
        type            empty;
    }
    glass1
    {
        Cmu             0.09;
        kappa           0.41;
        E               9.8;
        type            epsilonWallFunction;
        value           nonuniform List<scalar> 9(0.000436609 0.000821858 0.00127401 0.00184277 0.00259323 0.00360467 0.00461484 0.00482952 0.00449253);
    }
    glass2
    {
        Cmu             0.09;
        kappa           0.41;
        E               9.8;
        type            epsilonWallFunction;
        value           nonuniform List<scalar> 2(9.64187e-05 0.000407415);
    }
    sun
    {
        Cmu             0.09;
        kappa           0.41;
        E               9.8;
        type            epsilonWallFunction;
        value           nonuniform List<scalar> 
14
(
0.000436609
0.000612742
0.000718027
0.000862036
0.00102983
0.0012232
0.00139644
0.00151162
0.00152819
0.0013108
0.00109557
0.000875262
0.000659875
0.000494647
)
;
    }
    heatsource1
    {
        Cmu             0.09;
        kappa           0.41;
        E               9.8;
        type            epsilonWallFunction;
        value           nonuniform List<scalar> 3(9.09964e-05 8.83058e-05 7.03501e-05);
    }
    heatsource2
    {
        Cmu             0.09;
        kappa           0.41;
        E               9.8;
        type            epsilonWallFunction;
        value           nonuniform List<scalar> 4(0.000516788 0.000320702 0.000320702 0.000445023);
    }
    Table_master
    {
        Cmu             0.09;
        kappa           0.41;
        E               9.8;
        type            epsilonWallFunction;
        value           nonuniform List<scalar> 9(0.000404356 0.000252353 0.00014865 8.61493e-05 5.34798e-05 3.736e-05 2.79766e-05 2.1768e-05 1.75921e-05);
    }
    Table_slave
    {
        Cmu             0.09;
        kappa           0.41;
        E               9.8;
        type            epsilonWallFunction;
        value           nonuniform List<scalar> 9(0.00051746 0.000376695 0.000286299 0.000220137 0.000168884 0.000125941 8.93112e-05 5.97867e-05 3.85117e-05);
    }
    inlet
    {
        type            turbulentMixingLengthDissipationRateInlet;
        mixingLength    0.01;
        phi             phi;
        k               k;
        value           uniform 0.000101881;
    }
    outlet
    {
        type            zeroGradient;
    }
}


// ************************************************************************* //
