// -*- C++ -*-
// File generated by PyFoam - sorry for the ugliness

FoamFile
{
 version 2.0;
 format ascii;
 class volScalarField;
 location "260";
 object T;
}

dimensions [ 0 0 0 1 0 0 0 ];

internalField nonuniform List<scalar> 459
(
  301.776
  301.816
  301.869
  301.913
  301.942
  301.961
  301.974
  301.986
  301.998
  302.009
  302.02
  302.031
  302.041
  302.051
  302.055
  302.685
  302.637
  302.602
  302.606
  302.627
  302.648
  302.665
  302.682
  302.697
  302.713
  302.728
  302.744
  302.758
  302.773
  302.789
  302.805
  302.823
  302.849
  302.905
  301.781
  301.859
  301.951
  302.046
  302.108
  302.142
  302.161
  302.173
  302.181
  302.184
  302.182
  302.176
  302.163
  302.142
  302.112
  302.127
  302.153
  302.672
  302.594
  302.556
  302.576
  302.613
  302.649
  302.675
  302.699
  302.723
  302.746
  302.768
  302.791
  302.813
  302.834
  302.852
  302.867
  302.878
  302.889
  302.938
  301.768
  301.871
  302.016
  302.212
  302.323
  302.372
  302.39
  302.39
  302.379
  302.359
  302.335
  302.307
  302.273
  302.234
  302.19
  302.175
  302.177
  302.566
  302.45
  302.486
  302.548
  302.615
  302.669
  302.689
  302.712
  302.736
  302.762
  302.788
  302.816
  302.843
  302.869
  302.891
  302.907
  302.916
  302.921
  302.958
  301.748
  301.862
  302.064
  302.427
  302.589
  302.636
  302.632
  302.596
  302.551
  302.506
  302.461
  302.415
  302.368
  302.317
  302.263
  302.228
  302.208
  302.225
  302.285
  302.363
  302.471
  302.582
  302.679
  302.753
  302.809
  302.853
  302.895
  302.934
  302.973
  303.011
  303.049
  303.09
  303.129
  303.044
  302.994
  302.967
  302.981
  301.724
  301.838
  302.071
  302.626
  302.824
  302.845
  302.799
  302.735
  302.673
  302.616
  302.562
  302.508
  302.454
  302.398
  302.341
  302.3
  302.277
  302.299
  302.372
  302.484
  302.612
  302.734
  302.835
  302.912
  302.975
  303.025
  303.065
  303.099
  303.129
  303.156
  303.18
  303.202
  303.214
  303.146
  303.071
  303.025
  303.008
  303.028
  303.13
  303.508
  301.68
  301.781
  302.034
  302.681
  302.951
  302.964
  302.91
  302.848
  302.787
  302.73
  302.674
  302.617
  302.559
  302.503
  302.452
  302.42
  302.415
  302.474
  302.584
  302.713
  302.839
  302.949
  303.035
  303.098
  303.147
  303.183
  303.21
  303.232
  303.252
  303.27
  303.285
  303.294
  303.288
  303.224
  303.151
  303.111
  303.062
  303.068
  303.201
  303.459
  301.605
  301.652
  301.868
  302.65
  303.032
  303.076
  303.033
  302.979
  302.926
  302.875
  302.825
  302.775
  302.725
  302.677
  302.642
  302.634
  302.666
  302.758
  302.875
  302.99
  303.094
  303.177
  303.237
  303.28
  303.308
  303.323
  303.336
  303.348
  303.36
  303.368
  303.373
  303.37
  303.352
  303.308
  303.255
  303.21
  303.112
  303.111
  303.245
  303.446
  301.497
  301.452
  301.581
  302.531
  303.096
  303.201
  303.187
  303.149
  303.11
  303.072
  303.034
  302.999
  302.966
  302.939
  302.926
  302.943
  302.998
  303.089
  303.18
  303.264
  303.336
  303.385
  303.418
  303.434
  303.44
  303.444
  303.448
  303.453
  303.457
  303.459
  303.457
  303.449
  303.432
  303.402
  303.361
  303.302
  303.189
  303.165
  303.267
  303.458
  301.393
  301.245
  301.203
  302.335
  303.153
  303.329
  303.354
  303.341
  303.321
  303.301
  303.281
  303.263
  303.25
  303.244
  303.251
  303.278
  303.326
  303.389
  303.447
  303.494
  303.529
  303.549
  303.557
  303.558
  303.555
  303.553
  303.551
  303.55
  303.548
  303.545
  303.539
  303.528
  303.512
  303.487
  303.452
  303.397
  303.303
  303.251
  303.316
  303.476
  300.971
  302.147
  303.253
  303.461
  303.501
  303.506
  303.503
  303.498
  303.494
  303.491
  303.492
  303.498
  303.512
  303.534
  303.564
  303.597
  303.625
  303.645
  303.656
  303.66
  303.657
  303.652
  303.646
  303.64
  303.634
  303.627
  303.62
  303.611
  303.6
  303.586
  303.566
  303.541
  303.507
  303.463
  303.406
  303.363
  303.396
  303.474
  303.248
  303.355
  303.506
  303.582
  303.61
  303.62
  303.624
  303.627
  303.63
  303.635
  303.642
  303.651
  303.664
  303.679
  303.695
  303.71
  303.721
  303.726
  303.727
  303.724
  303.718
  303.711
  303.702
  303.694
  303.685
  303.675
  303.664
  303.651
  303.635
  303.617
  303.594
  303.568
  303.537
  303.505
  303.474
  303.452
  303.469
  303.496
  303.677
  303.648
  303.613
  303.629
  303.665
  303.685
  303.698
  303.705
  303.712
  303.718
  303.724
  303.731
  303.739
  303.747
  303.755
  303.762
  303.768
  303.771
  303.771
  303.769
  303.764
  303.758
  303.75
  303.741
  303.732
  303.721
  303.71
  303.698
  303.684
  303.667
  303.648
  303.626
  303.602
  303.577
  303.554
  303.533
  303.518
  303.511
  303.519
  303.534
)
;

boundaryField
{
  floor
  {
    type wallHeatTransfer;
    Tinf uniform 297.948;
    alphaWall uniform 0.24;
    value nonuniform List<scalar> 29
(
  301.518
  301.905
  301.998
  301.998
  302.006
  302.007
  302.002
  301.987
  301.967
  301.948
  301.929
  301.912
  301.895
  301.879
  301.864
  301.85
  301.834
  301.815
  301.78
  301.795
  301.795
  301.965
  302.064
  302.169
  301.518
  301.905
  302.093
  302.019
  301.62
)
;
  }
  ceiling
  {
    type wallHeatTransfer;
    Tinf uniform 297.948;
    alphaWall uniform 0.24;
    value nonuniform List<scalar> 43
(
  303.157
  303.153
  303.187
  303.232
  303.269
  303.292
  303.305
  303.314
  303.32
  303.326
  303.332
  303.339
  303.346
  303.353
  303.361
  303.367
  303.373
  303.375
  303.375
  303.371
  303.365
  303.358
  303.349
  303.34
  303.33
  303.32
  303.31
  303.299
  303.288
  303.275
  303.259
  303.242
  303.221
  303.198
  303.173
  303.152
  303.14
  303.143
  303.158
  303.141
  301.081
  300.926
  302.942
)
;
  }
  sWall
  {
    type wallHeatTransfer;
    Tinf uniform 300.167;
    alphaWall uniform 0.36;
    value uniform 303.22;
  }
  nWall
  {
    type wallHeatTransfer;
    Tinf uniform 299.15;
    alphaWall uniform 0.36;
    value nonuniform List<scalar> 6
(
  302.852
  302.933
  303.032
  303.141
  303.111
  303.087
)
;
  }
  sideWalls
  {
    type empty;
  }
  glass1
  {
    type wallHeatTransfer;
    Tinf uniform 300.167;
    alphaWall uniform 4.3;
    value nonuniform List<scalar> 9
(
  300.716
  300.765
  300.769
  300.759
  300.751
  300.731
  300.698
  300.65
  300.608
)
;
  }
  glass2
  {
    type wallHeatTransfer;
    Tinf uniform 299.15;
    alphaWall uniform 4.3;
    value nonuniform List<scalar> 2
(
  301.352
  301.475
)
;
  }
  sun
  {
    type wallHeatTransfer;
    Tinf uniform 297.948;
    alphaWall uniform 0.24;
    value nonuniform List<scalar> 14
(
  301.403
  301.496
  301.546
  301.575
  301.588
  301.591
  301.59
  301.587
  301.585
  301.582
  301.578
  301.571
  301.562
  301.546
)
;
  }
  heatsource1
  {
    type fixedGradient;
    gradient uniform 0;
  }
  heatsource2
  {
    type fixedGradient;
    gradient uniform 0;
  }
  Table_master
  {
    type zeroGradient;
  }
  Table_slave
  {
    type zeroGradient;
  }
  inlet
  {
    type fixedValue;
    value uniform 300.15;
  }
  outlet
  {
    type zeroGradient;
  }
} 	// ************************************************************************* //

