/*--------------------------------*- C++ -*----------------------------------*\
  =========                 |
  \\      /  F ield         | OpenFOAM: The Open Source CFD Toolbox
   \\    /   O peration     | Website:  https://openfoam.org
    \\  /    A nd           | Version:  6
     \\/     M anipulation  |
\*---------------------------------------------------------------------------*/
FoamFile
{
    version     2.0;
    format      ascii;
    class       surfaceScalarField;
    location    "590";
    object      phi;
}
// * * * * * * * * * * * * * * * * * * * * * * * * * * * * * * * * * * * * * //

dimensions      [1 0 -1 0 0 0 0];

internalField   nonuniform List<scalar> 
852
(
-0.00232165
0.00235652
-0.00317116
0.000849501
-0.00384483
0.000673663
-0.00437914
0.000534305
-0.00474505
0.0003659
-0.00491652
0.000171473
-0.00486519
-5.13393e-05
-0.00456189
-0.000303312
-0.00400426
-0.000557626
-0.00323699
-0.000767281
-0.00234534
-0.000891652
-0.0014368
-0.000908552
-0.000624781
-0.000812023
-3.08485e-05
-0.000593939
-3.34507e-05
5.76748e-05
-6.12946e-05
0.000261369
-0.0002037
0.000619009
-0.000357647
0.000966714
-0.000347711
0.00125099
-0.000284282
0.0014586
-0.000207619
0.00156988
-0.00011129
0.00161246
-4.25786e-05
0.00162847
-1.60206e-05
0.00163303
-4.56602e-06
0.00162878
4.24048e-06
0.00161548
1.32929e-05
0.00158856
2.69178e-05
0.00153424
5.43089e-05
0.00141949
0.000114748
0.0011869
0.000232582
0.000783896
0.000402994
0.000117643
0.000666246
0.000112522
-0.00171385
0.00416586
-0.002551
0.00168664
-0.00325359
0.00137625
-0.00379154
0.00107225
-0.00416124
0.000735586
-0.00434522
0.000355455
-0.00431425
-8.23179e-05
-0.00404232
-0.000575253
-0.00353498
-0.00106497
-0.00284883
-0.00145344
-0.00207333
-0.00166716
-0.00130916
-0.00167273
-0.000651199
-0.00146999
-0.000172045
-0.0010731
0.000265528
-0.000471029
0.000276641
-1.11694e-05
0.000276584
-8.94551e-05
1.94481e-05
0.000559811
-0.000852972
0.000923794
-0.000721636
0.00119729
-0.000621212
0.00141454
-0.000501538
0.00156752
-0.000360606
0.00160182
-0.000145597
0.00160995
-5.07111e-05
0.00161804
-2.41163e-05
0.00162465
-1.11882e-05
0.00162871
1.73823e-07
0.00163018
1.18122e-05
0.00162814
2.89516e-05
0.00161803
6.44174e-05
0.00156575
0.000167017
0.00136203
0.000436295
0.0010112
0.000753822
0.000612708
0.00106473
0.000711619
-0.00124549
0.00555914
-0.00197466
0.0024158
-0.0026178
0.00201938
-0.00310034
0.00155478
-0.00344472
0.00107996
-0.00363125
0.000541986
-0.00361824
-9.53314e-05
-0.00336349
-0.000830015
-0.00288542
-0.00154304
-0.00226143
-0.00207743
-0.00158323
-0.00234536
-0.000936301
-0.00231966
-0.000385005
-0.00202129
2.54645e-05
-0.00148358
0.000348397
-0.000793968
0.000454574
-0.000117352
0.000731153
0.000921879
-0.000915129
0.00104584
-0.000976937
0.00126538
-0.000941184
0.00142414
-0.000779975
0.0015432
-0.000620611
0.00168614
-0.000503547
0.00154069
0.00149012
0.00146615
0.00145511
0.00145543
0.00146738
0.00149648
0.00156105
0.00172821
0.00152167
0.000642827
0.00126655
0.00100893
0.000882141
0.00144913
0.00157223
-0.000904204
0.00665669
-0.00148529
0.00299688
-0.00194718
0.00248127
-0.00230067
0.00190826
-0.00257041
0.00134969
-0.00272968
0.000701246
-0.00271483
-0.000110182
-0.00245355
-0.00109131
-0.00199998
-0.00199661
-0.00145599
-0.00262143
-0.000900697
-0.00290066
-0.000391548
-0.00282882
4.41012e-05
-0.00245695
0.000410612
-0.00185009
0.000762085
-0.00114545
0.00113291
-0.000488186
0.00190044
-3.63767e-05
0.00216834
-0.00028027
0.00198363
-0.000730428
0.00180034
-0.000793653
0.0016335
-0.000774354
0.00153807
-0.000684548
0.00148444
-0.000566986
0.00140075
-0.000419865
0.00160193
-0.000201338
0.00173193
-0.000130165
0.00184352
-0.000111749
0.00194525
-0.000101886
0.00203028
-8.51974e-05
0.00208189
-5.17613e-05
0.00206976
1.19627e-05
0.00194999
0.000119615
0.00165346
0.000296368
0.00161455
0.000681721
0.00148661
0.00113687
0.00126362
0.00167211
0.00280787
-0.000652609
0.00754212
-0.00108718
0.00343144
-0.00125051
0.00264459
-0.00140489
0.00206264
-0.00153895
0.00148375
-0.00161823
0.000780522
-0.00155406
-0.00017436
-0.0012591
-0.00138628
-0.000857539
-0.00239817
-0.000445109
-0.00303387
-6.72047e-05
-0.00327856
0.000253552
-0.00314958
0.000516919
-0.00272032
0.000762672
-0.00209585
0.00102636
-0.00140915
0.0013389
-0.000800725
0.0017163
-0.00041379
0.00186014
-0.000424109
0.00169575
-0.000566051
0.00152644
-0.000624345
0.00136619
-0.000614108
0.00124279
-0.000561161
0.00115911
-0.000483308
0.00112296
-0.000383728
0.00119548
-0.000273869
0.00128344
-0.000218133
0.00137402
-0.000202329
0.00146684
-0.000194722
0.00155721
-0.000175574
0.00163514
-0.000129699
0.00168442
-3.73288e-05
0.00168704
0.000116994
0.00164459
0.000338802
0.00166333
0.000662971
0.00177906
0.00102113
0.00221417
0.00123699
0.00336663
0.0016554
0.00219541
0.00117101
0.00131801
0.00087719
0.00136065
-0.000563566
0.00837243
-0.000843636
0.00371151
-0.000580956
0.00238191
-0.000463661
0.00194534
-0.000415565
0.00143564
-0.000338207
0.000703157
-0.000114174
-0.0003984
0.000203298
-0.00170376
0.000491474
-0.00268635
0.000708821
-0.00325122
0.000847931
-0.00341768
0.0009277
-0.00322935
0.000974839
-0.00276746
0.00101804
-0.00213906
0.00108481
-0.00147592
0.00119003
-0.00090595
0.00131194
-0.000535714
0.00131302
-0.000425197
0.0011887
-0.000441729
0.00103206
-0.000467713
0.000883412
-0.00046547
0.000763302
-0.000441058
0.000682825
-0.000402839
0.000653881
-0.000354792
0.000687384
-0.00030738
0.000755587
-0.000286345
0.00083887
-0.00028562
0.000929965
-0.000285826
0.00102586
-0.000271478
0.00112519
-0.00022904
0.00122774
-0.00013989
0.00132318
2.15462e-05
0.00140732
0.000254651
0.00153079
0.000539492
0.00172475
0.000827165
0.00194928
0.00101246
0.00224128
0.00136339
0.00196748
0.0014448
0.00119407
0.00165059
0.0025986
-0.000679337
0.0093485
-0.000559533
0.0035917
0.000234929
0.00158744
0.000594426
0.00158583
0.000827817
0.00120225
0.00116451
0.000366454
0.00157628
-0.000810178
0.00184522
-0.0019727
0.00195027
-0.0027914
0.00191383
-0.00321478
0.00176882
-0.00327267
0.00156034
-0.00302087
0.00133278
-0.00253991
0.00112034
-0.00192664
0.00095137
-0.00130695
0.000839578
-0.000794165
0.000772164
-0.000468308
0.000683086
-0.000336125
0.000557
-0.00031565
0.000415894
-0.000326615
0.00028459
-0.000334174
0.00017833
-0.000334806
0.000107199
-0.000331716
7.96954e-05
-0.000327297
9.82566e-05
-0.00032595
0.000147557
-0.000335655
0.000212116
-0.000350188
0.000284681
-0.000358401
0.000364458
-0.000351264
0.000456843
-0.000321435
0.00057443
-0.000257486
0.000729224
-0.000133257
0.000905497
7.83686e-05
0.00109902
0.000345962
0.00132012
0.000606057
0.00151409
0.000818473
0.0017551
0.00112237
0.00188348
0.0013164
0.00161445
0.00191961
0.00425873
0.00178855
0.00789145
0.00229489
0.00308535
0.00234092
0.0015414
0.00249857
0.00142817
0.00277403
0.000926772
0.00323219
-9.17072e-05
0.00360948
-0.00118748
0.00367432
-0.00203755
0.0034592
-0.00257628
0.00304978
-0.00280536
0.00253001
-0.0027529
0.00197397
-0.00246484
0.00144181
-0.00200776
0.000967789
-0.00145262
0.000586891
-0.000926064
0.000311596
-0.000518879
0.000133611
-0.000290331
-1.31544e-06
-0.000201207
-0.000127634
-0.00018934
-0.000249251
-0.000205006
-0.000358439
-0.000224994
-0.000447714
-0.000245539
-0.000511617
-0.000267822
-0.000546735
-0.000292188
-0.000553784
-0.00031891
-0.000541663
-0.000347786
-0.000518994
-0.000372867
-0.000491169
-0.000386236
-0.000460804
-0.000381638
-0.000425123
-0.000357125
-0.000367552
-0.000315067
-0.000251123
-0.000249696
-5.10614e-05
-0.000121702
0.000195632
9.9259e-05
0.000447617
0.000354063
0.000663592
0.000602489
0.000913054
0.000872901
0.00113644
0.00109301
0.000718171
0.00233787
0.00516739
0.00823447
0.0112981
0.00949085
0.00334862
0.00852367
0.00239535
0.00791388
0.00153655
0.00732487
0.0004973
0.00656318
-0.000425787
0.00567319
-0.00114756
0.00471154
-0.00161463
0.00372575
-0.00181957
0.00275892
-0.00178608
0.00186004
-0.00156596
0.00107939
-0.00122712
0.00042524
-0.00079848
-5.76119e-05
-0.000443223
-0.000368046
-0.000208455
-0.000553058
-0.000105328
-0.000679461
-7.4812e-05
-0.000785335
-8.34749e-05
-0.000882145
-0.000108205
-0.000971428
-0.00013572
-0.00105273
-0.000164245
-0.00112478
-0.000195788
-0.00118707
-0.000229899
-0.00124044
-0.000265558
-0.00128786
-0.000300377
-0.00133237
-0.000328357
-0.00137831
-0.000340312
-0.0014351
-0.000324856
-0.00152045
-0.000271788
-0.00165208
-0.000183442
-0.00183827
-6.35139e-05
-0.0020776
0.000117616
-0.00236715
0.000388798
-0.00277829
0.000765199
-0.00344761
0.0012718
-0.00451253
0.0019378
-0.00603003
0.0026105
-0.00625966
0.00256749
-0.000886076
0.0061078
0.00353904
0.00547735
0.00302581
0.00545264
0.00156126
0.00533187
0.000618076
0.0049559
-4.98052e-05
0.0043433
-0.000534949
0.00354345
-0.000814776
0.00263525
-0.000911378
0.00169315
-0.000843985
0.000799342
-0.000672167
3.25368e-05
-0.000460328
-0.000534479
-0.000231476
-0.000875185
-0.000102527
-0.00106259
-2.10561e-05
-0.00117499
7.05855e-06
-0.00125428
4.4671e-06
-0.00132367
-1.40954e-05
-0.00139268
-3.92033e-05
-0.00146602
-6.23854e-05
-0.00154694
-8.33413e-05
-0.00163679
-0.000105944
-0.00173717
-0.000129523
-0.00184907
-0.000153668
-0.0019721
-0.000177363
-0.00210329
-0.000197174
-0.00223764
-0.00020597
-0.00237111
-0.000191397
-0.00250788
-0.000135023
-0.00265178
-3.95559e-05
-0.00280186
8.65561e-05
-0.00294141
0.000257159
-0.00305895
0.000506334
-0.00315322
0.000859454
-0.00321291
0.00133148
-0.0032006
0.00192548
-0.00300602
0.00241592
-0.00141133
0.000972789
-0.00225027
0.00054825
0.00297784
0.0017672
0.00180686
0.00224224
0.00108622
0.0023561
0.000504224
0.00219589
0.00011041
0.00179924
-0.000138304
0.00124144
-0.000256982
0.000588477
-0.000258429
-4.89461e-05
-0.000206577
-0.000602302
-0.000118825
-0.00103109
-3.15537e-05
-0.00129181
2.92345e-05
-0.00144836
5.40103e-05
-0.00152817
5.87448e-05
-0.00157321
5.20882e-05
-0.00160769
3.89432e-05
-0.00164537
2.35679e-05
-0.00169275
8.17383e-06
-0.00174841
-6.74067e-06
-0.00181159
-2.01716e-05
-0.00188583
-3.17129e-05
-0.0019748
-4.05641e-05
-0.0020831
-4.53789e-05
-0.00221549
-4.49734e-05
-0.00237423
-3.8446e-05
-0.00255509
-2.51189e-05
-0.00274175
-4.74545e-06
-0.00290254
2.57516e-05
-0.00300972
6.76224e-05
-0.00305739
0.000134213
-0.00303099
0.000230752
-0.0028924
0.000367732
-0.00259778
0.000564828
-0.00208926
0.000822948
-0.00118432
0.00102053
0.000318971
0.000912625
0.00136728
-7.55279e-05
-0.000834396
-0.00591244
-0.00717557
-0.00421806
-0.00243453
-0.0013745
-0.000899626
-0.000821869
-0.000994877
-0.00128743
-0.00158202
-0.00182541
-0.00198205
-0.00205275
-0.00206392
-0.00205126
-0.00203447
-0.00202468
-0.00202827
-0.0020474
-0.0020821
-0.00213183
-0.00219506
-0.00226988
-0.00235361
-0.00244226
-0.00253077
-0.00261325
-0.00268321
-0.00273391
-0.00275535
-0.00273623
-0.00265176
-0.00247182
-0.00215571
-0.001643
-0.000872354
9.57456e-05
0.000955426
0.000827049
)
;

boundaryField
{
    floor
    {
        type            calculated;
        value           nonuniform List<scalar> 
29
(
0
0
0
0
0
0
0
0
0
0
0
0
0
0
0
0
0
0
0
0
5.11345e-06
1.36035e-05
2.15223e-05
2.79787e-05
2.59856e-06
3.61394e-06
8.70591e-06
1.26929e-05
1.23641e-05
)
;
    }
    ceiling
    {
        type            calculated;
        value           nonuniform List<scalar> 
43
(
2.26062e-05
2.10466e-05
2.03237e-05
2.33339e-05
2.61852e-05
2.934e-05
3.26336e-05
3.46855e-05
3.55501e-05
3.61477e-05
3.68021e-05
3.78007e-05
3.91403e-05
4.03953e-05
4.13364e-05
4.19431e-05
4.22942e-05
4.25164e-05
4.26941e-05
4.28584e-05
4.29815e-05
4.30505e-05
4.30977e-05
4.31503e-05
4.32653e-05
4.35253e-05
4.40242e-05
4.48336e-05
4.59441e-05
4.71847e-05
4.84926e-05
4.97336e-05
5.08037e-05
5.16141e-05
5.21015e-05
5.22976e-05
5.24258e-05
5.29354e-05
5.28406e-05
5.45961e-05
2.68425e-05
2.17436e-05
1.29531e-05
)
;
    }
    sWall
    {
        type            calculated;
        value           uniform -0.000173354;
    }
    nWall
    {
        type            calculated;
        value           nonuniform List<scalar> 6(-4.28537e-05 -4.3885e-05 -4.56823e-05 -4.71418e-05 -4.86046e-05 -6.19521e-05);
    }
    sideWalls
    {
        type            empty;
        value           nonuniform 0();
    }
    glass1
    {
        type            calculated;
        value           nonuniform List<scalar> 9(-3.4874e-05 -9.54846e-05 -0.000147801 -0.000193344 -0.000232828 -0.000266756 -0.000296735 -0.000331502 -0.000369866);
    }
    glass2
    {
        type            calculated;
        value           nonuniform List<scalar> 2(-0.000190506 -0.000206194);
    }
    sun
    {
        type            calculated;
        value           uniform 0;
    }
    heatsource1
    {
        type            calculated;
        value           nonuniform List<scalar> 3(2.03027e-07 2.03538e-07 2.03897e-07);
    }
    heatsource2
    {
        type            calculated;
        value           nonuniform List<scalar> 4(5.10863e-08 5.11405e-08 0 0);
    }
    Table_master
    {
        type            calculated;
        value           nonuniform List<scalar> 9(-1.52754e-07 -1.52853e-07 -1.52881e-07 -1.52897e-07 -1.52908e-07 -1.5291e-07 -1.52905e-07 -1.52889e-07 -1.52839e-07);
    }
    Table_slave
    {
        type            calculated;
        value           nonuniform List<scalar> 9(1.52678e-07 1.52687e-07 1.5265e-07 1.52614e-07 1.52583e-07 1.52565e-07 1.52567e-07 1.52577e-07 1.52626e-07);
    }
    inlet
    {
        type            calculated;
        value           uniform -0.00629821;
    }
    outlet
    {
        type            calculated;
        value           nonuniform List<scalar> 2(0.00606319 0.00124208);
    }
}


// ************************************************************************* //
