/*--------------------------------*- C++ -*----------------------------------*\
  =========                 |
  \\      /  F ield         | OpenFOAM: The Open Source CFD Toolbox
   \\    /   O peration     | Website:  https://openfoam.org
    \\  /    A nd           | Version:  6
     \\/     M anipulation  |
\*---------------------------------------------------------------------------*/
FoamFile
{
    version     2.0;
    format      ascii;
    class       volScalarField;
    location    "700";
    object      alphat;
}
// * * * * * * * * * * * * * * * * * * * * * * * * * * * * * * * * * * * * * //

dimensions      [1 -1 -1 0 0 0 0];

internalField   nonuniform List<scalar> 
459
(
0.00123439
0.00134802
0.00137148
0.00143663
0.00149669
0.00155253
0.00160672
0.00166196
0.0017025
0.00172234
0.00171548
0.0016778
0.00160926
0.001517
0.00141722
0.000542291
0.000668261
0.000745924
0.000734264
0.000705332
0.000670011
0.000628584
0.000588328
0.000551881
0.000519466
0.000490693
0.000465058
0.000442265
0.000421723
0.000402717
0.000384296
0.000365026
0.000351541
0.000320469
0.00168695
0.00408839
0.00390195
0.00454138
0.00516395
0.00579048
0.00635561
0.00676865
0.00714624
0.00745837
0.00765884
0.00769052
0.007468
0.00678583
0.00496501
0.00144023
0.000885561
0.000595964
0.00121794
0.00165371
0.00195285
0.00210053
0.00208596
0.00170856
0.00148547
0.00132331
0.00119753
0.00109662
0.00101393
0.000940959
0.000872796
0.000806982
0.000749024
0.000698089
0.000818867
0.000422137
0.00206414
0.00558795
0.00483145
0.00610659
0.00673752
0.00720278
0.00756115
0.00782994
0.00812227
0.00843166
0.00872317
0.00893849
0.0090148
0.008871
0.00828786
0.00649872
0.00139475
0.00120973
0.00169329
0.00212126
0.00248506
0.0027189
0.00263288
0.000898804
0.000795727
0.000712912
0.000646007
0.000591415
0.000546395
0.000508981
0.00047789
0.000452553
0.000486685
0.000560996
0.000916299
0.000489084
0.00242682
0.00717161
0.00483401
0.00648224
0.00707191
0.00726943
0.00737542
0.00748981
0.00770517
0.00800901
0.00837163
0.00871789
0.00898519
0.00911696
0.0090128
0.00842928
0.00648841
0.00169637
0.00210368
0.00268554
0.00320934
0.00359597
0.00381534
0.0035631
0.00101083
0.000922071
0.000858714
0.000810625
0.00076986
0.000732256
0.000696239
0.000658462
0.000614542
0.000577155
0.000588412
0.0010418
0.000540614
0.00279678
0.00921013
0.00532445
0.00621278
0.00701989
0.00709546
0.00701535
0.00703325
0.00722071
0.0075224
0.00793095
0.00834131
0.00867128
0.00884337
0.00882165
0.00855727
0.00787659
0.006456
0.00594424
0.00573305
0.00561907
0.00553554
0.00544598
0.00523545
0.00445152
0.00408033
0.00386721
0.00370193
0.00352429
0.00326377
0.0029039
0.00246178
0.00196636
0.00146004
0.00107532
0.00107068
0.000720754
0.000669389
0.000810958
0.000909157
0.00318866
0.0114252
0.00737289
0.00612934
0.00672043
0.00700678
0.00685671
0.00689258
0.00704071
0.00731435
0.00771342
0.00815929
0.00852596
0.00870183
0.00864173
0.00837847
0.00799366
0.00756164
0.00728224
0.00706773
0.00685494
0.00664493
0.00643785
0.00620113
0.00586129
0.00555927
0.00528938
0.00502773
0.00475882
0.00446527
0.00408617
0.0036045
0.0030189
0.00236078
0.00177087
0.00131782
0.000996453
0.000849655
0.00121567
0.000947241
0.00354636
0.0129813
0.0103919
0.00791901
0.00743895
0.0074292
0.00723249
0.00707582
0.00709532
0.00734202
0.00777498
0.00827003
0.00866193
0.00881472
0.0086858
0.00835253
0.0079944
0.00777197
0.00767665
0.00754442
0.0073103
0.0070022
0.00665025
0.00627566
0.00589864
0.00555867
0.00524938
0.00495998
0.00468992
0.00444587
0.00422726
0.00390857
0.00344786
0.00287986
0.0023296
0.00183149
0.0014683
0.00135341
0.00138122
0.00107028
0.00361442
0.0115915
0.0102751
0.00945592
0.00883906
0.00808624
0.00741708
0.00708591
0.00714977
0.0075463
0.00813005
0.00870726
0.00907999
0.00912181
0.00883806
0.00837572
0.00798912
0.00783178
0.0077611
0.0074837
0.00703227
0.0064988
0.00596284
0.00548421
0.00508779
0.0047645
0.00449162
0.00425953
0.00407186
0.00393846
0.00386958
0.0038371
0.00358834
0.00321368
0.00288026
0.00270446
0.00279848
0.00322685
0.00399618
0.00168185
0.00351543
0.0041765
0.00465276
0.00480199
0.00487955
0.0050846
0.00553396
0.00625999
0.00719541
0.00818166
0.00903402
0.00958462
0.00969855
0.00936194
0.00873869
0.00814222
0.0077895
0.00750597
0.00712182
0.00655665
0.00589195
0.00524884
0.00470733
0.00428691
0.00396557
0.00371005
0.00349567
0.00330983
0.0031454
0.00299519
0.00285129
0.00271411
0.00260314
0.00252079
0.00249075
0.00250579
0.00249895
0.00240692
0.00225442
0.00158443
0.00180738
0.00365256
0.00561422
0.00729292
0.0086467
0.00973699
0.0104821
0.0108355
0.0108151
0.0104399
0.00970553
0.008748
0.00781118
0.00714152
0.00665212
0.00611318
0.0054841
0.00483591
0.0042514
0.0037857
0.00343564
0.00317128
0.00296472
0.00279776
0.00266141
0.00255238
0.00247004
0.00241495
0.00239043
0.00239595
0.00241597
0.00244729
0.00248219
0.00249359
0.00243653
0.00229444
0.00208008
0.00131931
0.00236759
0.00588982
0.00871905
0.00978624
0.0103702
0.0106144
0.0104646
0.00995774
0.00918898
0.00827226
0.00733665
0.0064981
0.00579493
0.00520001
0.00463089
0.00409714
0.00365247
0.00331284
0.00306179
0.00286591
0.00270266
0.00256158
0.00244584
0.00235583
0.00229094
0.00225086
0.00223441
0.0022385
0.00227058
0.00232804
0.00240722
0.00250032
0.00258952
0.00265166
0.00263559
0.00267014
0.00271657
0.00134506
0.00209014
0.00221555
0.00230438
0.00246218
0.0023722
0.00226402
0.00219399
0.00210583
0.00198325
0.00182965
0.00165369
0.00146743
0.00128453
0.00112107
0.000992928
0.000901879
0.000839564
0.000797085
0.000768261
0.000749259
0.000737801
0.000732423
0.00073278
0.000739129
0.000750552
0.000766929
0.000788529
0.000815743
0.000849211
0.00089009
0.000937297
0.000990793
0.00105124
0.00111925
0.0011945
0.00128342
0.00131463
0.00128244
0.00120476
0.00112317
)
;

boundaryField
{
    floor
    {
        type            compressible::alphatWallFunction;
        Prt             0.85;
        value           nonuniform List<scalar> 
29
(
0.000199835
7.56948e-05
9.45376e-05
0.000105934
0.000104232
9.9996e-05
9.47955e-05
8.86533e-05
8.26369e-05
7.7146e-05
7.22246e-05
6.7824e-05
6.3876e-05
6.03425e-05
5.7138e-05
5.41554e-05
5.12472e-05
4.81856e-05
4.60307e-05
4.10239e-05
4.10233e-05
5.72032e-05
6.75778e-05
7.54407e-05
0.000199833
7.56938e-05
8.37826e-05
0.00017151
0.000237223
)
;
    }
    ceiling
    {
        type            compressible::alphatWallFunction;
        Prt             0.85;
        value           nonuniform List<scalar> 
43
(
0.000288739
0.000304942
0.000316363
0.000336656
0.00032522
0.000311373
0.00030237
0.000290984
0.00027506
0.000254949
0.00023168
0.000206743
0.000181908
0.000159369
0.000141436
0.00012853
0.000119609
0.000113483
0.000109305
0.00010654
0.000104868
0.000104083
0.000104136
0.000105063
0.00010673
0.000109113
0.000112248
0.000116182
0.000120999
0.000126853
0.000133573
0.00014114
0.000149633
0.000159123
0.000169545
0.000181764
0.00018603
0.000181632
0.000170961
0.000159672
0.000468476
0.000548889
0.0003243
)
;
    }
    sWall
    {
        type            compressible::alphatWallFunction;
        Prt             0.85;
        value           uniform 0.000287529;
    }
    nWall
    {
        type            compressible::alphatWallFunction;
        Prt             0.85;
        value           nonuniform List<scalar> 6(0.000129253 0.000134658 0.000151962 0.000186344 0.00018985 0.00015935);
    }
    sideWalls
    {
        type            empty;
    }
    glass1
    {
        type            compressible::alphatWallFunction;
        Prt             0.85;
        value           nonuniform List<scalar> 9(0.000170678 0.000230937 0.000279917 0.000326192 0.000372708 0.000421327 0.000465211 0.000473639 0.000461791);
    }
    glass2
    {
        type            compressible::alphatWallFunction;
        Prt             0.85;
        value           nonuniform List<scalar> 2(0.000233751 0.000220888);
    }
    sun
    {
        type            compressible::alphatWallFunction;
        Prt             0.85;
        value           nonuniform List<scalar> 
14
(
0.000174925
0.000190449
0.000193638
0.000202463
0.00021056
0.000218054
0.000225299
0.000232657
0.000238039
0.000240667
0.000239758
0.000234759
0.000225635
0.000213286
)
;
    }
    heatsource1
    {
        type            compressible::alphatWallFunction;
        Prt             0.85;
        value           nonuniform List<scalar> 3(9.4807e-05 0.000115475 0.000129555);
    }
    heatsource2
    {
        type            compressible::alphatWallFunction;
        Prt             0.85;
        value           nonuniform List<scalar> 4(0.000203065 0.00012619 0.000126189 0.000196906);
    }
    Table_master
    {
        type            compressible::alphatWallFunction;
        Prt             0.85;
        value           nonuniform List<scalar> 9(0.000128075 0.00011327 0.000101209 9.13415e-05 8.31975e-05 7.64115e-05 7.07188e-05 6.59482e-05 6.20315e-05);
    }
    Table_slave
    {
        type            compressible::alphatWallFunction;
        Prt             0.85;
        value           nonuniform List<scalar> 9(0.000143943 0.000131391 0.000122345 0.000115426 0.000109522 0.000104043 9.87636e-05 9.31901e-05 8.66609e-05);
    }
    inlet
    {
        type            fixedValue;
        value           uniform 1.94e-05;
    }
    outlet
    {
        type            zeroGradient;
    }
}


// ************************************************************************* //
