// -*- C++ -*-
// File generated by PyFoam - sorry for the ugliness

FoamFile
{
 version 2.0;
 format ascii;
 class volScalarField;
 location "700";
 object T;
}

dimensions [ 0 0 0 1 0 0 0 ];

internalField nonuniform List<scalar> 459
(
  303.608
  303.349
  303.336
  303.333
  303.329
  303.325
  303.32
  303.315
  303.307
  303.296
  303.284
  303.272
  303.262
  303.256
  303.256
  303.336
  303.315
  303.307
  303.309
  303.312
  303.315
  303.318
  303.322
  303.325
  303.328
  303.331
  303.335
  303.338
  303.341
  303.343
  303.346
  303.35
  303.354
  303.371
  303.783
  303.392
  303.369
  303.372
  303.375
  303.376
  303.374
  303.368
  303.355
  303.334
  303.308
  303.283
  303.262
  303.248
  303.24
  303.237
  303.236
  303.336
  303.3
  303.294
  303.295
  303.299
  303.302
  303.303
  303.304
  303.306
  303.307
  303.307
  303.308
  303.309
  303.31
  303.312
  303.315
  303.32
  303.328
  303.355
  303.966
  303.443
  303.404
  303.414
  303.428
  303.439
  303.445
  303.442
  303.423
  303.388
  303.343
  303.3
  303.267
  303.245
  303.236
  303.234
  303.236
  303.278
  303.278
  303.285
  303.293
  303.301
  303.307
  303.307
  303.307
  303.307
  303.307
  303.306
  303.306
  303.306
  303.306
  303.307
  303.309
  303.312
  303.319
  303.348
  304.15
  303.505
  303.44
  303.455
  303.482
  303.509
  303.529
  303.532
  303.505
  303.449
  303.379
  303.316
  303.269
  303.24
  303.23
  303.231
  303.236
  303.246
  303.257
  303.274
  303.29
  303.305
  303.318
  303.328
  303.336
  303.343
  303.349
  303.354
  303.359
  303.362
  303.365
  303.366
  303.367
  303.347
  303.331
  303.323
  303.347
  304.328
  303.584
  303.481
  303.49
  303.526
  303.57
  303.61
  303.619
  303.578
  303.498
  303.401
  303.32
  303.263
  303.232
  303.222
  303.227
  303.239
  303.255
  303.273
  303.295
  303.316
  303.334
  303.35
  303.362
  303.372
  303.381
  303.388
  303.394
  303.397
  303.398
  303.397
  303.393
  303.387
  303.371
  303.35
  303.333
  303.343
  303.408
  303.452
  303.459
  304.488
  303.686
  303.553
  303.539
  303.572
  303.624
  303.68
  303.678
  303.613
  303.511
  303.4
  303.306
  303.244
  303.214
  303.21
  303.225
  303.247
  303.273
  303.3
  303.327
  303.351
  303.372
  303.388
  303.4
  303.409
  303.417
  303.423
  303.427
  303.428
  303.427
  303.422
  303.415
  303.404
  303.389
  303.367
  303.347
  303.344
  303.372
  303.388
  303.421
  304.635
  303.849
  303.715
  303.681
  303.692
  303.732
  303.755
  303.708
  303.603
  303.472
  303.347
  303.253
  303.199
  303.184
  303.198
  303.229
  303.267
  303.305
  303.341
  303.371
  303.395
  303.414
  303.428
  303.438
  303.445
  303.45
  303.454
  303.456
  303.455
  303.452
  303.444
  303.433
  303.421
  303.405
  303.385
  303.365
  303.355
  303.363
  303.372
  303.4
  304.848
  304.26
  304.113
  304.021
  303.97
  303.931
  303.833
  303.678
  303.5
  303.336
  303.215
  303.147
  303.129
  303.151
  303.196
  303.253
  303.309
  303.356
  303.395
  303.421
  303.44
  303.454
  303.464
  303.471
  303.475
  303.478
  303.48
  303.479
  303.477
  303.473
  303.465
  303.454
  303.441
  303.427
  303.412
  303.397
  303.392
  303.404
  303.423
  303.546
  305.153
  304.877
  304.619
  304.384
  304.171
  303.934
  303.629
  303.343
  303.131
  303.01
  302.973
  302.999
  303.067
  303.151
  303.236
  303.319
  303.38
  303.419
  303.446
  303.465
  303.478
  303.487
  303.493
  303.498
  303.5
  303.501
  303.501
  303.5
  303.498
  303.496
  303.495
  303.495
  303.498
  303.505
  303.519
  303.542
  303.573
  303.605
  303.627
  303.679
  296.457
  298.502
  299.755
  300.449
  301.064
  301.609
  302.07
  302.442
  302.73
  302.953
  303.142
  303.274
  303.357
  303.413
  303.449
  303.473
  303.489
  303.5
  303.508
  303.513
  303.517
  303.52
  303.521
  303.523
  303.524
  303.525
  303.526
  303.527
  303.529
  303.532
  303.537
  303.545
  303.558
  303.577
  303.6
  303.622
  303.64
  303.659
  297.116
  299.008
  300.362
  301.262
  301.839
  302.272
  302.614
  302.878
  303.074
  303.216
  303.32
  303.393
  303.441
  303.473
  303.493
  303.507
  303.517
  303.523
  303.528
  303.531
  303.534
  303.536
  303.539
  303.54
  303.542
  303.544
  303.545
  303.547
  303.549
  303.551
  303.555
  303.561
  303.571
  303.583
  303.598
  303.616
  303.613
  303.641
  299.711
  299.633
  299.629
  301.429
  302.231
  302.626
  302.864
  303.038
  303.172
  303.273
  303.349
  303.405
  303.446
  303.473
  303.492
  303.504
  303.511
  303.517
  303.521
  303.524
  303.527
  303.529
  303.532
  303.535
  303.538
  303.54
  303.543
  303.545
  303.548
  303.551
  303.553
  303.556
  303.559
  303.563
  303.569
  303.578
  303.588
  303.593
  303.594
  303.633
)
;

boundaryField
{
  floor
  {
    type wallHeatTransfer;
    Tinf uniform 305.2;
    alphaWall uniform 0.24;
    value nonuniform List<scalar> 29
(
  303.443
  303.693
  303.629
  303.599
  303.603
  303.614
  303.628
  303.645
  303.662
  303.68
  303.697
  303.713
  303.729
  303.744
  303.758
  303.772
  303.787
  303.803
  303.817
  303.855
  303.855
  303.769
  303.727
  303.702
  303.443
  303.693
  303.671
  303.486
  303.41
)
;
  }
  ceiling
  {
    type wallHeatTransfer;
    Tinf uniform 303.2;
    alphaWall uniform 0.24;
    value nonuniform List<scalar> 43
(
  299.958
  299.875
  299.863
  301.539
  302.293
  302.664
  302.887
  303.05
  303.174
  303.267
  303.337
  303.386
  303.42
  303.442
  303.455
  303.463
  303.467
  303.47
  303.472
  303.474
  303.476
  303.478
  303.48
  303.483
  303.486
  303.489
  303.492
  303.496
  303.499
  303.503
  303.507
  303.511
  303.516
  303.522
  303.528
  303.539
  303.548
  303.552
  303.551
  303.583
  305.063
  304.81
  297.507
)
;
  }
  sWall
  {
    type wallHeatTransfer;
    Tinf uniform 315.2;
    alphaWall uniform 0.36;
    value uniform 301.308;
  }
  nWall
  {
    type wallHeatTransfer;
    Tinf uniform 307.2;
    alphaWall uniform 0.36;
    value nonuniform List<scalar> 6
(
  304.164
  304.114
  304.04
  304.173
  304.15
  304.214
)
;
  }
  sideWalls
  {
    type empty;
  }
  glass1
  {
    type wallHeatTransfer;
    Tinf uniform 315.2;
    alphaWall uniform 4.3;
    value nonuniform List<scalar> 9
(
  311.566
  310.933
  310.533
  310.227
  309.971
  309.74
  309.568
  309.638
  309.862
)
;
  }
  glass2
  {
    type wallHeatTransfer;
    Tinf uniform 307.2;
    alphaWall uniform 4.3;
    value nonuniform List<scalar> 2
(
  305.825
  305.917
)
;
  }
  sun
  {
    type wallHeatTransfer;
    Tinf uniform 305.2;
    alphaWall uniform 0.24;
    value nonuniform List<scalar> 14
(
  303.778
  303.534
  303.52
  303.51
  303.501
  303.493
  303.484
  303.475
  303.465
  303.453
  303.443
  303.434
  303.431
  303.434
)
;
  }
  heatsource1
  {
    type fixedGradient;
    gradient uniform 0;
  }
  heatsource2
  {
    type fixedGradient;
    gradient uniform 0;
  }
  Table_master
  {
    type zeroGradient;
  }
  Table_slave
  {
    type zeroGradient;
  }
  inlet
  {
    type fixedValue;
    value uniform 293.15;
  }
  outlet
  {
    type zeroGradient;
  }
} 	// ************************************************************************* //

