// -*- C++ -*-
// File generated by PyFoam - sorry for the ugliness

FoamFile
{
 version 2.0;
 format ascii;
 class volScalarField;
 location "1000";
 object T;
}

dimensions [ 0 0 0 1 0 0 0 ];

internalField nonuniform List<scalar> 459
(
  303.548
  303.29
  303.277
  303.273
  303.269
  303.265
  303.261
  303.255
  303.246
  303.235
  303.223
  303.212
  303.205
  303.202
  303.205
  303.301
  303.28
  303.272
  303.275
  303.279
  303.283
  303.287
  303.292
  303.296
  303.3
  303.304
  303.308
  303.312
  303.316
  303.32
  303.324
  303.328
  303.335
  303.354
  303.721
  303.332
  303.309
  303.312
  303.314
  303.315
  303.312
  303.305
  303.289
  303.266
  303.241
  303.217
  303.2
  303.191
  303.188
  303.185
  303.183
  303.301
  303.263
  303.258
  303.261
  303.267
  303.271
  303.274
  303.276
  303.278
  303.279
  303.281
  303.283
  303.284
  303.287
  303.289
  303.293
  303.3
  303.309
  303.339
  303.903
  303.383
  303.345
  303.355
  303.369
  303.379
  303.383
  303.376
  303.351
  303.311
  303.267
  303.228
  303.201
  303.187
  303.183
  303.184
  303.185
  303.244
  303.243
  303.249
  303.26
  303.271
  303.28
  303.28
  303.28
  303.28
  303.281
  303.282
  303.282
  303.283
  303.284
  303.285
  303.288
  303.293
  303.301
  303.332
  304.086
  303.446
  303.381
  303.397
  303.425
  303.452
  303.47
  303.464
  303.425
  303.361
  303.293
  303.236
  303.198
  303.181
  303.178
  303.183
  303.189
  303.201
  303.215
  303.235
  303.256
  303.276
  303.293
  303.306
  303.318
  303.328
  303.337
  303.345
  303.351
  303.357
  303.362
  303.365
  303.367
  303.342
  303.32
  303.31
  303.332
  304.264
  303.525
  303.424
  303.435
  303.474
  303.519
  303.557
  303.549
  303.49
  303.396
  303.306
  303.235
  303.191
  303.172
  303.172
  303.183
  303.198
  303.217
  303.238
  303.263
  303.289
  303.312
  303.333
  303.349
  303.364
  303.377
  303.387
  303.396
  303.402
  303.404
  303.404
  303.401
  303.394
  303.375
  303.347
  303.324
  303.331
  303.408
  303.456
  303.461
  304.425
  303.628
  303.497
  303.488
  303.526
  303.583
  303.629
  303.6
  303.514
  303.403
  303.297
  303.217
  303.171
  303.156
  303.166
  303.188
  303.215
  303.245
  303.275
  303.306
  303.335
  303.36
  303.381
  303.398
  303.412
  303.423
  303.432
  303.439
  303.442
  303.442
  303.437
  303.43
  303.418
  303.399
  303.372
  303.344
  303.337
  303.368
  303.386
  303.421
  304.574
  303.791
  303.661
  303.634
  303.654
  303.704
  303.695
  303.614
  303.488
  303.353
  303.239
  303.164
  303.131
  303.135
  303.164
  303.205
  303.249
  303.29
  303.328
  303.362
  303.39
  303.413
  303.432
  303.446
  303.457
  303.466
  303.472
  303.476
  303.476
  303.473
  303.465
  303.454
  303.439
  303.42
  303.396
  303.369
  303.354
  303.362
  303.373
  303.401
  304.789
  304.203
  304.06
  303.977
  303.939
  303.866
  303.723
  303.539
  303.355
  303.206
  303.109
  303.07
  303.08
  303.121
  303.181
  303.248
  303.307
  303.356
  303.395
  303.424
  303.447
  303.464
  303.478
  303.488
  303.495
  303.5
  303.503
  303.503
  303.501
  303.496
  303.488
  303.476
  303.462
  303.445
  303.426
  303.407
  303.399
  303.411
  303.429
  303.549
  305.096
  304.82
  304.565
  304.329
  304.089
  303.752
  303.41
  303.137
  302.966
  302.895
  302.902
  302.965
  303.056
  303.152
  303.247
  303.336
  303.392
  303.43
  303.458
  303.479
  303.495
  303.506
  303.515
  303.521
  303.524
  303.525
  303.525
  303.523
  303.521
  303.517
  303.514
  303.513
  303.514
  303.519
  303.532
  303.553
  303.583
  303.614
  303.635
  303.687
  296.28
  298.028
  299.205
  300.16
  300.943
  301.587
  302.098
  302.487
  302.784
  303.021
  303.199
  303.307
  303.381
  303.433
  303.468
  303.492
  303.51
  303.523
  303.532
  303.538
  303.542
  303.545
  303.546
  303.546
  303.546
  303.546
  303.546
  303.546
  303.547
  303.548
  303.552
  303.559
  303.571
  303.589
  303.611
  303.634
  303.654
  303.676
  296.922
  298.72
  300.21
  301.239
  301.885
  302.35
  302.694
  302.947
  303.128
  303.261
  303.358
  303.423
  303.467
  303.498
  303.519
  303.533
  303.544
  303.551
  303.556
  303.559
  303.561
  303.562
  303.563
  303.564
  303.564
  303.565
  303.565
  303.566
  303.566
  303.568
  303.571
  303.576
  303.584
  303.596
  303.611
  303.629
  303.629
  303.658
  299.723
  299.645
  299.64
  301.501
  302.317
  302.703
  302.927
  303.093
  303.219
  303.315
  303.387
  303.441
  303.48
  303.506
  303.524
  303.536
  303.543
  303.549
  303.552
  303.555
  303.557
  303.558
  303.56
  303.561
  303.563
  303.564
  303.566
  303.567
  303.569
  303.571
  303.572
  303.574
  303.576
  303.58
  303.584
  303.593
  303.602
  303.608
  303.61
  303.65
)
;

boundaryField
{
  floor
  {
    type wallHeatTransfer;
    Tinf uniform 305.2;
    alphaWall uniform 0.24;
    value nonuniform List<scalar> 29
(
  303.399
  303.658
  303.596
  303.564
  303.567
  303.577
  303.59
  303.607
  303.626
  303.644
  303.662
  303.68
  303.696
  303.713
  303.728
  303.743
  303.759
  303.777
  303.792
  303.833
  303.833
  303.752
  303.711
  303.687
  303.399
  303.658
  303.642
  303.46
  303.367
)
;
  }
  ceiling
  {
    type wallHeatTransfer;
    Tinf uniform 303.2;
    alphaWall uniform 0.24;
    value nonuniform List<scalar> 43
(
  299.971
  299.886
  299.875
  301.607
  302.374
  302.736
  302.946
  303.1
  303.218
  303.306
  303.371
  303.418
  303.451
  303.471
  303.484
  303.492
  303.497
  303.499
  303.501
  303.502
  303.503
  303.504
  303.505
  303.506
  303.508
  303.51
  303.512
  303.514
  303.517
  303.52
  303.523
  303.527
  303.531
  303.536
  303.542
  303.553
  303.561
  303.566
  303.566
  303.599
  305.009
  304.755
  297.329
)
;
  }
  sWall
  {
    type wallHeatTransfer;
    Tinf uniform 315.2;
    alphaWall uniform 0.36;
    value uniform 301.324;
  }
  nWall
  {
    type wallHeatTransfer;
    Tinf uniform 307.2;
    alphaWall uniform 0.36;
    value nonuniform List<scalar> 6
(
  304.163
  304.111
  304.033
  304.185
  304.163
  304.227
)
;
  }
  sideWalls
  {
    type empty;
  }
  glass1
  {
    type wallHeatTransfer;
    Tinf uniform 315.2;
    alphaWall uniform 4.3;
    value nonuniform List<scalar> 9
(
  311.495
  310.867
  310.472
  310.172
  309.921
  309.694
  309.527
  309.6
  309.827
)
;
  }
  glass2
  {
    type wallHeatTransfer;
    Tinf uniform 307.2;
    alphaWall uniform 4.3;
    value nonuniform List<scalar> 2
(
  305.819
  305.915
)
;
  }
  sun
  {
    type wallHeatTransfer;
    Tinf uniform 305.2;
    alphaWall uniform 0.24;
    value nonuniform List<scalar> 14
(
  303.721
  303.477
  303.462
  303.452
  303.443
  303.434
  303.425
  303.416
  303.405
  303.394
  303.384
  303.378
  303.378
  303.384
)
;
  }
  heatsource1
  {
    type fixedGradient;
    gradient uniform 0;
  }
  heatsource2
  {
    type fixedGradient;
    gradient uniform 0;
  }
  Table_master
  {
    type zeroGradient;
  }
  Table_slave
  {
    type zeroGradient;
  }
  inlet
  {
    type fixedValue;
    value uniform 293.15;
  }
  outlet
  {
    type zeroGradient;
  }
} 	// ************************************************************************* //

