/*--------------------------------*- C++ -*----------------------------------*\
  =========                 |
  \\      /  F ield         | OpenFOAM: The Open Source CFD Toolbox
   \\    /   O peration     | Website:  https://openfoam.org
    \\  /    A nd           | Version:  6
     \\/     M anipulation  |
\*---------------------------------------------------------------------------*/
FoamFile
{
    version     2.0;
    format      ascii;
    class       volScalarField;
    location    "400";
    object      alphat;
}
// * * * * * * * * * * * * * * * * * * * * * * * * * * * * * * * * * * * * * //

dimensions      [1 -1 -1 0 0 0 0];

internalField   nonuniform List<scalar> 
459
(
0.000825704
0.000853277
0.000795627
0.000826309
0.00085854
0.000888827
0.000917377
0.000944954
0.000972663
0.00100118
0.00102551
0.00104437
0.00105689
0.00106264
0.00105738
0.000387777
0.000429661
0.00044334
0.000359629
0.000280677
0.000251232
0.000242719
0.00026352
0.00029002
0.00032148
0.000353137
0.000380375
0.000396011
0.000403064
0.000417915
0.000443994
0.000478246
0.00049878
0.000436943
0.00138125
0.00242629
0.00183824
0.00237852
0.00259997
0.00282632
0.00305901
0.00327954
0.00346107
0.00358129
0.00364299
0.00360757
0.00341106
0.00294907
0.00211571
0.00113884
0.000746106
0.000537031
0.00113199
0.00128094
0.00117308
0.000822027
0.000508886
0.000394275
0.000498702
0.000688885
0.000912055
0.00112711
0.00131439
0.00145047
0.00156154
0.00168412
0.0018466
0.00172891
0.00175958
0.000518282
0.00187962
0.00399332
0.00194278
0.00338193
0.00387419
0.00414027
0.00436897
0.00456461
0.00472005
0.00482484
0.0048866
0.00486257
0.00468094
0.00423068
0.00340227
0.00227235
0.00120384
0.00089427
0.00235619
0.00207071
0.00165703
0.0011916
0.000788833
0.000356256
0.000383846
0.000422541
0.000461554
0.000501884
0.000545516
0.000596311
0.000659097
0.00074452
0.00187382
0.00162272
0.00129118
0.000742797
0.00235741
0.00600253
0.00216097
0.00354834
0.00451355
0.00479156
0.00497395
0.00512783
0.00526386
0.00538108
0.00550719
0.00563049
0.00569024
0.00556228
0.00504699
0.00394844
0.00239075
0.00123712
0.00296771
0.00313449
0.00271419
0.0021349
0.00161964
0.00113747
0.00075129
0.000743685
0.000739363
0.000738035
0.000742056
0.000754955
0.000781334
0.00082806
0.000915822
0.00283218
0.0031464
0.00294014
0.00104374
0.00280424
0.00820407
0.00288736
0.00318714
0.004633
0.00496799
0.0050957
0.0051863
0.00527371
0.00537646
0.00555745
0.00585086
0.00624098
0.00667315
0.00703861
0.00719663
0.00704268
0.00658567
0.00631936
0.00584698
0.0053602
0.00495311
0.00460718
0.0043056
0.00403694
0.00384163
0.00364451
0.003455
0.00330091
0.00321467
0.00321584
0.0033021
0.00345703
0.0036774
0.00378096
0.00371972
0.0032769
0.00144401
0.00128124
0.00111872
0.00322436
0.010187
0.00439999
0.00289479
0.00417454
0.0047162
0.00489339
0.00495852
0.00497388
0.00498602
0.00513833
0.00544708
0.0059257
0.00656784
0.00728954
0.00792377
0.00827533
0.00824051
0.0079303
0.00750146
0.00708116
0.00671871
0.00640814
0.00612721
0.00584137
0.00552619
0.00516908
0.00478005
0.0044005
0.00409569
0.00391453
0.00385341
0.00386416
0.00388407
0.00386899
0.00378294
0.00350788
0.00290489
0.00220212
0.00116645
0.00361718
0.0116224
0.00703878
0.00374067
0.00323627
0.00379608
0.00434366
0.00465939
0.00472285
0.00464793
0.00471916
0.00490269
0.00523654
0.00577902
0.00652155
0.00732516
0.00796834
0.00829297
0.00830989
0.00813446
0.00788831
0.00764047
0.0074124
0.0072005
0.00698336
0.00673495
0.00642603
0.00602705
0.00553857
0.00502528
0.00458859
0.00427968
0.00407728
0.00391911
0.00373986
0.00348065
0.00308834
0.00258851
0.00205673
0.00114978
0.00370793
0.011765
0.00904574
0.006727
0.0048284
0.00401779
0.0041336
0.00451041
0.00458769
0.0045281
0.00450534
0.00454814
0.00467642
0.00493499
0.00538451
0.00603181
0.00674952
0.00734047
0.00770055
0.00783872
0.00784108
0.00778033
0.0076971
0.00761196
0.0075319
0.00745634
0.00736927
0.00722488
0.00695789
0.00654507
0.00605798
0.00555886
0.00508947
0.00464748
0.00421299
0.00378913
0.00333179
0.00292562
0.00260358
0.00153802
0.00359454
0.00430287
0.00525465
0.00541334
0.00507376
0.00461338
0.0042999
0.00415836
0.004097
0.00409578
0.00412781
0.00417694
0.00424351
0.00434699
0.00452885
0.00484053
0.0052956
0.00582445
0.0063154
0.006696
0.00695737
0.00712122
0.0072175
0.00727518
0.0073208
0.00738138
0.00748034
0.00762027
0.00775601
0.00777855
0.00761088
0.00730017
0.00698058
0.00681554
0.00681451
0.00655676
0.00568449
0.004611
0.00481501
0.00176647
0.00566221
0.00770043
0.00621651
0.00548675
0.00501809
0.00470164
0.00448123
0.00431305
0.00418585
0.00409226
0.00402858
0.0039978
0.00401245
0.00409561
0.00427402
0.00455797
0.00492163
0.00530898
0.00566427
0.00595607
0.00617872
0.00634445
0.00647513
0.00659833
0.0067454
0.0069445
0.00719415
0.00744814
0.00763812
0.00768176
0.00757447
0.00741054
0.00724962
0.0069964
0.00636341
0.005373
0.00473388
0.00174157
0.00363379
0.00792537
0.00646177
0.00569575
0.005182
0.00480593
0.00452917
0.004317
0.00412813
0.00397607
0.00387001
0.0038172
0.00382471
0.00389969
0.0040475
0.00426711
0.00454451
0.00484242
0.00511088
0.00533625
0.00551718
0.00565921
0.00577026
0.00585821
0.0059304
0.00599426
0.00605985
0.00613785
0.00622018
0.00627866
0.00627892
0.00621395
0.00609466
0.00578896
0.00525598
0.00440303
0.00423128
0.00160352
0.00224485
0.00260627
0.00305404
0.00316771
0.00275756
0.00248394
0.00226602
0.00208057
0.00191842
0.00177686
0.00165828
0.00155602
0.00146686
0.00138965
0.00132455
0.00127249
0.0012345
0.0012111
0.00120162
0.00120486
0.00121821
0.00123402
0.00124798
0.00125841
0.00126531
0.00126942
0.0012718
0.00127365
0.00127654
0.00128198
0.00128965
0.00129747
0.00130128
0.00129525
0.00127293
0.00124343
0.00120944
0.00116592
0.00119757
0.00114374
)
;

boundaryField
{
    floor
    {
        type            compressible::alphatWallFunction;
        Prt             0.85;
        value           nonuniform List<scalar> 
29
(
0.000150386
5.17471e-05
5.8327e-05
6.04592e-05
4.72744e-05
3.44654e-05
2.95717e-05
2.81439e-05
3.16235e-05
3.60033e-05
4.11357e-05
4.62342e-05
5.0574e-05
5.30478e-05
5.41596e-05
5.64927e-05
6.05655e-05
6.58661e-05
6.90201e-05
5.94695e-05
5.94687e-05
7.20009e-05
0.000105457
0.000148471
0.000150385
5.17464e-05
7.48474e-05
0.000127299
0.000175292
)
;
    }
    ceiling
    {
        type            compressible::alphatWallFunction;
        Prt             0.85;
        value           nonuniform List<scalar> 
43
(
0.000309019
0.000355141
0.000411363
0.000425513
0.00037426
0.000339627
0.000311754
0.000287807
0.00026668
0.000248075
0.000232366
0.000218718
0.000206736
0.000196294
0.000187439
0.00018032
0.000175105
0.000171882
0.000170573
0.000171017
0.000172854
0.000175028
0.000176945
0.000178376
0.00017932
0.000179883
0.000180209
0.000180461
0.000180856
0.000181598
0.000182646
0.000183715
0.000184234
0.000183409
0.000180353
0.000176305
0.000171628
0.000165617
0.000169989
0.000162546
0.000478207
0.000564143
0.000482915
)
;
    }
    sWall
    {
        type            compressible::alphatWallFunction;
        Prt             0.85;
        value           uniform 0.000307952;
    }
    nWall
    {
        type            compressible::alphatWallFunction;
        Prt             0.85;
        value           nonuniform List<scalar> 6(0.00015876 0.000165379 0.000163071 0.000243039 0.000224697 0.000162233);
    }
    sideWalls
    {
        type            empty;
    }
    glass1
    {
        type            compressible::alphatWallFunction;
        Prt             0.85;
        value           nonuniform List<scalar> 9(0.000114382 0.000190682 0.000256359 0.000317684 0.000373935 0.000426029 0.00047414 0.000485302 0.000471708);
    }
    glass2
    {
        type            compressible::alphatWallFunction;
        Prt             0.85;
        value           nonuniform List<scalar> 2(0.00021489 0.000245174);
    }
    sun
    {
        type            compressible::alphatWallFunction;
        Prt             0.85;
        value           nonuniform List<scalar> 
14
(
0.000117535
0.000121482
0.000113176
0.000117605
0.000122238
0.000126571
0.000130641
0.000134557
0.000138479
0.000142501
0.000145922
0.000148567
0.000150321
0.000151123
)
;
    }
    heatsource1
    {
        type            compressible::alphatWallFunction;
        Prt             0.85;
        value           nonuniform List<scalar> 3(0.000203579 0.00018145 0.000159034);
    }
    heatsource2
    {
        type            compressible::alphatWallFunction;
        Prt             0.85;
        value           nonuniform List<scalar> 4(0.000161824 0.000106067 0.000106065 0.000170813);
    }
    Table_master
    {
        type            compressible::alphatWallFunction;
        Prt             0.85;
        value           nonuniform List<scalar> 9(4.68702e-05 5.12626e-05 5.73556e-05 6.34263e-05 6.96341e-05 7.62796e-05 8.39334e-05 9.32839e-05 0.000105834);
    }
    Table_slave
    {
        type            compressible::alphatWallFunction;
        Prt             0.85;
        value           nonuniform List<scalar> 9(0.000106823 0.000105714 0.000105083 0.000104889 0.000105476 0.000107355 0.000111188 0.000117939 0.000130501);
    }
    inlet
    {
        type            fixedValue;
        value           uniform 1.94e-05;
    }
    outlet
    {
        type            zeroGradient;
    }
}


// ************************************************************************* //
