/*--------------------------------*- C++ -*----------------------------------*\
  =========                 |
  \\      /  F ield         | OpenFOAM: The Open Source CFD Toolbox
   \\    /   O peration     | Website:  https://openfoam.org
    \\  /    A nd           | Version:  6
     \\/     M anipulation  |
\*---------------------------------------------------------------------------*/
FoamFile
{
    version     2.0;
    format      ascii;
    class       volScalarField;
    location    "1500";
    object      epsilon;
}
// * * * * * * * * * * * * * * * * * * * * * * * * * * * * * * * * * * * * * //

dimensions      [0 2 -3 0 0 0 0];

internalField   nonuniform List<scalar> 
459
(
0.0017736
0.00521024
0.00454986
0.00393885
0.00344189
0.0030279
0.00266173
0.00231581
0.00197229
0.00161577
0.00122626
0.00075429
9.10037e-05
2.195e-05
2.35344e-05
2.56525e-05
4.96032e-05
4.89849e-05
4.39506e-05
3.85657e-05
3.12227e-05
2.40389e-05
1.81524e-05
1.32132e-05
9.22456e-06
6.2675e-06
4.34405e-06
3.25658e-06
2.70443e-06
2.51576e-06
2.87163e-06
5.97571e-06
2.31615e-05
1.29449e-05
0.00737411
0.00647029
0.00505782
0.00386736
0.00304896
0.00251477
0.00216556
0.00192835
0.00174419
0.00154915
0.0012723
0.000840739
0.000263762
5.04402e-05
2.75987e-05
2.29085e-05
1.29003e-05
3.86573e-05
8.21536e-05
4.66032e-05
3.89266e-05
3.55594e-05
3.02312e-05
1.86304e-05
1.35916e-05
9.81693e-06
7.04796e-06
5.21814e-06
4.10633e-06
3.46536e-06
3.07478e-06
2.81179e-06
4.72656e-06
1.62366e-05
7.56664e-05
3.18003e-05
0.0100416
0.00869993
0.00573349
0.00380374
0.0028169
0.00224322
0.00188794
0.00167259
0.00153051
0.0013819
0.00114252
0.000758516
0.000286002
9.48969e-05
3.36026e-05
2.20153e-05
1.5365e-05
0.000110133
0.000108848
5.69186e-05
4.76377e-05
4.38455e-05
4.07629e-05
1.64943e-05
1.07119e-05
8.27251e-06
6.61426e-06
5.62594e-06
4.9606e-06
4.48258e-06
4.10649e-06
4.20478e-06
1.93484e-05
5.39976e-05
0.000204923
4.85609e-05
0.0117024
0.0108385
0.00542455
0.00278225
0.00183404
0.00149922
0.00138399
0.00133043
0.00127424
0.00116218
0.000937187
0.000639762
0.000308101
8.29612e-05
3.98021e-05
4.58487e-05
7.03097e-05
0.000148948
0.000118834
5.71094e-05
4.43353e-05
4.47854e-05
5.05597e-05
6.33247e-05
8.80936e-05
9.65759e-05
0.000108668
0.000123899
0.000143097
0.000166397
0.000178861
0.000177366
0.000156598
0.000111626
8.86941e-05
0.00017254
0.000131412
0.0131576
0.0128381
0.00416372
0.00155097
0.000859631
0.000895179
0.00100412
0.00104162
0.00101669
0.000918697
0.00074528
0.00054218
0.000251184
6.51097e-05
3.88884e-05
4.06405e-05
4.92496e-05
5.84804e-05
4.75057e-05
3.66734e-05
3.5522e-05
3.89521e-05
4.46075e-05
5.1547e-05
5.98364e-05
6.98119e-05
8.28376e-05
9.91964e-05
0.000119452
0.000144032
0.00016311
0.000169142
0.000154914
0.000117195
9.08083e-05
0.000106756
0.000119129
0.000124869
0.000119898
0.000196298
0.0147208
0.0145075
0.00287905
0.000852015
0.000585492
0.00066518
0.00076311
0.000805689
0.000790479
0.000717335
0.000597419
0.000437037
0.000167343
4.98627e-05
3.70706e-05
3.80155e-05
4.01012e-05
4.09537e-05
3.82605e-05
3.71526e-05
3.96103e-05
4.46586e-05
5.11139e-05
5.81238e-05
6.63676e-05
7.74507e-05
9.26318e-05
0.000112348
0.000136754
0.000166256
0.000199899
0.000229197
0.000239227
0.000207654
0.000140792
0.00011037
0.000104403
0.000105155
0.000231658
0.000245348
0.0167572
0.0157994
0.00405411
0.000687315
0.000491555
0.000533997
0.000599284
0.000631699
0.000621439
0.000569787
0.000481165
0.000331503
0.000112958
4.9147e-05
4.55982e-05
4.91415e-05
5.14264e-05
5.16432e-05
5.0794e-05
5.11447e-05
5.40332e-05
5.93786e-05
6.56925e-05
7.27795e-05
8.11945e-05
9.33503e-05
0.000111274
0.000135726
0.000167069
0.000206127
0.000254042
0.000307357
0.000357311
0.000397514
0.000315828
0.000262929
0.000275733
0.000338317
0.000524406
0.000482074
0.0199659
0.0209014
0.0121685
0.000772683
0.000450077
0.000456775
0.000498248
0.000518882
0.000508315
0.000466219
0.000388541
0.000245721
9.42556e-05
6.35068e-05
6.67488e-05
7.31285e-05
7.69883e-05
7.77451e-05
7.67404e-05
7.60052e-05
7.73232e-05
8.16465e-05
8.78675e-05
9.58707e-05
0.000105729
0.000120252
0.000142825
0.00017432
0.000215092
0.000266403
0.000333108
0.000416882
0.000519408
0.000659171
0.000876113
0.00111856
0.00161048
0.00233567
0.00485917
0.000945427
0.0266886
0.0397187
0.0571507
0.00641697
0.000624358
0.000471161
0.000465794
0.000466223
0.000446913
0.00040263
0.000326426
0.000200141
0.000111291
0.000103603
0.000112466
0.000119461
0.000122298
0.00012162
0.000118989
0.000116138
0.00011476
0.000116037
0.000120377
0.000127673
0.000138874
0.000156352
0.000187174
0.000229362
0.00028261
0.000343486
0.000419335
0.000511858
0.000607737
0.000696387
0.000792823
0.000921334
0.00107818
0.00122322
0.00135896
0.000840094
0.141466
0.0291579
0.00178697
0.000647862
0.000520435
0.000486862
0.00045349
0.000403924
0.000337063
0.000229275
0.000189533
0.00020647
0.000222851
0.000228431
0.000226119
0.000220497
0.000213265
0.000205813
0.000199623
0.000195869
0.000195107
0.000197444
0.000204831
0.000219891
0.000248684
0.000297291
0.000370208
0.000436355
0.000498484
0.00059619
0.00075982
0.000975813
0.00117404
0.00130192
0.00138974
0.00150757
0.00123535
0.000674448
0.029424
0.00311089
0.00165686
0.000657058
0.000510399
0.000466893
0.000431791
0.000378758
0.000290049
0.000250744
0.000292343
0.000356855
0.00039967
0.000416301
0.000415535
0.000405375
0.000392029
0.000379361
0.000370084
0.000366416
0.000369997
0.000382467
0.000404866
0.000440822
0.00049679
0.000578102
0.000679304
0.000757448
0.000775914
0.000752188
0.000767685
0.000849198
0.000952609
0.00103274
0.000997707
0.000915128
0.00105645
0.000705088
0.00218649
0.00488503
0.0126026
0.000931921
0.000563248
0.000540806
0.000588887
0.00060292
0.000588602
0.000523184
0.000436091
0.000372083
0.000332858
0.000313861
0.000309073
0.000309065
0.000309458
0.000308593
0.000306165
0.000302766
0.000299487
0.000296575
0.000294659
0.000294354
0.000296346
0.000301812
0.000311944
0.000326926
0.000344136
0.000354783
0.000350359
0.000331856
0.000315004
0.000340069
0.000441868
0.000553862
0.000576889
0.000489212
0.00043765
0.000346232
)
;

boundaryField
{
    floor
    {
        Cmu             0.09;
        kappa           0.41;
        E               9.8;
        type            epsilonWallFunction;
        value           nonuniform List<scalar> 
29
(
2.35344e-05
2.56525e-05
4.96032e-05
4.89849e-05
4.39506e-05
3.85657e-05
3.12227e-05
2.40389e-05
1.81524e-05
1.32132e-05
9.22456e-06
6.2675e-06
4.34405e-06
3.25658e-06
2.70443e-06
2.51576e-06
2.87163e-06
5.97571e-06
2.31615e-05
1.29449e-05
1.29449e-05
3.18003e-05
4.85609e-05
0.000131412
2.35344e-05
2.56525e-05
3.86573e-05
0.000110133
0.000148948
)
;
    }
    ceiling
    {
        Cmu             0.09;
        kappa           0.41;
        E               9.8;
        type            epsilonWallFunction;
        value           nonuniform List<scalar> 
43
(
0.00218649
0.00488503
0.0126026
0.000931921
0.000563248
0.000540806
0.000588887
0.00060292
0.000588602
0.000523184
0.000436091
0.000372083
0.000332858
0.000313861
0.000309073
0.000309065
0.000309458
0.000308593
0.000306165
0.000302766
0.000299487
0.000296575
0.000294659
0.000294354
0.000296346
0.000301812
0.000311944
0.000326926
0.000344136
0.000354783
0.000350359
0.000331856
0.000315004
0.000340069
0.000441868
0.000553862
0.000576889
0.000489212
0.00043765
0.000346232
0.0266886
0.0397187
0.029424
)
;
    }
    sWall
    {
        Cmu             0.09;
        kappa           0.41;
        E               9.8;
        type            epsilonWallFunction;
        value           uniform 0.00218649;
    }
    nWall
    {
        Cmu             0.09;
        kappa           0.41;
        E               9.8;
        type            epsilonWallFunction;
        value           nonuniform List<scalar> 6(0.000196298 0.000245348 0.000482074 0.000674448 0.000705088 0.000346232);
    }
    sideWalls
    {
        type            empty;
    }
    glass1
    {
        Cmu             0.09;
        kappa           0.41;
        E               9.8;
        type            epsilonWallFunction;
        value           nonuniform List<scalar> 9(0.0017736 0.00737411 0.0100416 0.0117024 0.0131576 0.0147208 0.0167572 0.0199659 0.0266886);
    }
    glass2
    {
        Cmu             0.09;
        kappa           0.41;
        E               9.8;
        type            epsilonWallFunction;
        value           nonuniform List<scalar> 2(0.000945427 0.000840094);
    }
    sun
    {
        Cmu             0.09;
        kappa           0.41;
        E               9.8;
        type            epsilonWallFunction;
        value           nonuniform List<scalar> 
14
(
0.0017736
0.00521024
0.00454986
0.00393885
0.00344189
0.0030279
0.00266173
0.00231581
0.00197229
0.00161577
0.00122626
0.00075429
9.10037e-05
2.195e-05
)
;
    }
    heatsource1
    {
        Cmu             0.09;
        kappa           0.41;
        E               9.8;
        type            epsilonWallFunction;
        value           nonuniform List<scalar> 3(0.000124869 0.000119898 0.000196298);
    }
    heatsource2
    {
        Cmu             0.09;
        kappa           0.41;
        E               9.8;
        type            epsilonWallFunction;
        value           nonuniform List<scalar> 4(2.29085e-05 1.29003e-05 1.29003e-05 1.5365e-05);
    }
    Table_master
    {
        Cmu             0.09;
        kappa           0.41;
        E               9.8;
        type            epsilonWallFunction;
        value           nonuniform List<scalar> 9(1.64943e-05 1.07119e-05 8.27251e-06 6.61426e-06 5.62594e-06 4.9606e-06 4.48258e-06 4.10649e-06 4.20478e-06);
    }
    Table_slave
    {
        Cmu             0.09;
        kappa           0.41;
        E               9.8;
        type            epsilonWallFunction;
        value           nonuniform List<scalar> 9(8.80936e-05 9.65759e-05 0.000108668 0.000123899 0.000143097 0.000166397 0.000178861 0.000177366 0.000156598);
    }
    inlet
    {
        type            turbulentMixingLengthDissipationRateInlet;
        mixingLength    0.01;
        phi             phi;
        k               k;
        value           uniform 3.77336e-06;
    }
    outlet
    {
        type            zeroGradient;
    }
}


// ************************************************************************* //
