/*--------------------------------*- C++ -*----------------------------------*\
  =========                 |
  \\      /  F ield         | OpenFOAM: The Open Source CFD Toolbox
   \\    /   O peration     | Website:  https://openfoam.org
    \\  /    A nd           | Version:  6
     \\/     M anipulation  |
\*---------------------------------------------------------------------------*/
FoamFile
{
    version     2.0;
    format      ascii;
    class       volScalarField;
    location    "520";
    object      epsilon;
}
// * * * * * * * * * * * * * * * * * * * * * * * * * * * * * * * * * * * * * //

dimensions      [0 2 -3 0 0 0 0];

internalField   nonuniform List<scalar> 
459
(
0.00022709
0.000297569
0.000322384
0.000373448
0.000425309
0.000479052
0.000537784
0.000600548
0.000654707
0.000689586
0.000692612
0.000653412
0.000566987
0.00042737
0.000185651
4.5931e-05
0.000117279
0.000109895
0.000103589
9.6422e-05
8.70795e-05
7.36195e-05
6.08959e-05
5.04724e-05
4.21728e-05
3.55787e-05
3.03155e-05
2.60331e-05
2.24646e-05
1.93875e-05
1.65896e-05
1.39285e-05
1.03887e-05
9.3486e-06
0.000539063
0.000758735
0.000274429
0.000269165
0.000279823
0.000299844
0.000332891
0.000379635
0.000429868
0.000469776
0.000484977
0.000466392
0.000415075
0.000345244
0.000240012
0.000328132
0.000119415
0.000140102
0.000268931
0.000143952
0.000107554
8.81429e-05
7.58525e-05
7.26681e-05
6.00693e-05
4.83866e-05
3.89178e-05
3.1461e-05
2.56829e-05
2.11804e-05
1.76808e-05
1.51937e-05
1.4028e-05
1.63499e-05
1.51265e-05
1.94804e-05
0.000955891
0.00176412
0.000311173
0.000243718
0.000250087
0.000275204
0.000317295
0.00037552
0.00043744
0.000486873
0.000512119
0.000505031
0.00046458
0.000400568
0.000323731
0.000282102
0.000337921
0.00024033
0.000194656
0.000148107
0.000118586
9.81188e-05
8.94817e-05
0.00019118
0.000129905
9.17201e-05
6.73051e-05
5.1156e-05
4.01579e-05
3.24738e-05
2.70572e-05
2.3397e-05
1.85065e-05
1.86196e-05
2.02339e-05
2.59378e-05
0.00151905
0.00357716
0.000444974
0.000231876
0.000229669
0.000259998
0.000313921
0.000392133
0.000465639
0.000519599
0.000550542
0.000550006
0.000511616
0.000446919
0.000380494
0.000332704
0.000302423
0.000568412
0.000350921
0.000234085
0.000171325
0.000133551
0.000109571
0.000101758
0.000256756
0.000196246
0.000162316
0.00014143
0.000126752
0.000114156
0.000101212
8.89225e-05
7.56665e-05
4.60201e-05
3.19124e-05
3.57582e-05
3.77179e-05
0.00228922
0.0063891
0.000811906
0.000244293
0.000212645
0.000248404
0.00033155
0.000455345
0.000538029
0.000589605
0.000619805
0.000615746
0.0005658
0.000482089
0.000390409
0.000314156
0.000263454
0.00024064
0.000212708
0.000185203
0.000159521
0.000136767
0.000117914
0.000104515
0.000105028
0.000100599
9.63183e-05
9.21526e-05
8.74617e-05
8.15187e-05
7.38967e-05
6.57054e-05
5.77982e-05
4.75197e-05
3.75785e-05
4.24447e-05
4.16023e-05
5.83699e-05
5.7774e-05
5.43394e-05
0.00336458
0.0096655
0.00179336
0.00038376
0.000243922
0.000267039
0.000430516
0.00060706
0.00067707
0.000713429
0.00073312
0.000718993
0.000650522
0.000535723
0.00040903
0.000305454
0.000241246
0.000211914
0.000196653
0.00018204
0.000165758
0.000148915
0.000133386
0.000121154
0.000115191
0.000113423
0.000112809
0.000111167
0.000107616
0.000101751
9.32147e-05
8.14227e-05
6.92841e-05
5.80617e-05
4.79301e-05
4.57372e-05
4.73549e-05
5.27469e-05
0.00016651
0.000119767
0.00472514
0.0118149
0.00402991
0.0012468
0.0006907
0.000608211
0.00082226
0.000899006
0.00090686
0.000905831
0.000905603
0.000873091
0.000774256
0.000618522
0.000452366
0.000322447
0.000248307
0.000218933
0.00020814
0.000198625
0.000186524
0.000173448
0.000161942
0.000154125
0.000151479
0.000152366
0.000152915
0.000150817
0.000145899
0.000139192
0.000131602
0.000122459
0.000108619
9.6117e-05
8.69974e-05
8.24237e-05
8.29599e-05
9.11525e-05
0.000262373
0.000204598
0.00515793
0.0148902
0.00759838
0.00439609
0.00275659
0.00206259
0.00167314
0.00140974
0.00125244
0.00118226
0.00115345
0.00109138
0.000942682
0.000727671
0.000514134
0.00036041
0.000281856
0.000254731
0.000246691
0.000240382
0.000232796
0.000225963
0.000221985
0.000221544
0.000223744
0.000225798
0.000224077
0.000216755
0.000205187
0.00019386
0.000188211
0.000191118
0.000200679
0.000210881
0.000236901
0.000280571
0.000352413
0.000435475
0.00157606
0.000436961
0.00488539
0.00858901
0.00653414
0.00483784
0.00360232
0.00276655
0.0021699
0.00178346
0.00158511
0.00152228
0.00149768
0.00139312
0.0011539
0.000848638
0.000588076
0.000436941
0.000379193
0.000361645
0.000358181
0.000358447
0.000359954
0.000362896
0.000368356
0.000375612
0.00038184
0.000382578
0.000372858
0.000349818
0.000315732
0.000279844
0.00025544
0.000251312
0.000270084
0.000310714
0.000374571
0.000469649
0.000597628
0.000754414
0.000924702
0.000506349
0.00183517
0.00232701
0.00231476
0.00212447
0.00196951
0.00193945
0.00199985
0.00208277
0.00206828
0.00183843
0.00141344
0.00100173
0.000805466
0.000734131
0.000721521
0.000726604
0.000736626
0.000749948
0.000763818
0.000775214
0.000787524
0.000800928
0.00081111
0.000810099
0.00078709
0.000731685
0.000640417
0.000525133
0.000417299
0.000347181
0.000315024
0.000318887
0.000359491
0.000436278
0.000540734
0.000648646
0.000751491
0.000695366
0.00108318
0.00243897
0.00276214
0.00294827
0.00327198
0.00344663
0.00362135
0.00377367
0.00371082
0.00328986
0.00272158
0.00223941
0.00198339
0.00187744
0.00185847
0.00188321
0.00192334
0.00196152
0.00198994
0.00200855
0.0020306
0.00206298
0.00210278
0.00213749
0.00214292
0.00208651
0.00194118
0.00170808
0.00143479
0.00115833
0.000918431
0.000739182
0.000629356
0.000582933
0.000578905
0.000603101
0.00135783
0.000950509
0.000903069
0.00105647
0.00119926
0.00160728
0.00158679
0.00144232
0.00134723
0.00144133
0.00159831
0.00172381
0.00175938
0.0016718
0.00152772
0.00140827
0.00132225
0.00127505
0.00125159
0.00123815
0.00122697
0.00121512
0.00120313
0.00119625
0.00119213
0.0011874
0.00117703
0.00115346
0.00110903
0.0010404
0.000953705
0.000866632
0.000783275
0.000712039
0.000656212
0.000617199
0.000595319
0.000587864
0.0005848
0.00056516
0.000572286
0.000526418
)
;

boundaryField
{
    floor
    {
        Cmu             0.09;
        kappa           0.41;
        E               9.8;
        type            epsilonWallFunction;
        value           nonuniform List<scalar> 
29
(
0.000185651
4.5931e-05
0.000117279
0.000109895
0.000103589
9.6422e-05
8.70795e-05
7.36195e-05
6.08959e-05
5.04724e-05
4.21728e-05
3.55787e-05
3.03155e-05
2.60331e-05
2.24646e-05
1.93875e-05
1.65896e-05
1.39285e-05
1.03887e-05
9.3486e-06
9.3486e-06
1.94804e-05
2.59378e-05
3.77179e-05
0.000185651
4.5931e-05
0.000140102
0.00024033
0.000568412
)
;
    }
    ceiling
    {
        Cmu             0.09;
        kappa           0.41;
        E               9.8;
        type            epsilonWallFunction;
        value           nonuniform List<scalar> 
43
(
0.000903069
0.00105647
0.00119926
0.00160728
0.00158679
0.00144232
0.00134723
0.00144133
0.00159831
0.00172381
0.00175938
0.0016718
0.00152772
0.00140827
0.00132225
0.00127505
0.00125159
0.00123815
0.00122697
0.00121512
0.00120313
0.00119625
0.00119213
0.0011874
0.00117703
0.00115346
0.00110903
0.0010404
0.000953705
0.000866632
0.000783275
0.000712039
0.000656212
0.000617199
0.000595319
0.000587864
0.0005848
0.00056516
0.000572286
0.000526418
0.00488539
0.00858901
0.00108318
)
;
    }
    sWall
    {
        Cmu             0.09;
        kappa           0.41;
        E               9.8;
        type            epsilonWallFunction;
        value           uniform 0.000903069;
    }
    nWall
    {
        Cmu             0.09;
        kappa           0.41;
        E               9.8;
        type            epsilonWallFunction;
        value           nonuniform List<scalar> 6(5.43394e-05 0.000119767 0.000204598 0.000695366 0.000950509 0.000526418);
    }
    sideWalls
    {
        type            empty;
    }
    glass1
    {
        Cmu             0.09;
        kappa           0.41;
        E               9.8;
        type            epsilonWallFunction;
        value           nonuniform List<scalar> 9(0.00022709 0.000539063 0.000955891 0.00151905 0.00228922 0.00336458 0.00472514 0.00515793 0.00488539);
    }
    glass2
    {
        Cmu             0.09;
        kappa           0.41;
        E               9.8;
        type            epsilonWallFunction;
        value           nonuniform List<scalar> 2(0.000436961 0.000506349);
    }
    sun
    {
        Cmu             0.09;
        kappa           0.41;
        E               9.8;
        type            epsilonWallFunction;
        value           nonuniform List<scalar> 
14
(
0.00022709
0.000297569
0.000322384
0.000373448
0.000425309
0.000479052
0.000537784
0.000600548
0.000654707
0.000689586
0.000692612
0.000653412
0.000566987
0.00042737
)
;
    }
    heatsource1
    {
        Cmu             0.09;
        kappa           0.41;
        E               9.8;
        type            epsilonWallFunction;
        value           nonuniform List<scalar> 3(5.83699e-05 5.7774e-05 5.43394e-05);
    }
    heatsource2
    {
        Cmu             0.09;
        kappa           0.41;
        E               9.8;
        type            epsilonWallFunction;
        value           nonuniform List<scalar> 4(0.000328132 0.000119415 0.000119415 0.000337921);
    }
    Table_master
    {
        Cmu             0.09;
        kappa           0.41;
        E               9.8;
        type            epsilonWallFunction;
        value           nonuniform List<scalar> 9(0.00019118 0.000129905 9.17201e-05 6.73051e-05 5.1156e-05 4.01579e-05 3.24738e-05 2.70572e-05 2.3397e-05);
    }
    Table_slave
    {
        Cmu             0.09;
        kappa           0.41;
        E               9.8;
        type            epsilonWallFunction;
        value           nonuniform List<scalar> 9(0.000256756 0.000196246 0.000162316 0.00014143 0.000126752 0.000114156 0.000101212 8.89225e-05 7.56665e-05);
    }
    inlet
    {
        type            turbulentMixingLengthDissipationRateInlet;
        mixingLength    0.01;
        phi             phi;
        k               k;
        value           uniform 0.000101881;
    }
    outlet
    {
        type            zeroGradient;
    }
}


// ************************************************************************* //
