/*--------------------------------*- C++ -*----------------------------------*\
  =========                 |
  \\      /  F ield         | OpenFOAM: The Open Source CFD Toolbox
   \\    /   O peration     | Website:  https://openfoam.org
    \\  /    A nd           | Version:  6
     \\/     M anipulation  |
\*---------------------------------------------------------------------------*/
FoamFile
{
    version     2.0;
    format      ascii;
    class       volScalarField;
    location    "900";
    object      epsilon;
}
// * * * * * * * * * * * * * * * * * * * * * * * * * * * * * * * * * * * * * //

dimensions      [0 2 -3 0 0 0 0];

internalField   nonuniform List<scalar> 
459
(
0.000439766
0.000572826
0.000604431
0.000695464
0.000787378
0.000880206
0.000977677
0.00108109
0.00115927
0.00119506
0.00117364
0.00108973
0.000952313
0.000787111
0.000630242
3.71124e-05
6.82977e-05
9.64498e-05
9.36897e-05
8.38623e-05
7.23379e-05
5.97356e-05
4.88561e-05
4.02115e-05
3.3445e-05
2.81236e-05
2.38938e-05
2.05083e-05
1.77516e-05
1.54365e-05
1.33978e-05
1.14716e-05
1.02281e-05
7.74355e-06
0.00111789
0.00161085
0.000542658
0.000526083
0.000551123
0.000591166
0.000649331
0.000727499
0.000803255
0.000853766
0.000859414
0.000812395
0.00071851
0.00060062
0.000521691
0.000662691
0.000142593
4.76729e-05
0.000117008
0.000121057
0.000108413
9.1233e-05
7.5639e-05
6.72634e-05
5.4454e-05
4.32501e-05
3.43768e-05
2.75228e-05
2.22468e-05
1.8191e-05
1.50789e-05
1.27963e-05
1.14197e-05
1.08193e-05
2.50049e-05
1.74524e-05
0.00204258
0.00395641
0.000679464
0.00050451
0.000527741
0.000591109
0.000684311
0.000802631
0.000914712
0.000987588
0.0010021
0.000956354
0.000860277
0.000734355
0.000625502
0.000563842
0.000636285
0.000384938
0.000266873
0.000197748
0.00015075
0.000117553
9.78324e-05
0.00017531
0.000121023
8.6595e-05
6.41315e-05
4.9e-05
3.84918e-05
3.10053e-05
2.55858e-05
2.16787e-05
1.64736e-05
1.37066e-05
4.46438e-05
2.70524e-05
0.00331166
0.00821258
0.00109268
0.000518128
0.000520703
0.000611128
0.000755372
0.000937527
0.00108681
0.00116709
0.00117223
0.00111135
0.000997591
0.000847648
0.000709912
0.000608328
0.000579234
0.00110788
0.000609819
0.000362758
0.000241191
0.000172634
0.000130671
0.000111089
0.000251177
0.000189932
0.000152859
0.000128126
0.000109355
9.38096e-05
8.03681e-05
6.77354e-05
5.48352e-05
3.24128e-05
2.10884e-05
6.97277e-05
3.64918e-05
0.00505899
0.0146128
0.00218756
0.000639424
0.000550307
0.000669009
0.000924933
0.0012018
0.00136567
0.00142271
0.00139481
0.00129991
0.00115023
0.000964814
0.000774082
0.000604026
0.000474694
0.000411766
0.000328929
0.000255574
0.000197774
0.000154376
0.000122842
0.000102514
9.88774e-05
9.18576e-05
8.48547e-05
7.80092e-05
7.08885e-05
6.33958e-05
5.60273e-05
4.90909e-05
4.27316e-05
3.39938e-05
2.58441e-05
5.15251e-05
4.04893e-05
6.89269e-05
0.000122213
0.000172389
0.00748654
0.0216528
0.00492954
0.00128695
0.000873417
0.00100107
0.00147861
0.00174241
0.00182195
0.00179792
0.00170926
0.00156285
0.00135998
0.00111619
0.00086283
0.000634893
0.000460496
0.000348992
0.000276393
0.000220836
0.00017534
0.000139934
0.000114279
9.78512e-05
9.01869e-05
8.68359e-05
8.46715e-05
8.20078e-05
7.78077e-05
7.12186e-05
6.22675e-05
5.30038e-05
4.45408e-05
3.69533e-05
3.18544e-05
4.0431e-05
4.19228e-05
5.24316e-05
0.000225101
0.000195237
0.0102826
0.0258513
0.010091
0.00419797
0.00288443
0.00278698
0.00284189
0.00272624
0.00254367
0.00235139
0.00215022
0.00191511
0.00162815
0.00130108
0.000970588
0.000679878
0.000464447
0.000328764
0.000247299
0.000192933
0.000152605
0.000123639
0.000104819
9.48095e-05
9.19484e-05
9.32177e-05
9.5845e-05
9.84164e-05
9.98794e-05
9.86641e-05
9.16442e-05
8.08728e-05
7.01995e-05
6.10703e-05
5.72304e-05
6.31115e-05
7.92809e-05
0.000125886
0.000293472
0.000284498
0.0108962
0.0280446
0.0156744
0.0107483
0.00811649
0.00632256
0.00498733
0.00407874
0.00348002
0.00306484
0.00271915
0.00235757
0.00194048
0.00148897
0.00105395
0.000685655
0.00043198
0.000284285
0.000201514
0.000155809
0.00012611
0.000107461
9.75591e-05
9.45947e-05
9.68921e-05
0.000102732
0.000110942
0.000121264
0.000133825
0.000148534
0.000164362
0.000173729
0.000182013
0.000200194
0.000238466
0.000354526
0.000649908
0.00123219
0.0036728
0.00109383
0.0100515
0.0167721
0.0133611
0.0101426
0.00782154
0.00627201
0.00527376
0.00464464
0.00421681
0.00383782
0.00339992
0.00285081
0.00220054
0.001551
0.000986328
0.000540315
0.000313694
0.000208079
0.000153469
0.000122646
0.000104386
9.46254e-05
9.11823e-05
9.25834e-05
9.78175e-05
0.000106298
0.000118024
0.000133695
0.000154618
0.000182668
0.000220321
0.000271247
0.000341236
0.000447031
0.00060329
0.000816838
0.00106394
0.00128302
0.00145149
0.000911751
0.00369923
0.00570497
0.006569
0.00666178
0.00647181
0.00608951
0.00547918
0.00465671
0.00369797
0.00265379
0.00157976
0.000889971
0.000496106
0.000282819
0.000182445
0.000133968
0.000108718
9.46545e-05
8.68543e-05
8.32534e-05
8.25917e-05
8.42033e-05
8.78732e-05
9.3778e-05
0.000102409
0.000114671
0.000131951
0.000156282
0.000190646
0.000239372
0.000307424
0.000401608
0.0005256
0.000669071
0.000795928
0.000856392
0.000817926
0.000524825
0.00280337
0.00639304
0.0071248
0.00590965
0.00529068
0.00460822
0.00369568
0.00273954
0.00189882
0.00124033
0.00074381
0.000434715
0.000266143
0.000181984
0.000143385
0.000125916
0.00011786
0.000113909
0.000111716
0.000110336
0.000109508
0.000109347
0.000110337
0.000113163
0.000118374
0.000126772
0.000139564
0.000158567
0.000186494
0.000226738
0.000283778
0.000362179
0.000462559
0.00057716
0.000663552
0.000757177
0.000755081
0.000555492
0.00199675
0.00237576
0.00267221
0.00333069
0.00300729
0.00263316
0.00241057
0.00212914
0.00176775
0.00137762
0.00101067
0.00070352
0.000471151
0.000316356
0.000224245
0.000171043
0.000139189
0.000119117
0.000106075
9.76595e-05
9.25382e-05
8.99468e-05
8.95218e-05
9.13068e-05
9.54637e-05
0.00010181
0.000110703
0.000122696
0.000138648
0.000159981
0.000187183
0.000221591
0.000265279
0.000320869
0.000390733
0.000486293
0.00052078
0.000482407
0.00040018
0.000323974
)
;

boundaryField
{
    floor
    {
        Cmu             0.09;
        kappa           0.41;
        E               9.8;
        type            epsilonWallFunction;
        value           nonuniform List<scalar> 
29
(
0.000630242
3.71124e-05
6.82977e-05
9.64498e-05
9.36897e-05
8.38623e-05
7.23379e-05
5.97356e-05
4.88561e-05
4.02115e-05
3.3445e-05
2.81236e-05
2.38938e-05
2.05083e-05
1.77516e-05
1.54365e-05
1.33978e-05
1.14716e-05
1.02281e-05
7.74355e-06
7.74355e-06
1.74524e-05
2.70524e-05
3.64918e-05
0.000630242
3.71124e-05
4.76729e-05
0.000384938
0.00110788
)
;
    }
    ceiling
    {
        Cmu             0.09;
        kappa           0.41;
        E               9.8;
        type            epsilonWallFunction;
        value           nonuniform List<scalar> 
43
(
0.00199675
0.00237576
0.00267221
0.00333069
0.00300729
0.00263316
0.00241057
0.00212914
0.00176775
0.00137762
0.00101067
0.00070352
0.000471151
0.000316356
0.000224245
0.000171043
0.000139189
0.000119117
0.000106075
9.76595e-05
9.25382e-05
8.99468e-05
8.95218e-05
9.13068e-05
9.54637e-05
0.00010181
0.000110703
0.000122696
0.000138648
0.000159981
0.000187183
0.000221591
0.000265279
0.000320869
0.000390733
0.000486293
0.00052078
0.000482407
0.00040018
0.000323974
0.0100515
0.0167721
0.00280337
)
;
    }
    sWall
    {
        Cmu             0.09;
        kappa           0.41;
        E               9.8;
        type            epsilonWallFunction;
        value           uniform 0.00199675;
    }
    nWall
    {
        Cmu             0.09;
        kappa           0.41;
        E               9.8;
        type            epsilonWallFunction;
        value           nonuniform List<scalar> 6(0.000172389 0.000195237 0.000284498 0.000524825 0.000555492 0.000323974);
    }
    sideWalls
    {
        type            empty;
    }
    glass1
    {
        Cmu             0.09;
        kappa           0.41;
        E               9.8;
        type            epsilonWallFunction;
        value           nonuniform List<scalar> 9(0.000439766 0.00111789 0.00204258 0.00331166 0.00505899 0.00748654 0.0102826 0.0108962 0.0100515);
    }
    glass2
    {
        Cmu             0.09;
        kappa           0.41;
        E               9.8;
        type            epsilonWallFunction;
        value           nonuniform List<scalar> 2(0.00109383 0.000911751);
    }
    sun
    {
        Cmu             0.09;
        kappa           0.41;
        E               9.8;
        type            epsilonWallFunction;
        value           nonuniform List<scalar> 
14
(
0.000439766
0.000572826
0.000604431
0.000695464
0.000787378
0.000880206
0.000977677
0.00108109
0.00115927
0.00119506
0.00117364
0.00108973
0.000952313
0.000787111
)
;
    }
    heatsource1
    {
        Cmu             0.09;
        kappa           0.41;
        E               9.8;
        type            epsilonWallFunction;
        value           nonuniform List<scalar> 3(6.89269e-05 0.000122213 0.000172389);
    }
    heatsource2
    {
        Cmu             0.09;
        kappa           0.41;
        E               9.8;
        type            epsilonWallFunction;
        value           nonuniform List<scalar> 4(0.000662691 0.000142593 0.000142593 0.000636285);
    }
    Table_master
    {
        Cmu             0.09;
        kappa           0.41;
        E               9.8;
        type            epsilonWallFunction;
        value           nonuniform List<scalar> 9(0.00017531 0.000121023 8.6595e-05 6.41315e-05 4.9e-05 3.84918e-05 3.10053e-05 2.55858e-05 2.16787e-05);
    }
    Table_slave
    {
        Cmu             0.09;
        kappa           0.41;
        E               9.8;
        type            epsilonWallFunction;
        value           nonuniform List<scalar> 9(0.000251177 0.000189932 0.000152859 0.000128126 0.000109355 9.38096e-05 8.03681e-05 6.77354e-05 5.48352e-05);
    }
    inlet
    {
        type            turbulentMixingLengthDissipationRateInlet;
        mixingLength    0.01;
        phi             phi;
        k               k;
        value           uniform 0.000101881;
    }
    outlet
    {
        type            zeroGradient;
    }
}


// ************************************************************************* //
