/*--------------------------------*- C++ -*----------------------------------*\
  =========                 |
  \\      /  F ield         | OpenFOAM: The Open Source CFD Toolbox
   \\    /   O peration     | Website:  https://openfoam.org
    \\  /    A nd           | Version:  6
     \\/     M anipulation  |
\*---------------------------------------------------------------------------*/
FoamFile
{
    version     2.0;
    format      ascii;
    class       surfaceScalarField;
    location    "50";
    object      phi;
}
// * * * * * * * * * * * * * * * * * * * * * * * * * * * * * * * * * * * * * //

dimensions      [1 0 -1 0 0 0 0];

internalField   nonuniform List<scalar> 
852
(
0.00296126
-0.00297785
0.00411992
-0.00115896
0.00539641
-0.00127677
0.00626278
-0.000866654
0.00667707
-0.000414548
0.006814
-0.000137185
0.00678321
3.05395e-05
0.00662888
0.000154098
0.00637079
0.000257869
0.00601495
0.00035562
0.00554769
0.000467044
0.00492669
0.000620798
0.00405613
0.000870372
0.00267886
0.00137709
0.00267375
-0.000353377
0.000344685
-0.0002949
-5.93367e-05
0.000614357
-0.000910825
0.00157427
-0.000961803
0.00222544
-0.000653202
0.00249543
-0.000271836
0.00249384
1.8762e-07
0.00238499
0.000107912
0.00225354
0.000130936
0.0021425
0.000110808
0.00206527
7.71505e-05
0.0020108
5.44325e-05
0.00195601
5.47717e-05
0.00186882
8.71591e-05
0.00169475
0.000174023
0.00134569
0.00034901
0.000781018
0.000564603
2.97242e-05
0.000751218
2.01659e-05
0.00150724
-0.00453171
0.00305312
-0.00270518
0.00423536
-0.00245933
0.00484013
-0.00147174
0.0051251
-0.000699823
0.00521667
-0.000229043
0.00517066
7.62645e-05
0.00502587
0.000298616
0.00481128
0.000472189
0.00454007
0.000626578
0.00421348
0.000793397
0.00382777
0.00100628
0.0033949
0.00130303
0.00306386
0.00170793
0.00351988
0.00221756
0.00164977
0.00186991
0.00164962
-8.88538e-05
0.000414233
0.000461347
-0.000610174
0.00103979
-0.00149025
0.0015773
-0.00150082
0.00193713
-0.00101515
0.00205834
-0.00039543
0.00206106
-4.55381e-06
0.00206618
0.000101372
0.00205938
0.000136849
0.00205178
0.000117897
0.00204625
8.23943e-05
0.00204063
5.99017e-05
0.00203152
6.38024e-05
0.00200984
0.000108789
0.00192133
0.0002625
0.00155119
0.000719125
0.00104107
0.00107469
0.000603681
0.00118851
0.000599091
0.000728638
-0.00533641
0.00205603
-0.00403294
0.00290873
-0.00331239
0.0032155
-0.00177885
0.00333164
-0.000816305
0.00334059
-0.000238323
0.00327808
0.000138459
0.00318405
0.000392335
0.00307688
0.000579063
0.0029596
0.000743566
0.00283267
0.000920059
0.00270298
0.00113571
0.00259357
0.0014122
0.00253789
0.0017634
0.0025041
0.00225118
0.00182276
0.00255111
0.00347228
0.00025961
0.000124373
0.00146575
-0.00181649
0.00188972
-0.00191459
0.00202816
-0.00164004
0.00199929
-0.000987742
0.00149307
0.000108723
0.00148643
0.00158644
0.00172254
0.00184007
0.00192233
0.00198222
0.0020461
0.00215499
0.00241762
0.00177319
0.00136354
0.00135104
0.0014968
0.000955372
0.00158408
0.00151604
0.000162114
-0.00560433
0.000913162
-0.00478438
0.00137661
-0.00377623
0.00147855
-0.00188117
0.0014776
-0.000815716
0.00145088
-0.000211968
0.00144269
0.000146302
0.00146301
0.000371672
0.00149989
0.000541846
0.00154443
0.000698717
0.00159641
0.000867782
0.00166399
0.00106785
0.00176237
0.00131358
0.00190883
0.00161672
0.00216131
0.00199851
0.00253053
0.00218174
0.00381743
0.00218528
0.00303879
0.000745869
0.0036884
-0.000525217
0.00318308
-0.00131115
0.00292872
-0.00166028
0.00276078
-0.00147233
0.00271482
-0.000942429
0.00306304
-0.000240997
0.00290871
0.000152284
0.0025607
0.000345598
0.00203875
0.000519444
0.00145363
0.000583107
0.000961189
0.000491346
0.000640539
0.000320226
0.0004711
0.000169239
0.000390796
8.01454e-05
0.000313995
7.66442e-05
0.000909026
0.00076847
0.0011212
0.00128455
0.00117131
0.00153385
0.00263806
-0.000430159
-0.00530862
-0.000408559
-0.00480639
-8.79711e-05
-0.00409723
3.14763e-06
-0.00197269
-1.70189e-05
-0.000795934
-1.99229e-06
-0.000227382
6.88247e-05
7.50966e-05
0.000175236
0.000264882
0.000303693
0.000413029
0.000449081
0.000552992
0.00061429
0.000702264
0.000809074
0.000872792
0.00105218
0.00107023
0.00137894
0.00128975
0.00186473
0.00151254
0.00248069
0.00156564
0.00325382
0.00141204
0.00358866
0.000410962
0.00358573
-0.000522294
0.00335558
-0.00108098
0.00300766
-0.00131234
0.00269109
-0.00115583
0.00245375
-0.00070542
0.00228206
-7.01936e-05
0.00197601
0.000456857
0.00155447
0.0007653
0.00114152
0.000930664
0.000814043
0.000909448
0.000590464
0.000714451
0.000448864
0.000461692
0.000367158
0.000250914
0.000322649
0.000124646
0.000281997
0.000117285
0.000553778
0.000496642
0.000993213
0.000845025
0.00165062
0.000876321
0.00278501
0.00150354
0.00126603
0.00151867
-0.000446845
0.00171252
-0.000508913
-0.00108459
-0.00438564
-0.0014004
-0.00449101
-0.00116397
-0.00433412
-0.00105197
-0.00208512
-0.00101057
-0.00083776
-0.000941612
-0.000296766
-0.000831171
-3.57576e-05
-0.00068983
0.000123149
-0.00052458
0.000247414
-0.000335295
0.000363373
-0.000115244
0.000481915
0.000146904
0.000610383
0.000464698
0.000752215
0.000861135
0.000893127
0.00137243
0.0010011
0.0019636
0.000974377
0.00263225
0.000743345
0.00294485
9.83714e-05
0.00291221
-0.000489582
0.00268441
-0.000853099
0.00230817
-0.000936052
0.00188573
-0.000733473
0.00145173
-0.000271769
0.00106722
0.000313516
0.000757349
0.000765596
0.000497955
0.00102341
0.000327487
0.00110011
0.000249475
0.000986905
0.000220892
0.000742825
0.000207643
0.000474881
0.000200695
0.000257848
0.000198498
0.000126839
0.000202056
0.00011372
0.000388955
0.000309713
0.000683936
0.000549979
0.000869664
0.000690503
0.00101391
0.00135919
0.00048252
0.00204994
-0.000408491
0.00260339
-0.000978885
-0.00164184
-0.0029292
-0.00222683
-0.00390645
-0.00196124
-0.00460018
-0.0017484
-0.00229843
-0.00163603
-0.000950584
-0.00152815
-0.000405073
-0.00139748
-0.00016683
-0.00124126
-3.34423e-05
-0.00106357
6.93774e-05
-0.000862861
0.000162369
-0.000633101
0.000251897
-0.000362911
0.000339981
-3.48762e-05
0.000424014
0.000359305
0.000498828
0.000821396
0.00053895
0.00131867
0.000477108
0.00178291
0.00027917
0.00195929
-7.78692e-05
0.00186314
-0.000393294
0.00157081
-0.000560681
0.00113477
-0.000500036
0.000619351
-0.000218254
0.000155062
0.000191986
-0.000135273
0.00060327
-0.000277342
0.000906924
-0.000320524
0.00106586
-0.000282238
0.0010613
-0.000199199
0.000903606
-0.000115942
0.000659475
-5.2313e-05
0.000411228
-5.82938e-06
0.000211364
3.38615e-05
8.7155e-05
8.39177e-05
6.36692e-05
0.000217896
0.000175726
0.000391183
0.000376659
0.000445441
0.00063619
0.000456175
0.00134837
0.000143967
0.00236204
-6.12213e-05
0.00280846
-0.00109878
-0.00191155
-0.00122189
-0.00295328
-0.00286513
-0.00261226
-0.00494165
-0.00209669
-0.00281451
-0.00193539
-0.00111234
-0.0018472
-0.000493679
-0.0017382
-0.000276199
-0.0015988
-0.000173163
-0.00143339
-9.63007e-05
-0.00124545
-2.57828e-05
-0.00103361
3.98807e-05
-0.000791849
9.81025e-05
-0.000514224
0.000146328
-0.000195898
0.0001805
0.000154002
0.000189114
0.00048349
0.000147753
0.000710309
5.2525e-05
0.000723797
-9.1189e-05
0.000529896
-0.000199281
0.000164438
-0.000195224
-0.000289304
-4.65032e-05
-0.000692319
0.000184471
-0.000937225
0.000436622
-0.00102528
0.00069097
-0.00100114
0.00088236
-0.000894624
0.000958965
-0.000738027
0.000904456
-0.000575244
0.000740708
-0.00044021
0.000524407
-0.000341767
0.000312785
-0.000270431
0.000140045
-0.00020726
2.40105e-05
-0.000126551
-1.70156e-05
1.30278e-05
3.61588e-05
0.000201404
0.000188276
0.000380442
0.00045712
0.000684542
0.00104421
0.00110787
0.00193862
0.00209011
0.00182613
0.000604717
-0.00149533
-0.0044097
-0.00242685
-0.00692484
-0.00171377
-0.00352813
-0.00190911
-0.000917442
-0.00198283
-0.000420346
-0.00194831
-0.000311034
-0.00186574
-0.000255992
-0.00175569
-0.000206548
-0.00162356
-0.00015803
-0.00147147
-0.000112244
-0.00130198
-7.13468e-05
-0.00112011
-3.54504e-05
-0.00093676
-2.71031e-06
-0.000770437
2.29762e-05
-0.000652741
3.02662e-05
-0.000624823
2.47888e-05
-0.000728274
1.2355e-05
-0.00095246
2.49112e-05
-0.00123522
8.74767e-05
-0.00147923
0.000197421
-0.00163029
0.000335423
-0.0016841
0.000490278
-0.00163452
0.000641197
-0.00149799
0.000745627
-0.00130559
0.000766396
-0.00109577
0.000694535
-0.000907183
0.000552082
-0.000762488
0.000379716
-0.000663756
0.000214083
-0.000600155
7.64933e-05
-0.00054817
-2.79145e-05
-0.000480425
-8.46995e-05
-0.000356829
-8.73923e-05
-0.000146619
-2.19197e-05
0.000150344
0.000160145
0.000660353
0.000534155
0.00143981
0.00115911
0.0022422
0.00102368
0.00243288
0.00149853
-0.00215375
-0.00127139
-0.000758727
-0.00194097
-0.000248294
-0.00208299
-0.000278685
-0.00211114
-0.00028318
-0.00210408
-0.000263277
-0.00208139
-0.000229395
-0.00204861
-0.000190892
-0.0020076
-0.000153263
-0.00196056
-0.000118313
-0.00191153
-8.4348e-05
-0.00186899
-4.50636e-05
-0.00184687
1.05231e-06
-0.00185698
4.05738e-05
-0.00190581
7.37847e-05
-0.00199419
0.000100847
-0.00210191
0.000132693
-0.00219515
0.000180747
-0.00224485
0.000247107
-0.00223667
0.00032719
-0.00216166
0.000415197
-0.00201641
0.000495863
-0.00181454
0.000543663
-0.0015856
0.000537395
-0.00136537
0.000474278
-0.00118389
0.000370614
-0.00105559
0.000251456
-0.00097972
0.000138279
-0.000948133
4.49938e-05
-0.000944748
-3.11962e-05
-0.000949492
-7.98521e-05
-0.000930966
-0.00010583
-0.000852263
-0.000100566
-0.000699978
7.87686e-06
-0.00049767
0.000331838
-0.000251731
0.000913141
-5.56976e-05
0.000827631
0.00230702
-0.00228415
6.74038e-05
-0.00237092
-0.00067234
-0.00213178
-0.000487812
-0.00209291
-0.00031789
-0.0021322
-0.000244176
-0.00220123
-0.000194482
-0.00227866
-0.000152122
-0.00235495
-0.000114691
-0.00242711
-8.11294e-05
-0.00249509
-5.02904e-05
-0.00255813
-2.12152e-05
-0.00261079
7.72274e-06
-0.00264929
3.96966e-05
-0.00268432
7.57357e-05
-0.00271787
0.000107439
-0.00275041
0.000133465
-0.00277468
0.000157007
-0.00277647
0.000182561
-0.0027413
0.000211925
-0.00265854
0.000244412
-0.00252104
0.00027766
-0.00232977
0.000304563
-0.00210002
0.000313882
-0.00185978
0.000297143
-0.00164045
0.000254956
-0.00146649
0.000196701
-0.00135012
0.00013516
-0.00129243
8.06863e-05
-0.00128485
3.75447e-05
-0.00132553
9.62123e-06
-0.00140478
-4.57837e-07
-0.00151343
2.94584e-06
-0.00163179
1.78899e-05
-0.00168155
5.77022e-05
-0.00156874
0.000219059
-0.0011678
0.00051222
-0.0010158
0.000675649
0.00120173
-0.00200284
0.000116429
7.46142e-05
-0.000692956
-0.00127365
-0.00168285
-0.00201714
-0.00230093
-0.0025419
-0.00274526
-0.00291514
-0.00305448
-0.00316521
-0.00324753
-0.00329838
-0.0033138
-0.00329825
-0.0032575
-0.00319407
-0.00310586
-0.00298884
-0.00283959
-0.00265699
-0.002447
-0.00222686
-0.00202242
-0.00185906
-0.00175296
-0.00170765
-0.00171642
-0.00176832
-0.00184844
-0.00193903
-0.00202687
-0.00210059
-0.00213489
-0.00200654
-0.00158206
-0.000992523
)
;

boundaryField
{
    floor
    {
        type            calculated;
        value           nonuniform List<scalar> 
29
(
0
0
0
0
0
0
0
0
0
0
0
0
0
0
0
0
0
0
0
0
9.41825e-06
2.46645e-05
3.8307e-05
4.91724e-05
4.95329e-06
8.03294e-06
1.86991e-05
2.99378e-05
3.26905e-05
)
;
    }
    ceiling
    {
        type            calculated;
        value           nonuniform List<scalar> 
43
(
0.000173291
0.000189433
0.000109105
9.49074e-05
9.25206e-05
9.09743e-05
8.98131e-05
8.90662e-05
8.867e-05
8.85641e-05
8.8707e-05
8.90624e-05
8.95736e-05
9.01223e-05
9.06276e-05
9.12243e-05
9.19422e-05
9.2757e-05
9.35958e-05
9.43491e-05
9.49013e-05
9.5155e-05
9.50463e-05
9.45611e-05
9.37479e-05
9.2721e-05
9.16403e-05
9.06734e-05
8.9961e-05
8.96007e-05
8.96255e-05
8.99208e-05
9.03173e-05
9.09449e-05
9.17362e-05
9.20979e-05
9.07898e-05
8.77956e-05
8.61741e-05
9.43026e-05
5.27182e-05
4.88783e-05
6.26392e-05
)
;
    }
    sWall
    {
        type            calculated;
        value           uniform 0.000178095;
    }
    nWall
    {
        type            calculated;
        value           nonuniform List<scalar> 6(6.18545e-05 6.14544e-05 5.86429e-05 7.01706e-05 8.95249e-05 0.000114958);
    }
    sideWalls
    {
        type            empty;
        value           nonuniform 0();
    }
    glass1
    {
        type            calculated;
        value           nonuniform List<scalar> 9(1.62844e-05 4.62704e-05 7.56815e-05 0.000105413 0.000134038 0.000161199 0.000184971 0.000203827 0.000220336);
    }
    glass2
    {
        type            calculated;
        value           nonuniform List<scalar> 2(0.000386595 0.00041404);
    }
    sun
    {
        type            calculated;
        value           uniform 0;
    }
    heatsource1
    {
        type            calculated;
        value           nonuniform List<scalar> 3(1.99152e-07 1.99415e-07 1.99667e-07);
    }
    heatsource2
    {
        type            calculated;
        value           nonuniform List<scalar> 4(5.0434e-08 5.06511e-08 0 0);
    }
    Table_master
    {
        type            calculated;
        value           nonuniform List<scalar> 9(-1.50398e-07 -1.50123e-07 -1.49933e-07 -1.49825e-07 -1.49768e-07 -1.49737e-07 -1.49714e-07 -1.49682e-07 -1.49602e-07);
    }
    Table_slave
    {
        type            calculated;
        value           nonuniform List<scalar> 9(1.50304e-07 1.50169e-07 1.50011e-07 1.4991e-07 1.49908e-07 1.49981e-07 1.50058e-07 1.50106e-07 1.50129e-07);
    }
    inlet
    {
        type            calculated;
        value           uniform -0.00626977;
    }
    outlet
    {
        type            calculated;
        value           nonuniform List<scalar> 2(0.00165175 -0.00230844);
    }
}


// ************************************************************************* //
