/*--------------------------------*- C++ -*----------------------------------*\
  =========                 |
  \\      /  F ield         | OpenFOAM: The Open Source CFD Toolbox
   \\    /   O peration     | Website:  https://openfoam.org
    \\  /    A nd           | Version:  6
     \\/     M anipulation  |
\*---------------------------------------------------------------------------*/
FoamFile
{
    version     2.0;
    format      ascii;
    class       volScalarField;
    location    "1100";
    object      alphat;
}
// * * * * * * * * * * * * * * * * * * * * * * * * * * * * * * * * * * * * * //

dimensions      [1 -1 -1 0 0 0 0];

internalField   nonuniform List<scalar> 
459
(
0.00125368
0.00137081
0.00139645
0.00146359
0.00152577
0.00158398
0.00164105
0.00169678
0.00173608
0.00175256
0.00174035
0.00169581
0.00161876
0.00151567
0.00140252
0.000550561
0.000673202
0.000757078
0.000752103
0.000726063
0.000691979
0.000649342
0.000607121
0.000568788
0.000534734
0.00050456
0.000477733
0.000453864
0.00043242
0.000412639
0.000393527
0.000373626
0.000359372
0.000327273
0.00170684
0.00417361
0.00399611
0.00465156
0.00529592
0.00594031
0.00650888
0.00693727
0.00732453
0.00763914
0.00783719
0.00786888
0.0076583
0.00701476
0.00524724
0.00143017
0.000841685
0.000595428
0.00124875
0.00172283
0.00206024
0.00223742
0.00222737
0.00179179
0.00154608
0.00137007
0.00123487
0.00112734
0.00103986
0.000964509
0.000894327
0.000826287
0.00076582
0.000713238
0.000834841
0.000427406
0.00208333
0.00570052
0.00495951
0.00621865
0.00684816
0.00731617
0.00768042
0.00797161
0.00828695
0.00861522
0.00891764
0.00913942
0.00921975
0.00906883
0.00844783
0.00651393
0.00142269
0.00118786
0.00170494
0.00218109
0.00260243
0.00288474
0.00280115
0.000929542
0.000820908
0.000733642
0.000663226
0.000605853
0.000558607
0.000519395
0.00048688
0.000460507
0.000496173
0.000573595
0.000937911
0.000494151
0.00244416
0.00728448
0.0049757
0.00658219
0.0071352
0.00732573
0.00745158
0.00760391
0.00785646
0.008193
0.0085732
0.00892889
0.00919697
0.0093067
0.0091743
0.00850828
0.00622818
0.00170239
0.00211015
0.00272073
0.00330489
0.00376106
0.0040332
0.00376998
0.00104865
0.000954621
0.000887293
0.000836023
0.000792556
0.000752721
0.000714511
0.000674446
0.000628007
0.000589117
0.0006021
0.00107021
0.000545933
0.00281178
0.00931755
0.00547179
0.00634012
0.00707153
0.00712453
0.00706968
0.00715407
0.00737747
0.00771932
0.00814516
0.00856122
0.00888007
0.00903137
0.00899034
0.00870817
0.00798951
0.00660753
0.00613087
0.00596853
0.00590648
0.00586309
0.0057905
0.00555966
0.00469214
0.00427629
0.00403626
0.00385254
0.00365927
0.00337943
0.00299886
0.0025343
0.00201637
0.00149361
0.00110094
0.00110088
0.000732373
0.000672485
0.000814229
0.000913933
0.00320127
0.0115305
0.00753147
0.00631979
0.00687108
0.00712213
0.00696957
0.007038
0.00720612
0.00751168
0.00794068
0.00839579
0.00874598
0.00889041
0.0088062
0.00854805
0.0082045
0.0078461
0.00764027
0.00748345
0.00730636
0.00710749
0.00688927
0.00662219
0.00623345
0.00588862
0.00558433
0.00529256
0.00499421
0.00466812
0.00425455
0.00373784
0.0031182
0.00243131
0.00182269
0.00136002
0.00102326
0.000868463
0.00123737
0.000953508
0.00355516
0.0130753
0.010547
0.00815083
0.00771326
0.00761642
0.00735914
0.00719799
0.00725249
0.00755034
0.00802543
0.00853255
0.0089009
0.00901173
0.0088538
0.00854046
0.0082696
0.00817221
0.00817266
0.00808579
0.00786315
0.00754818
0.00717921
0.00677487
0.00635116
0.00595798
0.00559636
0.00525736
0.00494133
0.00465607
0.00440204
0.00405732
0.0035721
0.00297765
0.00240442
0.00188943
0.00151083
0.00138995
0.00141686
0.00108456
0.00362131
0.0116184
0.0103307
0.0095461
0.00884413
0.00803419
0.00740485
0.007159
0.00731957
0.00779866
0.00843191
0.00901002
0.00933787
0.00932331
0.00901385
0.00860418
0.00835471
0.00834334
0.00833573
0.00807223
0.00762726
0.00708805
0.00652279
0.00598683
0.00551632
0.00511875
0.00477908
0.00448932
0.00425362
0.00408199
0.00398428
0.00393343
0.00369266
0.00330648
0.00296327
0.00277795
0.00286713
0.00329574
0.00405962
0.00169138
0.00352151
0.00417899
0.00464186
0.0047582
0.00485917
0.00513474
0.00568649
0.00652292
0.00754584
0.00857759
0.0094277
0.009917
0.00992847
0.00952125
0.00891336
0.00849245
0.00824711
0.00802883
0.00767493
0.00712713
0.00646568
0.00578957
0.00517902
0.00467329
0.00427085
0.00394746
0.00367856
0.00344956
0.00325166
0.0030765
0.00291524
0.0027673
0.00265063
0.00256421
0.00252882
0.00253652
0.00252136
0.0024226
0.00226728
0.00159108
0.00175985
0.00360716
0.00585805
0.00772524
0.00917627
0.0102782
0.0109685
0.0112353
0.0111211
0.0106164
0.00982875
0.00885225
0.00802186
0.00749977
0.00707236
0.00655639
0.00593742
0.00528591
0.0046732
0.00414548
0.00372757
0.00340395
0.00314948
0.00294462
0.00277847
0.00264624
0.00254628
0.0024784
0.00244533
0.00244492
0.00246085
0.00248846
0.00251908
0.0025257
0.00246443
0.00232092
0.00210442
0.00132473
0.00235279
0.00604348
0.00899461
0.0101111
0.0106681
0.0108359
0.0105862
0.00999102
0.00917183
0.00824629
0.00737008
0.00658788
0.00595401
0.00541236
0.00486992
0.00434271
0.00388132
0.00351022
0.00322551
0.00300928
0.00283428
0.00268597
0.00255797
0.00245346
0.00237553
0.00232387
0.00229737
0.00229451
0.0023213
0.00237459
0.00245038
0.00254017
0.00262548
0.00268428
0.00266269
0.00269391
0.00273534
0.00135043
0.00208711
0.00221205
0.00230016
0.00246254
0.00237601
0.00227643
0.00221183
0.0021212
0.0019918
0.00183139
0.00165108
0.00146365
0.00128165
0.00112543
0.00100737
0.000923528
0.000864225
0.00082166
0.000791012
0.000769457
0.000755199
0.000747137
0.000744545
0.000747608
0.00075682
0.000771856
0.000792512
0.000819196
0.000852575
0.000893531
0.000941011
0.000995078
0.00105631
0.00112521
0.00120122
0.00129155
0.00132057
0.00128676
0.00120935
0.00112709
)
;

boundaryField
{
    floor
    {
        type            compressible::alphatWallFunction;
        Prt             0.85;
        value           nonuniform List<scalar> 
29
(
0.000197842
7.69464e-05
9.52662e-05
0.000107558
0.000106834
0.000103033
9.80335e-05
9.17368e-05
8.54514e-05
7.96983e-05
7.45471e-05
6.99484e-05
6.58311e-05
6.2143e-05
5.88088e-05
5.57142e-05
5.27062e-05
4.9554e-05
4.72831e-05
4.21251e-05
4.21245e-05
5.80262e-05
6.83545e-05
7.6246e-05
0.00019784
7.69454e-05
8.37009e-05
0.000168492
0.000238021
)
;
    }
    ceiling
    {
        type            compressible::alphatWallFunction;
        Prt             0.85;
        value           nonuniform List<scalar> 
43
(
0.000288346
0.000304492
0.000315822
0.000336705
0.000325712
0.000312971
0.000304673
0.000292977
0.000276177
0.00025518
0.000231334
0.000206235
0.000181515
0.000159977
0.000143472
0.000131615
0.000123151
0.000117035
0.000112607
0.000109481
0.000107407
0.000106233
0.000105855
0.000106302
0.000107644
0.00010983
0.000112825
0.000116681
0.000121483
0.000127344
0.0001341
0.000141744
0.000150343
0.000159951
0.000170472
0.000182876
0.00018684
0.000182222
0.000171595
0.000160216
0.00046922
0.000549186
0.000322398
)
;
    }
    sWall
    {
        type            compressible::alphatWallFunction;
        Prt             0.85;
        value           uniform 0.000287136;
    }
    nWall
    {
        type            compressible::alphatWallFunction;
        Prt             0.85;
        value           nonuniform List<scalar> 6(0.000129932 0.000135545 0.000153955 0.000187083 0.000190582 0.000159894);
    }
    sideWalls
    {
        type            empty;
    }
    glass1
    {
        type            compressible::alphatWallFunction;
        Prt             0.85;
        value           nonuniform List<scalar> 9(0.000173267 0.000233519 0.000282355 0.000328356 0.000374548 0.000422849 0.000466253 0.000474447 0.000462504);
    }
    glass2
    {
        type            compressible::alphatWallFunction;
        Prt             0.85;
        value           nonuniform List<scalar> 2(0.000235008 0.000221771);
    }
    sun
    {
        type            compressible::alphatWallFunction;
        Prt             0.85;
        value           nonuniform List<scalar> 
14
(
0.000177572
0.000193547
0.000197024
0.000206101
0.000214465
0.000222261
0.000229874
0.00023728
0.000242485
0.000244664
0.000243048
0.000237149
0.000226901
0.000213105
)
;
    }
    heatsource1
    {
        type            compressible::alphatWallFunction;
        Prt             0.85;
        value           nonuniform List<scalar> 3(9.52643e-05 0.000115947 0.000130235);
    }
    heatsource2
    {
        type            compressible::alphatWallFunction;
        Prt             0.85;
        value           nonuniform List<scalar> 4(0.000201706 0.000119901 0.0001199 0.000200691);
    }
    Table_master
    {
        type            compressible::alphatWallFunction;
        Prt             0.85;
        value           nonuniform List<scalar> 9(0.000132451 0.000116908 0.000104244 9.38935e-05 8.53609e-05 7.82597e-05 7.23091e-05 6.73321e-05 6.32644e-05);
    }
    Table_slave
    {
        type            compressible::alphatWallFunction;
        Prt             0.85;
        value           nonuniform List<scalar> 9(0.000149253 0.000136011 0.000126436 0.000119087 0.000112815 0.00010703 0.000101447 9.55537e-05 8.86691e-05);
    }
    inlet
    {
        type            fixedValue;
        value           uniform 1.94e-05;
    }
    outlet
    {
        type            zeroGradient;
    }
}


// ************************************************************************* //
