// -*- C++ -*-
// File generated by PyFoam - sorry for the ugliness

FoamFile
{
 version 2.0;
 format ascii;
 class volScalarField;
 location "900";
 object T;
}

dimensions [ 0 0 0 1 0 0 0 ];

internalField nonuniform List<scalar> 459
(
  303.011
  302.753
  302.732
  302.723
  302.714
  302.705
  302.698
  302.701
  302.73
  302.78
  302.814
  302.84
  302.861
  302.882
  302.911
  303.742
  303.66
  303.596
  303.574
  303.597
  303.625
  303.653
  303.683
  303.713
  303.742
  303.772
  303.802
  303.832
  303.863
  303.893
  303.926
  303.962
  304.007
  304.083
  303.162
  302.78
  302.741
  302.727
  302.715
  302.696
  302.67
  302.664
  302.704
  302.77
  302.822
  302.859
  302.882
  302.899
  302.915
  302.931
  302.959
  303.772
  303.673
  303.511
  303.502
  303.532
  303.573
  303.605
  303.638
  303.671
  303.705
  303.739
  303.773
  303.808
  303.843
  303.879
  303.917
  303.959
  304.012
  304.093
  303.328
  302.83
  302.775
  302.766
  302.755
  302.718
  302.657
  302.632
  302.684
  302.769
  302.845
  302.898
  302.926
  302.939
  302.945
  302.954
  302.968
  303.753
  303.513
  303.429
  303.442
  303.501
  303.567
  303.592
  303.625
  303.661
  303.699
  303.739
  303.78
  303.823
  303.868
  303.912
  303.953
  303.993
  304.039
  304.111
  303.501
  302.9
  302.833
  302.836
  302.835
  302.763
  302.649
  302.604
  302.664
  302.775
  302.884
  302.958
  302.994
  303.003
  303
  302.994
  302.992
  303.013
  303.109
  303.175
  303.274
  303.397
  303.52
  303.625
  303.708
  303.771
  303.824
  303.874
  303.923
  303.969
  304.014
  304.058
  304.1
  304.082
  304.072
  304.084
  304.133
  303.675
  302.994
  302.914
  302.935
  302.944
  302.803
  302.635
  302.578
  302.649
  302.795
  302.944
  303.047
  303.094
  303.101
  303.087
  303.071
  303.062
  303.086
  303.148
  303.248
  303.381
  303.527
  303.666
  303.784
  303.882
  303.955
  304.017
  304.068
  304.109
  304.144
  304.173
  304.194
  304.206
  304.184
  304.15
  304.135
  304.157
  304.278
  304.563
  304.538
  303.843
  303.117
  303.034
  303.074
  303.024
  302.808
  302.604
  302.544
  302.643
  302.84
  303.04
  303.177
  303.238
  303.244
  303.22
  303.198
  303.197
  303.244
  303.34
  303.468
  303.615
  303.761
  303.891
  303.999
  304.084
  304.151
  304.199
  304.237
  304.266
  304.289
  304.303
  304.309
  304.302
  304.271
  304.227
  304.195
  304.195
  304.261
  304.356
  304.421
  304.018
  303.299
  303.234
  303.259
  303.06
  302.741
  302.511
  302.49
  302.658
  302.931
  303.192
  303.364
  303.438
  303.435
  303.407
  303.393
  303.417
  303.499
  303.626
  303.767
  303.91
  304.041
  304.149
  304.234
  304.3
  304.342
  304.37
  304.392
  304.408
  304.418
  304.42
  304.412
  304.394
  304.356
  304.31
  304.274
  304.265
  304.301
  304.346
  304.405
  304.247
  303.722
  303.651
  303.422
  302.944
  302.507
  302.322
  302.433
  302.735
  303.117
  303.437
  303.623
  303.679
  303.669
  303.655
  303.666
  303.72
  303.83
  303.968
  304.107
  304.23
  304.33
  304.407
  304.461
  304.494
  304.513
  304.527
  304.536
  304.54
  304.538
  304.53
  304.514
  304.493
  304.467
  304.45
  304.457
  304.494
  304.534
  304.53
  304.561
  304.584
  304.323
  304.092
  303.144
  302.253
  301.893
  302.032
  302.487
  302.997
  303.494
  303.803
  303.916
  303.942
  303.948
  303.964
  304.006
  304.083
  304.194
  304.317
  304.429
  304.52
  304.586
  304.629
  304.655
  304.669
  304.676
  304.679
  304.68
  304.677
  304.67
  304.661
  304.652
  304.649
  304.658
  304.69
  304.754
  304.849
  304.948
  305.037
  305.164
  294.963
  296.202
  298.68
  300.692
  302.148
  303.269
  303.777
  304.033
  304.153
  304.206
  304.236
  304.265
  304.306
  304.365
  304.445
  304.537
  304.628
  304.705
  304.763
  304.802
  304.824
  304.836
  304.841
  304.842
  304.839
  304.834
  304.825
  304.813
  304.8
  304.788
  304.783
  304.789
  304.814
  304.863
  304.937
  305.02
  305.151
  305.278
  296.931
  300.199
  301.915
  303.021
  303.706
  304.109
  304.302
  304.406
  304.468
  304.512
  304.551
  304.593
  304.642
  304.699
  304.763
  304.829
  304.887
  304.934
  304.966
  304.986
  304.997
  305
  304.999
  304.995
  304.987
  304.976
  304.963
  304.947
  304.93
  304.914
  304.901
  304.896
  304.903
  304.928
  304.982
  305.061
  305.165
  305.265
  301.923
  301.846
  301.828
  303.488
  304.15
  304.414
  304.564
  304.667
  304.738
  304.791
  304.836
  304.875
  304.912
  304.949
  304.985
  305.022
  305.058
  305.089
  305.115
  305.133
  305.144
  305.148
  305.148
  305.143
  305.136
  305.126
  305.114
  305.101
  305.085
  305.07
  305.053
  305.038
  305.025
  305.015
  305.013
  305.024
  305.075
  305.169
  305.302
  305.546
)
;

boundaryField
{
  floor
  {
    type wallHeatTransfer;
    Tinf uniform 305.2;
    alphaWall uniform 0.24;
    value nonuniform List<scalar> 29
(
  303.141
  303.976
  303.879
  303.8
  303.766
  303.781
  303.807
  303.841
  303.877
  303.914
  303.949
  303.984
  304.018
  304.052
  304.085
  304.118
  304.152
  304.189
  304.236
  304.311
  304.311
  304.31
  304.323
  304.338
  303.141
  303.976
  304.007
  303.985
  303.213
)
;
  }
  ceiling
  {
    type wallHeatTransfer;
    Tinf uniform 303.2;
    alphaWall uniform 0.24;
    value nonuniform List<scalar> 43
(
  302.009
  301.932
  301.912
  303.472
  304.09
  304.333
  304.468
  304.557
  304.617
  304.662
  304.7
  304.735
  304.768
  304.801
  304.835
  304.868
  304.899
  304.926
  304.946
  304.959
  304.965
  304.966
  304.962
  304.956
  304.947
  304.936
  304.922
  304.907
  304.89
  304.871
  304.851
  304.833
  304.816
  304.803
  304.798
  304.807
  304.851
  304.935
  305.06
  305.298
  304.522
  304.278
  297.313
)
;
  }
  sWall
  {
    type wallHeatTransfer;
    Tinf uniform 315.2;
    alphaWall uniform 0.36;
    value uniform 303.227;
  }
  nWall
  {
    type wallHeatTransfer;
    Tinf uniform 307.2;
    alphaWall uniform 0.36;
    value nonuniform List<scalar> 6
(
  305.11
  305.008
  304.922
  305.565
  305.536
  305.796
)
;
  }
  sideWalls
  {
    type empty;
  }
  glass1
  {
    type wallHeatTransfer;
    Tinf uniform 315.2;
    alphaWall uniform 4.3;
    value nonuniform List<scalar> 9
(
  310.808
  310.26
  309.911
  309.644
  309.421
  309.227
  309.132
  309.238
  309.497
)
;
  }
  glass2
  {
    type wallHeatTransfer;
    Tinf uniform 307.2;
    alphaWall uniform 4.3;
    value nonuniform List<scalar> 2
(
  306.463
  306.563
)
;
  }
  sun
  {
    type wallHeatTransfer;
    Tinf uniform 305.2;
    alphaWall uniform 0.24;
    value nonuniform List<scalar> 14
(
  303.205
  302.952
  302.926
  302.908
  302.891
  302.876
  302.864
  302.864
  302.894
  302.95
  302.99
  303.026
  303.059
  303.094
)
;
  }
  heatsource1
  {
    type fixedGradient;
    gradient uniform 0;
  }
  heatsource2
  {
    type fixedGradient;
    gradient uniform 0;
  }
  Table_master
  {
    type zeroGradient;
  }
  Table_slave
  {
    type zeroGradient;
  }
  inlet
  {
    type fixedValue;
    value uniform 293.15;
  }
  outlet
  {
    type zeroGradient;
  }
} 	// ************************************************************************* //

