/*--------------------------------*- C++ -*----------------------------------*\
  =========                 |
  \\      /  F ield         | OpenFOAM: The Open Source CFD Toolbox
   \\    /   O peration     | Website:  https://openfoam.org
    \\  /    A nd           | Version:  6
     \\/     M anipulation  |
\*---------------------------------------------------------------------------*/
FoamFile
{
    version     2.0;
    format      ascii;
    class       volScalarField;
    location    "800";
    object      nut;
}
// * * * * * * * * * * * * * * * * * * * * * * * * * * * * * * * * * * * * * //

dimensions      [0 2 -1 0 0 0 0];

internalField   nonuniform List<scalar> 
459
(
0.000713988
0.000740443
0.000693496
0.000721183
0.000750067
0.000777516
0.000803794
0.000829651
0.000856216
0.000881928
0.00090269
0.000916148
0.000919477
0.000909258
0.000878781
0.000383837
0.000414787
0.000351886
0.00030183
0.000259157
0.000235846
0.000230791
0.000232987
0.000238596
0.000247511
0.000263458
0.000292624
0.000339416
0.000403899
0.000480448
0.000564735
0.000608612
0.00061729
0.000486534
0.00119229
0.00212197
0.00167399
0.0021759
0.00239056
0.00260794
0.00282906
0.00303722
0.00320786
0.00333864
0.00341816
0.00340773
0.00324288
0.0028188
0.00201086
0.00091234
0.000658048
0.000547408
0.00149127
0.00110177
0.000807942
0.000590452
0.000468571
0.000506541
0.000557102
0.000573791
0.000531459
0.000467573
0.000435492
0.000492291
0.000668061
0.000959138
0.00132438
0.0014347
0.00121462
0.0005657
0.00161232
0.00339556
0.00177263
0.00309073
0.00351962
0.00376057
0.00396708
0.00414349
0.00428444
0.00439404
0.00445408
0.00442287
0.00423215
0.00378371
0.00298828
0.00191487
0.000908134
0.000708395
0.00177626
0.00139636
0.00107471
0.000831721
0.000596812
0.000275015
0.000237475
0.000224513
0.000216591
0.000211774
0.000218592
0.000271031
0.000403953
0.000632992
0.00167717
0.00196132
0.00182634
0.000732707
0.00201481
0.00503846
0.00190794
0.00329533
0.004103
0.00436425
0.00455169
0.00471426
0.00485723
0.00497825
0.00509009
0.00516309
0.00513023
0.00487865
0.00426322
0.0031874
0.00182879
0.000910287
0.00148625
0.00170098
0.00140817
0.00121664
0.00108953
0.000954573
0.000814595
0.000847183
0.000884828
0.000925559
0.000967293
0.00100718
0.00104266
0.00107385
0.00109186
0.00190232
0.0023269
0.00231497
0.000894413
0.00239378
0.00687807
0.00245199
0.00300871
0.00425663
0.00458836
0.00476836
0.00492173
0.00506888
0.00522022
0.00541667
0.00568041
0.0059695
0.00619608
0.00624045
0.0059907
0.00540625
0.00454095
0.00362998
0.00336965
0.0032962
0.0033387
0.00339324
0.00340397
0.00343316
0.00352511
0.00366051
0.0038235
0.00398521
0.0041079
0.00415967
0.00414068
0.00403452
0.00388456
0.00366042
0.0033317
0.00238276
0.00100501
0.00086308
0.000903982
0.00275275
0.00857764
0.00368782
0.00266588
0.0038909
0.00442081
0.0046595
0.00480669
0.00490214
0.00498602
0.00517939
0.0055393
0.00604159
0.00661478
0.00713487
0.00744847
0.00742172
0.00702622
0.00640767
0.00581469
0.00545078
0.00524429
0.00508118
0.00495078
0.00484562
0.00478533
0.00478689
0.00483953
0.00489996
0.00490437
0.00480067
0.00458741
0.00432048
0.0040722
0.00393667
0.00389328
0.00366204
0.00299016
0.00206358
0.00104463
0.00309348
0.00983664
0.00593787
0.0032092
0.00293004
0.00352454
0.00407523
0.00441759
0.00455446
0.00448209
0.00457942
0.00485939
0.00533905
0.00600718
0.00676972
0.00745482
0.00787412
0.00792458
0.0076644
0.0072786
0.00692968
0.00665226
0.00642139
0.00621002
0.00600149
0.00581054
0.0056691
0.00559322
0.00554732
0.00543992
0.00517816
0.00474617
0.00425933
0.00388937
0.00371289
0.0036332
0.003485
0.00320429
0.00250121
0.00111777
0.00317641
0.0100268
0.0076905
0.00569704
0.00409301
0.00345139
0.00361942
0.00399298
0.00416396
0.00412021
0.00411382
0.00420741
0.00444174
0.0048687
0.00551364
0.00629477
0.00701119
0.00747009
0.00762102
0.00756228
0.00742874
0.00729098
0.00716115
0.00702955
0.00688498
0.00673605
0.00659761
0.0064928
0.00642153
0.00630117
0.00599345
0.00539393
0.00459678
0.00384958
0.00332572
0.00298391
0.00269628
0.00240724
0.0021048
0.00137013
0.00308574
0.00369906
0.00452718
0.00465351
0.00434649
0.0039399
0.00366492
0.00354117
0.00350212
0.00351441
0.00356486
0.00364504
0.00376482
0.00395701
0.00427554
0.00476109
0.00537038
0.00596461
0.00641643
0.0066997
0.00686161
0.00695274
0.00700358
0.00702775
0.00703505
0.00704323
0.00707448
0.00713825
0.00721596
0.00726131
0.00729442
0.00720575
0.00697656
0.00663938
0.00621524
0.0057086
0.0050911
0.00437217
0.00396741
0.00155641
0.00490878
0.00666168
0.00534087
0.0046928
0.0042764
0.00399577
0.00380447
0.00366752
0.00357088
0.0035093
0.00348168
0.00349459
0.00356605
0.00372531
0.00399807
0.00437534
0.00480029
0.00520397
0.00554403
0.00580315
0.00599535
0.00613941
0.0062532
0.0063572
0.00647879
0.00664933
0.00688781
0.00718331
0.00749406
0.00773845
0.00783475
0.00776718
0.00757384
0.00725381
0.0066527
0.00573686
0.00494385
0.00157297
0.0031481
0.00688964
0.00558353
0.00490417
0.00445047
0.00411928
0.00387664
0.00370205
0.00355378
0.00343618
0.00335699
0.00332212
0.00333745
0.00340997
0.00354677
0.00374874
0.00398831
0.00423033
0.00445725
0.00466054
0.00483392
0.00497682
0.00509368
0.00519333
0.00529008
0.00540554
0.00556742
0.00579876
0.00608964
0.00638823
0.00661943
0.0067242
0.00668216
0.00641504
0.00580023
0.00488212
0.00434192
0.00146201
0.00194118
0.0022545
0.00264708
0.0027646
0.00241047
0.00217204
0.00198434
0.00182678
0.0016908
0.00157129
0.00147076
0.00138478
0.00131038
0.00124626
0.00119216
0.0011484
0.00111547
0.00109366
0.00108465
0.00108695
0.00109526
0.00110586
0.00111628
0.00112548
0.00113341
0.00114069
0.0011485
0.00115861
0.00117352
0.00119621
0.00122912
0.00127202
0.00131985
0.00136221
0.00138528
0.00138656
0.00137061
0.00133014
0.0012932
0.00116314
)
;

boundaryField
{
    floor
    {
        type            nutkWallFunction;
        Cmu             0.09;
        kappa           0.41;
        E               9.8;
        value           nonuniform List<scalar> 
29
(
0.00010635
4.46388e-05
4.87269e-05
4.04207e-05
3.36657e-05
2.77763e-05
2.4496e-05
2.37744e-05
2.40804e-05
2.4866e-05
2.61114e-05
2.83255e-05
3.23354e-05
3.86698e-05
4.72268e-05
5.71715e-05
6.79007e-05
7.34254e-05
7.45367e-05
5.80084e-05
5.80083e-05
6.80186e-05
8.87312e-05
0.000108224
0.00010635
4.46387e-05
6.57674e-05
8.57884e-05
0.000110101
)
;
    }
    ceiling
    {
        type            nutkWallFunction;
        Cmu             0.09;
        kappa           0.41;
        E               9.8;
        value           nonuniform List<scalar> 
43
(
0.000227083
0.000261064
0.000302954
0.000315389
0.000277811
0.000252186
0.000231805
0.000214536
0.000199504
0.000186183
0.000174892
0.000165168
0.000156698
0.000149356
0.000143128
0.000138067
0.000134243
0.000131702
0.000130651
0.000130917
0.000131883
0.000133115
0.000134326
0.000135394
0.000136313
0.000137157
0.000138062
0.000139234
0.000140958
0.000143581
0.000147376
0.000152307
0.000157787
0.000162629
0.000165268
0.000165415
0.000163604
0.00015899
0.000154758
0.000139786
0.000349114
0.000412413
0.000355494
)
;
    }
    sWall
    {
        type            nutkWallFunction;
        Cmu             0.09;
        kappa           0.41;
        E               9.8;
        value           uniform 0.000227137;
    }
    nWall
    {
        type            nutkWallFunction;
        Cmu             0.09;
        kappa           0.41;
        E               9.8;
        value           nonuniform List<scalar> 6(0.000109352 0.000125913 0.00013459 0.000186367 0.000173909 0.000139795);
    }
    sideWalls
    {
        type            empty;
    }
    glass1
    {
        type            nutkWallFunction;
        Cmu             0.09;
        kappa           0.41;
        E               9.8;
        value           nonuniform List<scalar> 9(8.6401e-05 0.000143252 0.000190972 0.000235409 0.000276374 0.000314546 0.0003503 0.00035895 0.000349521);
    }
    glass2
    {
        type            nutkWallFunction;
        Cmu             0.09;
        kappa           0.41;
        E               9.8;
        value           nonuniform List<scalar> 2(0.000163507 0.00018455);
    }
    sun
    {
        type            nutkWallFunction;
        Cmu             0.09;
        kappa           0.41;
        E               9.8;
        value           nonuniform List<scalar> 
14
(
8.64313e-05
8.96643e-05
8.39233e-05
8.7317e-05
9.08405e-05
9.41738e-05
9.73518e-05
0.000100467
0.000103655
0.00010673
0.000109205
0.000110806
0.000111201
0.000109984
)
;
    }
    heatsource1
    {
        type            nutkWallFunction;
        Cmu             0.09;
        kappa           0.41;
        E               9.8;
        value           nonuniform List<scalar> 3(0.00012125 0.000104428 0.000109348);
    }
    heatsource2
    {
        type            nutkWallFunction;
        Cmu             0.09;
        kappa           0.41;
        E               9.8;
        value           nonuniform List<scalar> 4(0.000110344 7.9557e-05 7.9557e-05 0.000109839);
    }
    Table_master
    {
        type            nutkWallFunction;
        Cmu             0.09;
        kappa           0.41;
        E               9.8;
        value           nonuniform List<scalar> 9(2.99728e-05 2.47437e-05 2.29139e-05 2.1787e-05 2.10962e-05 2.20486e-05 2.93569e-05 4.72068e-05 7.63957e-05);
    }
    Table_slave
    {
        type            nutkWallFunction;
        Cmu             0.09;
        kappa           0.41;
        E               9.8;
        value           nonuniform List<scalar> 9(9.86318e-05 0.000102551 0.000107059 0.000111913 0.000116863 0.000121572 0.000125745 0.000129397 0.000131489);
    }
    inlet
    {
        type            calculated;
        value           uniform 3.3541e-05;
    }
    outlet
    {
        type            calculated;
        value           nonuniform List<scalar> 2(0.00194118 0.0022545);
    }
}


// ************************************************************************* //
