/*--------------------------------*- C++ -*----------------------------------*\
  =========                 |
  \\      /  F ield         | OpenFOAM: The Open Source CFD Toolbox
   \\    /   O peration     | Website:  https://openfoam.org
    \\  /    A nd           | Version:  6
     \\/     M anipulation  |
\*---------------------------------------------------------------------------*/
FoamFile
{
    version     2.0;
    format      ascii;
    class       surfaceScalarField;
    location    "1600";
    object      phi;
}
// * * * * * * * * * * * * * * * * * * * * * * * * * * * * * * * * * * * * * //

dimensions      [1 0 -1 0 0 0 0];

internalField   nonuniform List<scalar> 
852
(
-0.00297584
0.0030306
-0.00409476
0.00111886
-0.00491881
0.000824003
-0.0055322
0.00061334
-0.00590558
0.000373325
-0.0060136
0.000107966
-0.00583301
-0.000180645
-0.00535777
-0.000475288
-0.00462798
-0.000729843
-0.00372685
-0.000901182
-0.00275664
-0.000970264
-0.00182072
-0.000935963
-0.00101425
-0.000806525
-0.000407416
-0.000606877
-0.000406139
-0.000761768
0.000763933
-0.000517851
-0.000243955
9.00983e-05
-0.000607987
0.000628103
-0.000538043
0.00101505
-0.000386989
0.00127458
-0.000259564
0.00142383
-0.000149286
0.00149977
-7.598e-05
0.00154471
-4.49787e-05
0.00157456
-2.98805e-05
0.00159371
-1.91903e-05
0.0016037
-1.00208e-05
0.00160244
1.22503e-06
0.00158074
2.16649e-05
0.00151404
6.66695e-05
0.00136028
0.000153718
0.00109593
0.000264328
0.000735019
0.000360876
0.000737874
-0.00212566
0.00530433
-0.00317725
0.0021704
-0.00400552
0.00165222
-0.00460477
0.00121254
-0.00497105
0.000739548
-0.00508459
0.000221459
-0.00491927
-0.000346019
-0.00447827
-0.000916346
-0.00381554
-0.00139262
-0.00302159
-0.00169519
-0.00219011
-0.0018018
-0.00140421
-0.00172192
-0.000732873
-0.00147791
-0.000237355
-0.00110244
3.0363e-05
-0.000673902
0.000212615
-0.000182349
0.000212513
0.000196433
0.000573898
0.000665129
-0.00071269
0.000978079
-0.000920975
0.00123325
-0.00079325
0.00143509
-0.000588872
0.0015667
-0.000391211
0.00159315
-0.000175776
0.0016004
-8.32594e-05
0.00160819
-5.28081e-05
0.00161452
-3.62475e-05
0.00161874
-2.3447e-05
0.00162119
-1.25117e-05
0.00162106
1.32681e-06
0.00161437
2.83231e-05
0.00157114
0.000109864
0.00138934
0.000335481
0.00107037
0.000583268
0.000653441
0.000777776
0.00139896
-0.00148342
0.0070149
-0.00236655
0.00305347
-0.00308855
0.00237417
-0.00359499
0.00171892
-0.00390573
0.00105024
-0.00399211
0.000307789
-0.00380539
-0.000532794
-0.00336105
-0.00136074
-0.00273841
-0.00201532
-0.00203897
-0.00239468
-0.00134066
-0.00250017
-0.000699902
-0.00236273
-0.000154869
-0.00202299
0.000270093
-0.00152745
0.00053535
-0.000939204
0.000608479
-0.000255523
0.000820946
0.00151959
-0.000938546
0.00176475
-0.000957885
0.00177144
-0.000927703
0.00178749
-0.00080934
0.00182249
-0.000623907
0.00186724
-0.000436001
0.00169158
0.00160844
0.00155575
0.00151961
0.00149628
0.00148389
0.00148533
0.00151378
0.00162376
0.00135238
0.000606831
0.001016
0.000919616
0.000573256
0.00122049
0.0019841
-0.00102804
0.00833785
-0.0017063
0.00373169
-0.00217348
0.00284129
-0.00249438
0.00203976
-0.00267554
0.00123135
-0.00266026
0.000292455
-0.00238308
-0.000810028
-0.00191036
-0.00183351
-0.00134488
-0.00258086
-0.000779295
-0.00296032
-0.000257527
-0.003022
0.000197065
-0.00281737
0.000577044
-0.00240302
0.000903616
-0.00185407
0.00119994
-0.00123557
0.00155438
-0.000610002
0.00247866
-0.000103374
0.00278268
-0.000297693
0.00246233
-0.000618234
0.00229407
-0.000789672
0.00212596
-0.000759632
0.00198084
-0.000664251
0.00188225
-0.000525349
0.00179477
-0.00034856
0.00192514
-0.000130551
0.00198285
-5.7898e-05
0.00201384
-3.11734e-05
0.00202433
-1.06797e-05
0.00200599
1.81626e-05
0.00194491
6.0899e-05
0.00182106
0.000123667
0.00160407
0.000216815
0.00123872
0.000365163
0.0011192
0.000726326
0.00085597
0.00118282
0.000459595
0.00161684
0.00245943
-0.000713601
0.00940413
-0.00120893
0.00422696
-0.0012899
0.00292221
-0.00132957
0.00207939
-0.00129887
0.0012006
-0.00105168
4.52152e-05
-0.000604768
-0.00125699
-0.000117364
-0.00232097
0.000320365
-0.00301866
0.000676077
-0.0033161
0.000946993
-0.00329298
0.00114757
-0.003018
0.00130597
-0.00256148
0.00145078
-0.00199891
0.00161617
-0.00140101
0.0018535
-0.000847373
0.00220427
-0.000454187
0.00230533
-0.000398789
0.00219789
-0.000510828
0.00199772
-0.000589544
0.00180505
-0.000566994
0.0016337
-0.000492941
0.00149859
-0.000390263
0.00141458
-0.000264589
0.00142314
-0.000139134
0.00143796
-7.27519e-05
0.00145268
-4.59151e-05
0.00146723
-2.52569e-05
0.00147386
1.15037e-05
0.00145906
7.56822e-05
0.00140869
0.000174006
0.00131033
0.000315155
0.00116198
0.000513487
0.00104434
0.000843942
0.00092808
0.00129906
0.000674894
0.00186999
0.000685462
0.00244884
-0.000911962
0.0015972
-0.00138239
0.000470209
-0.00133833
-0.000614173
0.0104198
-0.000931251
0.00454399
-0.000476627
0.00246753
-4.50946e-05
0.00164781
0.000399105
0.00075635
0.000973414
-0.000529137
0.001513
-0.00179663
0.0018995
-0.00270754
0.00210846
-0.00322767
0.00218143
-0.00338914
0.0021494
-0.00326101
0.00204865
-0.00291731
0.0019213
-0.00243417
0.0018061
-0.00188376
0.00173389
-0.00132883
0.00172628
-0.000839803
0.0017672
-0.000495143
0.00173049
-0.000362105
0.00158655
-0.000366922
0.00138424
-0.000387271
0.00118856
-0.000371349
0.00102141
-0.000325816
0.000893813
-0.000262696
0.000818032
-0.000188835
0.000799859
-0.000120986
0.000812988
-8.59056e-05
0.000842929
-7.58796e-05
0.000885079
-6.74281e-05
0.000934283
-3.77222e-05
0.000978604
3.13414e-05
0.00100742
0.000145171
0.00102029
0.000302265
0.00102094
0.000512817
0.00105456
0.000810296
0.00116775
0.00118585
0.00137283
0.00166488
0.00182265
0.001999
0.00207862
0.00134121
0.00168355
0.000865255
0.000398573
-0.000641603
0.0115071
-0.000471833
0.00437417
0.000738097
0.00125755
0.00166232
0.000723539
0.00254123
-0.000122604
0.00334636
-0.00133432
0.00383087
-0.0022812
0.00399235
-0.00286908
0.00388628
-0.00312167
0.00358888
-0.00309181
0.00317276
-0.00284494
0.00270334
-0.00244795
0.00223949
-0.00197035
0.0018277
-0.001472
0.00149356
-0.000994724
0.00125132
-0.00059759
0.00108626
-0.000330113
0.000936922
-0.000212794
0.000765512
-0.000195541
0.000583449
-0.000205235
0.000416398
-0.000204324
0.000279239
-0.000188683
0.000180097
-0.000163578
0.000125946
-0.000134708
0.000117021
-0.000112083
0.000138991
-0.000107895
0.000179984
-0.000116892
0.000237146
-0.000124608
0.000313307
-0.000113901
0.000408219
-6.35877e-05
0.000511091
4.22814e-05
0.000620973
0.000192366
0.000750011
0.00038376
0.000930815
0.000629472
0.00121112
0.000905522
0.00164439
0.00123159
0.00230486
0.00133852
0.00283584
0.000810205
0.00286361
0.00083746
0.00332092
0.00267566
0.00933042
0.0034395
0.00361028
0.00401656
0.00068044
0.00502121
-0.000281159
0.00596774
-0.00106918
0.0064183
-0.00178494
0.00641079
-0.00227376
0.00602829
-0.00248665
0.00537228
-0.00246574
0.00455182
-0.00227141
0.00366602
-0.00195918
0.00279362
-0.0015756
0.00199881
-0.00117558
0.00132687
-0.000800084
0.000791882
-0.00045976
0.000409267
-0.000214995
0.000159209
-8.00763e-05
-1.5888e-05
-3.77196e-05
-0.000163624
-4.78282e-05
-0.000297583
-7.12996e-05
-0.00041409
-8.78389e-05
-0.000507047
-9.57472e-05
-0.000572181
-9.84625e-05
-0.000606926
-9.99818e-05
-0.000613792
-0.000105233
-0.000602989
-0.000118714
-0.000582463
-0.000137433
-0.000552953
-0.000154134
-0.000507047
-0.000159821
-0.000428587
-0.000142062
-0.00030702
-7.93004e-05
-0.000153687
3.90178e-05
3.7018e-05
0.000193039
0.000292034
0.000374439
0.000624409
0.000573129
0.00107928
0.000776696
0.0016156
0.00080217
0.00187548
0.00055031
0.00113919
0.00157373
0.00469201
0.00987645
0.0134777
0.0124418
0.00171629
0.0117994
0.000361165
0.0110186
-0.000288462
0.00995402
-0.000720431
0.00864037
-0.000960191
0.00719321
-0.00103956
0.00571327
-0.000985864
0.00428596
-0.000844146
0.00297843
-0.000651681
0.00182996
-0.000427147
0.000873787
-0.000219424
0.000119034
-4.5345e-05
-0.00040998
6.92449e-05
-0.000724569
9.95804e-05
-0.000897992
9.33293e-05
-0.00100366
6.79317e-05
-0.00108665
3.51401e-05
-0.00116377
5.80381e-06
-0.00123522
-1.64022e-05
-0.00129737
-3.36194e-05
-0.00134796
-4.7885e-05
-0.0013869
-6.10579e-05
-0.0014189
-7.32485e-05
-0.00145338
-8.42464e-05
-0.00149998
-9.08455e-05
-0.00156707
-8.70554e-05
-0.00166277
-6.41394e-05
-0.00179726
-7.57647e-06
-0.00196848
9.19047e-05
-0.00217304
0.000243559
-0.00244624
0.000466229
-0.00284974
0.000777914
-0.00346267
0.00118605
-0.00435952
0.00167353
-0.00566412
0.00210675
-0.00729414
0.00218032
-0.00694463
0.0012242
-0.00199745
0.00461869
0.00332058
0.00354791
0.00143185
0.00377086
-0.000511457
0.0036647
-0.00061429
0.00314471
-0.000440197
0.00241028
-0.000305128
0.00157846
-0.000154033
0.000713313
2.10084e-05
-0.000107358
0.000169003
-0.000778781
0.000244274
-0.00124977
0.000251555
-0.00154321
0.000248094
-0.0017023
0.000228314
-0.00179488
0.000192155
-0.0018542
0.000152633
-0.00190125
0.000114961
-0.00194769
8.15699e-05
-0.00199601
5.41047e-05
-0.00204463
3.22066e-05
-0.00209359
1.53302e-05
-0.0021437
2.21104e-06
-0.00219609
-8.67638e-06
-0.00225292
-1.6428e-05
-0.0023179
-1.92749e-05
-0.0023944
-1.43604e-05
-0.00248373
2.2619e-06
-0.00258184
3.39622e-05
-0.00267984
9.0403e-05
-0.00276962
0.000181674
-0.00285362
0.000327548
-0.00293346
0.000546057
-0.00301
0.000854439
-0.00307451
0.00125053
-0.00308668
0.00168569
-0.00301194
0.00203199
-0.00268189
0.00185026
-0.00141771
-3.99938e-05
-0.0033491
-0.000324968
0.00371658
0.000367581
0.000739271
-0.000282963
0.000139114
-0.000921167
2.39374e-05
-0.00143157
7.02222e-05
-0.00186846
0.000131786
-0.00221529
0.000192802
-0.00244085
0.000246577
-0.00255598
0.000284136
-0.00260305
0.00029134
-0.00261565
0.00026415
-0.00259671
0.000229144
-0.00256248
0.00019407
-0.00253141
0.000161074
-0.00251165
0.000132867
-0.00250617
0.000109468
-0.00251485
9.02385e-05
-0.00253557
7.48195e-05
-0.00256622
6.2843e-05
-0.0026048
5.3901e-05
-0.00264976
4.71625e-05
-0.00270111
4.26655e-05
-0.00275654
3.89927e-05
-0.00281193
3.6109e-05
-0.00286144
3.51338e-05
-0.00289757
3.83871e-05
-0.00291597
5.23505e-05
-0.00290721
8.16283e-05
-0.00285947
0.000133919
-0.00275193
0.000219995
-0.00255873
0.00035285
-0.00225397
0.000549663
-0.0018117
0.000808243
-0.00119168
0.00106566
-0.000231544
0.00107184
0.00110362
0.000515082
0.00166048
-0.000596861
-0.00161668
-0.00692931
-0.00982434
-0.00606697
-0.00531181
-0.00516562
-0.00513879
-0.00506827
-0.00493821
-0.0047489
-0.00450742
-0.00422992
-0.00394672
-0.00369209
-0.00347366
-0.00329124
-0.00314256
-0.00302267
-0.00292668
-0.00285032
-0.00278974
-0.00274146
-0.00270242
-0.00267039
-0.00264311
-0.00261973
-0.0025994
-0.00258015
-0.00255765
-0.00252107
-0.00245502
-0.00233637
-0.00213127
-0.00179288
-0.00125719
-0.000462448
0.00059019
0.0016491
0.00215091
0.00154013
)
;

boundaryField
{
    floor
    {
        type            calculated;
        value           nonuniform List<scalar> 
29
(
0
0
0
0
0
0
0
0
0
0
0
0
0
0
0
0
0
0
0
0
-2.88329e-06
-7.67391e-06
-1.19073e-05
-1.57684e-05
-1.32053e-06
-2.20321e-06
-6.43323e-06
-7.17972e-06
-6.37546e-06
)
;
    }
    ceiling
    {
        type            calculated;
        value           nonuniform List<scalar> 
43
(
-4.32808e-05
-4.20421e-05
-4.07671e-05
-1.58794e-05
-7.06007e-06
-2.87444e-06
-2.98865e-07
1.73626e-06
3.4926e-06
5.09622e-06
6.63119e-06
8.13412e-06
9.52199e-06
1.07006e-05
1.16448e-05
1.23867e-05
1.29775e-05
1.34633e-05
1.3876e-05
1.42356e-05
1.45567e-05
1.48514e-05
1.51266e-05
1.53807e-05
1.56043e-05
1.57767e-05
1.58734e-05
1.58739e-05
1.57677e-05
1.55597e-05
1.52606e-05
1.48846e-05
1.44476e-05
1.39692e-05
1.34842e-05
1.3013e-05
1.29159e-05
1.32659e-05
1.3911e-05
1.54191e-05
1.21436e-05
9.00096e-06
-7.10584e-05
)
;
    }
    sWall
    {
        type            calculated;
        value           uniform -0.000275055;
    }
    nWall
    {
        type            calculated;
        value           nonuniform List<scalar> 6(-4.42847e-05 -5.33703e-05 -5.87547e-05 -6.60714e-05 -7.19531e-05 -9.1986e-05);
    }
    sideWalls
    {
        type            empty;
        value           nonuniform 0();
    }
    glass1
    {
        type            calculated;
        value           nonuniform List<scalar> 9(-5.48059e-05 -0.00014812 -0.000227208 -0.000294961 -0.000352725 -0.000401504 -0.000445801 -0.000499016 -0.000558221);
    }
    glass2
    {
        type            calculated;
        value           nonuniform List<scalar> 2(-0.000231932 -0.000255175);
    }
    sun
    {
        type            calculated;
        value           uniform 0;
    }
    heatsource1
    {
        type            calculated;
        value           nonuniform List<scalar> 3(2.03472e-07 2.03474e-07 2.03492e-07);
    }
    heatsource2
    {
        type            calculated;
        value           nonuniform List<scalar> 4(5.10609e-08 5.11238e-08 0 0);
    }
    Table_master
    {
        type            calculated;
        value           nonuniform List<scalar> 9(-1.52641e-07 -1.52742e-07 -1.52775e-07 -1.52795e-07 -1.52807e-07 -1.52814e-07 -1.52815e-07 -1.52803e-07 -1.52763e-07);
    }
    Table_slave
    {
        type            calculated;
        value           nonuniform List<scalar> 9(1.52505e-07 1.5254e-07 1.5253e-07 1.52525e-07 1.52524e-07 1.5253e-07 1.52553e-07 1.52598e-07 1.52676e-07);
    }
    inlet
    {
        type            calculated;
        value           uniform -0.00622301;
    }
    outlet
    {
        type            calculated;
        value           nonuniform List<scalar> 2(0.00724765 0.00293709);
    }
}


// ************************************************************************* //
