/*--------------------------------*- C++ -*----------------------------------*\
  =========                 |
  \\      /  F ield         | OpenFOAM: The Open Source CFD Toolbox
   \\    /   O peration     | Website:  https://openfoam.org
    \\  /    A nd           | Version:  6
     \\/     M anipulation  |
\*---------------------------------------------------------------------------*/
FoamFile
{
    version     2.0;
    format      ascii;
    class       surfaceScalarField;
    location    "640";
    object      phi;
}
// * * * * * * * * * * * * * * * * * * * * * * * * * * * * * * * * * * * * * //

dimensions      [1 0 -1 0 0 0 0];

internalField   nonuniform List<scalar> 
852
(
-0.00231754
0.00235256
-0.00315775
0.000840209
-0.00382856
0.000670804
-0.00436452
0.000535949
-0.00473657
0.000372049
-0.00491931
0.000182739
-0.00488503
-3.4292e-05
-0.00460393
-0.000281098
-0.00407015
-0.000533787
-0.00332346
-0.0007467
-0.00244429
-0.000879169
-0.00153645
-0.000907853
-0.000714105
-0.000822345
-0.00011053
-0.000603581
-0.000113051
5.95094e-05
-6.31054e-05
0.0002782
-0.000218695
0.0006465
-0.000368306
0.000995311
-0.000348817
0.00127596
-0.000280657
0.00147872
-0.000202763
0.00158671
-0.000107995
0.00162785
-4.11465e-05
0.00164314
-1.52963e-05
0.00164718
-4.04297e-06
0.00164251
4.66158e-06
0.00162884
1.36594e-05
0.00160153
2.73047e-05
0.00154666
5.48686e-05
0.00143093
0.000115718
0.00119663
0.000234295
0.000790853
0.000405772
0.000121918
0.000668929
0.000116829
-0.00171125
0.00415967
-0.00254365
0.00167261
-0.00324534
0.00137249
-0.00378539
0.00107599
-0.00416097
0.000747629
-0.00435567
0.000377436
-0.00434111
-4.88658e-05
-0.00409049
-0.000531716
-0.00360494
-0.00101935
-0.0029362
-0.00141544
-0.00217042
-0.00164495
-0.00140698
-0.00167131
-0.000741903
-0.00148742
-0.000243111
-0.00110238
0.000177008
-0.000533175
0.00023988
-6.29276e-05
0.000239824
-8.44423e-05
1.26519e-05
0.000580994
-0.000884137
0.000946738
-0.000734056
0.00121867
-0.000620749
0.00143326
-0.000495262
0.00158319
-0.000352699
0.00161651
-0.000141316
0.00162454
-4.91824e-05
0.00163254
-2.33006e-05
0.00163909
-1.06045e-05
0.00164314
6.09395e-07
0.00164461
1.2181e-05
0.00164254
2.93658e-05
0.00163231
6.50995e-05
0.00157961
0.000168403
0.00137421
0.00043969
0.00102068
0.000759296
0.000617748
0.00107186
0.000721037
-0.00124459
0.0055526
-0.00197223
0.00240023
-0.00261579
0.00201605
-0.0031005
0.00156069
-0.0034501
0.00109723
-0.00364626
0.000573587
-0.00364943
-4.57016e-05
-0.0034166
-0.000764543
-0.00295834
-0.00147761
-0.00234781
-0.00202599
-0.00167516
-0.0023176
-0.00102493
-0.00232155
-0.000462482
-0.00204987
-3.30024e-05
-0.00153186
0.000295225
-0.000861408
0.000417931
-0.000185639
0.000657749
0.000959501
-0.000959429
0.00106717
-0.000991809
0.00127892
-0.000945819
0.00143563
-0.000777457
0.00155351
-0.000613151
0.0016928
-0.000491995
0.00155163
0.0015026
0.00147944
0.00146899
0.00146974
0.00148207
0.00151158
0.00157683
0.00174538
0.00153607
0.000648985
0.00127744
0.00101792
0.00088744
0.00146185
0.00158705
-0.000904902
0.00665148
-0.00148744
0.00298276
-0.00195086
0.00247947
-0.00230686
0.00191668
-0.00258129
0.00137166
-0.002749
0.000741283
-0.00275053
-4.4177e-05
-0.00251325
-0.00100182
-0.00207528
-0.00191559
-0.00153885
-0.00256242
-0.00098414
-0.00287232
-0.000468283
-0.00283741
-2.11852e-05
-0.00249698
0.00035914
-0.00191219
0.000718055
-0.00122033
0.00109603
-0.000563619
0.00185649
-0.000102719
0.00216534
-0.000321128
0.00196856
-0.000762658
0.00179009
-0.000813341
0.00162675
-0.000782483
0.0015345
-0.000685219
0.00148463
-0.000563282
0.00140731
-0.000414678
0.00160688
-0.00019973
0.00173769
-0.000130975
0.00185079
-0.000113259
0.00195405
-0.000103416
0.00204021
-8.63227e-05
0.00209222
-5.21673e-05
0.00207971
1.23515e-05
0.0019589
0.000120651
0.00166066
0.000298075
0.00162275
0.000686887
0.00149389
0.00114678
0.00126751
0.00168822
0.0028267
-0.000654053
0.00753906
-0.00109252
0.00342123
-0.00125876
0.0026457
-0.0014171
0.00207502
-0.00155616
0.00151071
-0.00164319
0.00082831
-0.00159709
-9.02801e-05
-0.00132602
-0.0012729
-0.000931548
-0.00231007
-0.000519444
-0.00297452
-0.00013668
-0.00325508
0.000192718
-0.00316681
0.000465537
-0.0027698
0.000719914
-0.00216658
0.000989051
-0.00148947
0.00130396
-0.000878529
0.00168106
-0.00047983
0.00183216
-0.000472234
0.00166925
-0.000599746
0.00150257
-0.000646667
0.00134659
-0.000626511
0.00122811
-0.000566745
0.00114994
-0.000485119
0.00111966
-0.000384408
0.00119613
-0.00027621
0.00128732
-0.000222167
0.00138088
-0.000206827
0.00147613
-0.000198677
0.0015681
-0.000178297
0.00164667
-0.00013074
0.00169554
-3.65316e-05
0.00169683
0.000119354
0.00165247
0.000342434
0.0016701
0.000669245
0.00178525
0.00103163
0.00222007
0.0012534
0.00337351
0.00167325
0.0021931
0.0011802
0.00131253
0.000880355
0.00135563
-0.000564965
0.00837153
-0.000850356
0.00370661
-0.000591604
0.00238694
-0.00048173
0.00196514
-0.000440826
0.0014698
-0.000375611
0.000763088
-0.000174846
-0.000291051
0.000134186
-0.00158193
0.000424513
-0.0026004
0.000649213
-0.00319923
0.000798596
-0.00340447
0.000887045
-0.00325526
0.000942131
-0.00282489
0.000991983
-0.00221644
0.00106222
-0.00155971
0.00116694
-0.000983261
0.00128637
-0.000599257
0.00128664
-0.000472519
0.00116239
-0.0004755
0.00100672
-0.000491002
0.000860897
-0.000480693
0.000745184
-0.000451038
0.00067025
-0.000410191
0.000647346
-0.000361511
0.000686016
-0.000314887
0.000758262
-0.000294422
0.000844691
-0.000293264
0.000938089
-0.000292083
0.00103544
-0.000275659
0.00113539
-0.000230693
0.00123762
-0.000138773
0.00133187
2.5095e-05
0.00141452
0.000259784
0.00153702
0.000546729
0.00173117
0.000837474
0.00195798
0.00102657
0.00225176
0.00137946
0.00197585
0.0014561
0.00119877
0.00165743
0.00259869
-0.000685474
0.0093545
-0.00056927
0.0035904
0.000218901
0.00159876
0.000566412
0.00161762
0.000788302
0.00124791
0.00110511
0.000446273
0.00150001
-0.000685958
0.00178182
-0.00186375
0.00189787
-0.00271645
0.00187572
-0.00317708
0.00174483
-0.00327357
0.00154752
-0.00305796
0.00132784
-0.00260521
0.00112022
-0.00200883
0.000952
-0.0013915
0.000835265
-0.000866533
0.000760636
-0.000524635
0.000665805
-0.000377695
0.000536382
-0.000346084
0.000394326
-0.000348952
0.000264466
-0.00035084
0.000161685
-0.000348265
9.53057e-05
-0.000343818
7.28717e-05
-0.000339084
9.57214e-05
-0.000337744
0.000148216
-0.000346924
0.000215051
-0.000360106
0.000289188
-0.000366228
0.000370015
-0.000356494
0.000463122
-0.000323809
0.000581202
-0.000256862
0.000735578
-0.000129289
0.000910715
8.46388e-05
0.00110365
0.000353789
0.00132531
0.000615804
0.00152153
0.000830342
0.00176564
0.00113535
0.00189565
0.00132608
0.00162585
0.00192722
0.00427066
0.00177709
0.00790969
0.00227797
0.00308952
0.00231247
0.00156426
0.00244914
0.00148095
0.00268488
0.00101215
0.00311764
1.3507e-05
0.00352339
-0.00109171
0.00362127
-0.00196164
0.00343374
-0.00252892
0.00304744
-0.00279078
0.00254578
-0.00277192
0.00200133
-0.00251352
0.00147436
-0.00207825
0.0010013
-0.00153577
0.000615851
-0.00100606
0.000328215
-0.000578904
0.000137034
-0.000333461
-7.57723e-06
-0.000233091
-0.000139219
-0.000214449
-0.000262768
-0.00022541
-0.00037161
-0.000242006
-0.000458917
-0.000260965
-0.000520181
-0.000282562
-0.000552795
-0.000306478
-0.000557972
-0.000332575
-0.00054459
-0.000360314
-0.000521077
-0.000383627
-0.000492671
-0.000394642
-0.000461851
-0.000387322
-0.000425616
-0.000360051
-0.000367075
-0.000315411
-0.000248857
-0.000247515
-4.83406e-05
-0.000115886
0.000198234
0.000107206
0.000451755
0.000362275
0.000671014
0.000611076
0.000925341
0.000881017
0.00115287
0.00109854
0.000732626
0.00234746
0.0051955
0.00825368
0.0113216
0.00947876
0.00340707
0.00848195
0.00247775
0.00786496
0.00162914
0.00729339
0.000585073
0.00655518
-0.000353504
0.00569061
-0.00109707
0.00475281
-0.00159112
0.00378739
-0.00182536
0.00283505
-0.00181958
0.00194086
-0.00161933
0.00115549
-0.00129288
0.00049518
-0.000875475
-6.13986e-06
-0.000504752
-0.000336953
-0.000248099
-0.000537453
-0.00013297
-0.000673486
-9.70647e-05
-0.000784477
-0.000103465
-0.000884037
-0.000125858
-0.000975366
-0.000150684
-0.00105774
-0.000178596
-0.00113055
-0.00020976
-0.00119369
-0.000243346
-0.00124803
-0.000278251
-0.00129637
-0.000311977
-0.00134161
-0.000338395
-0.00138802
-0.000348238
-0.00144513
-0.000330221
-0.00153075
-0.00027444
-0.00166279
-0.000183383
-0.00184903
-6.12835e-05
-0.00208719
0.000122269
-0.00237578
0.000395793
-0.00278792
0.000774405
-0.00345996
0.00128311
-0.00452986
0.00195091
-0.00605475
0.00262342
-0.00628386
0.00257656
-0.000880257
0.00611856
0.00358544
0.00550034
0.00309597
0.0054915
0.00163799
0.00539095
0.000685627
0.00503372
3.73426e-06
0.00444381
-0.000507154
0.00366363
-0.000810941
0.00276885
-0.000930588
0.00183255
-0.000883286
0.000930959
-0.000717749
0.000145024
-0.00050696
-0.00044793
-0.000282531
-0.000819625
-0.000133067
-0.00102486
-4.28757e-05
-0.00114881
-9.02486e-06
-0.00123622
-9.65987e-06
-0.00131155
-2.81419e-05
-0.00138504
-5.2384e-05
-0.00146331
-7.2416e-05
-0.00154841
-9.35009e-05
-0.00164226
-0.00011592
-0.00174655
-0.000139063
-0.00186216
-0.000162649
-0.00198848
-0.00018567
-0.00212229
-0.000204594
-0.00225842
-0.000212115
-0.00239287
-0.000195773
-0.00253001
-0.000137308
-0.00267426
-3.91376e-05
-0.0028245
8.89448e-05
-0.00296347
0.000261233
-0.00308026
0.000512574
-0.00317374
0.000867875
-0.00323283
0.00134219
-0.00322041
0.00193848
-0.00302792
0.00243093
-0.00142856
0.000977189
-0.00226113
0.000555863
0.00301658
0.00180061
0.00185123
0.00230706
0.00113155
0.00245473
0.000537961
0.00232784
0.000130623
0.00194748
-0.000126797
0.0014023
-0.000265763
0.000748708
-0.000277007
9.64031e-05
-0.000230993
-0.000475488
-0.00014587
-0.000926787
-5.56717e-05
-0.00121921
9.88505e-06
-0.00139378
4.14906e-05
-0.00148713
5.04603e-05
-0.00154089
4.47284e-05
-0.00158289
3.23331e-05
-0.00162857
1.75357e-05
-0.00168293
1.96586e-06
-0.00174277
-1.25841e-05
-0.00181071
-2.55745e-05
-0.00188982
-3.68192e-05
-0.0019837
-4.51873e-05
-0.002097
-4.93576e-05
-0.00223446
-4.82153e-05
-0.00239814
-4.09279e-05
-0.00258338
-2.68761e-05
-0.00277333
-5.83338e-06
-0.00293585
2.5205e-05
-0.00304256
6.75622e-05
-0.00308862
0.000135003
-0.0030598
0.000232401
-0.00291785
0.000370613
-0.00261939
0.000569408
-0.00210716
0.000829961
-0.00119883
0.00103015
0.000311299
0.00092079
0.00136633
-7.78478e-05
-0.000845593
-0.00593449
-0.00719853
-0.00420218
-0.00237418
-0.00126863
-0.000759681
-0.00066128
-0.000822566
-0.00112376
-0.0014368
-0.00170439
-0.00188771
-0.00198207
-0.00201216
-0.00201159
-0.00200269
-0.00199992
-0.00200979
-0.00203466
-0.00207529
-0.00213057
-0.00219892
-0.00227857
-0.00236664
-0.002459
-0.00255049
-0.00263522
-0.00270673
-0.00275833
-0.00278015
-0.00276092
-0.00267547
-0.00249367
-0.00217443
-0.00165684
-0.000878862
9.92137e-05
0.000967452
0.000837106
)
;

boundaryField
{
    floor
    {
        type            calculated;
        value           nonuniform List<scalar> 
29
(
0
0
0
0
0
0
0
0
0
0
0
0
0
0
0
0
0
0
0
0
5.083e-06
1.35327e-05
2.14231e-05
2.7857e-05
2.51924e-06
3.59079e-06
8.67924e-06
1.25745e-05
1.22778e-05
)
;
    }
    ceiling
    {
        type            calculated;
        value           nonuniform List<scalar> 
43
(
2.24972e-05
2.09487e-05
2.02305e-05
2.32221e-05
2.59948e-05
2.90019e-05
3.22078e-05
3.44746e-05
3.5422e-05
3.60162e-05
3.65845e-05
3.74396e-05
3.86772e-05
3.99663e-05
4.09112e-05
4.15534e-05
4.1943e-05
4.21963e-05
4.24007e-05
4.25837e-05
4.26945e-05
4.27677e-05
4.28168e-05
4.2873e-05
4.29961e-05
4.32705e-05
4.37901e-05
4.46244e-05
4.57593e-05
4.70179e-05
4.83254e-05
4.95499e-05
5.05919e-05
5.1366e-05
5.18141e-05
5.19717e-05
5.20637e-05
5.25448e-05
5.24909e-05
5.42402e-05
2.67203e-05
2.16218e-05
1.29991e-05
)
;
    }
    sWall
    {
        type            calculated;
        value           uniform -0.000173166;
    }
    nWall
    {
        type            calculated;
        value           nonuniform List<scalar> 6(-4.3307e-05 -4.42977e-05 -4.61243e-05 -4.76873e-05 -4.92193e-05 -6.27339e-05);
    }
    sideWalls
    {
        type            empty;
        value           nonuniform 0();
    }
    glass1
    {
        type            calculated;
        value           nonuniform List<scalar> 9(-3.50267e-05 -9.58645e-05 -0.000148339 -0.000193985 -0.000233534 -0.00026751 -0.000297495 -0.000332291 -0.000370716);
    }
    glass2
    {
        type            calculated;
        value           nonuniform List<scalar> 2(-0.000192223 -0.000208113);
    }
    sun
    {
        type            calculated;
        value           uniform 0;
    }
    heatsource1
    {
        type            calculated;
        value           nonuniform List<scalar> 3(2.03057e-07 2.03573e-07 2.03932e-07);
    }
    heatsource2
    {
        type            calculated;
        value           nonuniform List<scalar> 4(5.1096e-08 5.11504e-08 0 0);
    }
    Table_master
    {
        type            calculated;
        value           nonuniform List<scalar> 9(-1.52775e-07 -1.52872e-07 -1.52899e-07 -1.52915e-07 -1.52925e-07 -1.52927e-07 -1.52923e-07 -1.52906e-07 -1.52856e-07);
    }
    Table_slave
    {
        type            calculated;
        value           nonuniform List<scalar> 9(1.52701e-07 1.52709e-07 1.52672e-07 1.52636e-07 1.52605e-07 1.52587e-07 1.52589e-07 1.52599e-07 1.52649e-07);
    }
    inlet
    {
        type            calculated;
        value           uniform -0.00629693;
    }
    outlet
    {
        type            calculated;
        value           nonuniform List<scalar> 2(0.00608516 0.00124309);
    }
}


// ************************************************************************* //
