/*--------------------------------*- C++ -*----------------------------------*\
  =========                 |
  \\      /  F ield         | OpenFOAM: The Open Source CFD Toolbox
   \\    /   O peration     | Website:  https://openfoam.org
    \\  /    A nd           | Version:  6
     \\/     M anipulation  |
\*---------------------------------------------------------------------------*/
FoamFile
{
    version     2.0;
    format      ascii;
    class       volVectorField;
    location    "1700";
    object      U;
}
// * * * * * * * * * * * * * * * * * * * * * * * * * * * * * * * * * * * * * //

dimensions      [0 1 -1 0 0 0 0];

internalField   nonuniform List<vector> 
459
(
(0.0269636 0.0873786 0)
(-0.17058 0.0273063 0)
(-0.198367 0.0176121 0)
(-0.229049 0.0106145 0)
(-0.24913 0.00308017 0)
(-0.257278 -0.00482139 0)
(-0.251609 -0.0130521 0)
(-0.232569 -0.0213926 0)
(-0.201723 -0.0285185 0)
(-0.162611 -0.0331429 0)
(-0.119846 -0.0345803 0)
(-0.0781165 -0.032479 0)
(-0.0415402 -0.0264639 0)
(-0.0139869 -0.0157796 0)
(-0.016476 -0.00121307 0)
(-0.0134707 0.0102546 0)
(-0.0322637 -0.0153783 0)
(-0.0112994 -0.0270295 0)
(0.0148883 -0.0229938 0)
(0.0320839 -0.0165975 0)
(0.0472197 -0.0112368 0)
(0.0572653 -0.00661171 0)
(0.0627992 -0.00411256 0)
(0.0654255 -0.00311352 0)
(0.0667976 -0.00268205 0)
(0.0677289 -0.00240292 0)
(0.0683722 -0.00216762 0)
(0.0686518 -0.00189966 0)
(0.0683337 -0.0014018 0)
(0.0668158 -0.000278079 0)
(0.0628097 0.00204206 0)
(0.0548526 0.00482306 0)
(0.0446563 0.00808139 0)
(-0.00213596 0.0221828 0)
(0.19626 0.178531 0)
(-0.156131 0.0722126 0)
(-0.158753 0.0540456 0)
(-0.190217 0.0394414 0)
(-0.210191 0.0229498 0)
(-0.218718 0.00455735 0)
(-0.213724 -0.0155514 0)
(-0.196088 -0.0352762 0)
(-0.168049 -0.0512669 0)
(-0.133507 -0.0609066 0)
(-0.0967206 -0.0634367 0)
(-0.0615318 -0.0590183 0)
(-0.0310099 -0.0480844 0)
(-0.00686654 -0.0308746 0)
(0.00757666 -0.012291 0)
(0.0173458 0.000319074 0)
(0.0138905 0.0193063 0)
(0.0455994 0.0391512 0)
(0.0211374 -0.0200449 0)
(0.0323144 -0.0344107 0)
(0.0444681 -0.0318888 0)
(0.0548165 -0.0241925 0)
(0.0629768 -0.016172 0)
(0.0667911 -0.00728425 0)
(0.0676876 -0.00206101 0)
(0.0676902 4.43669e-05 0)
(0.0678358 0.000912152 0)
(0.0680988 0.00141732 0)
(0.0682958 0.00182397 0)
(0.0683886 0.00236109 0)
(0.0683051 0.00336871 0)
(0.0675177 0.00577732 0)
(0.063591 0.012236 0)
(0.0537552 0.0182859 0)
(0.0450998 0.0239903 0)
(-0.0350229 0.0471083 0)
(0.351873 0.266578 0)
(-0.168466 0.113569 0)
(-0.118803 0.0866391 0)
(-0.148841 0.0614056 0)
(-0.166607 0.0343051 0)
(-0.173992 0.00433797 0)
(-0.167424 -0.0279588 0)
(-0.149127 -0.0586764 0)
(-0.122462 -0.0822082 0)
(-0.0919619 -0.0949081 0)
(-0.0611456 -0.0967007 0)
(-0.0326091 -0.0886004 0)
(-0.0082988 -0.0721713 0)
(0.012065 -0.0481219 0)
(0.0258951 -0.0229649 0)
(0.0336638 0.00196809 0)
(0.0351237 0.0382978 0)
(0.103456 -0.0194356 0)
(0.0753178 -0.0370482 0)
(0.0717303 -0.0414853 0)
(0.0735791 -0.0376236 0)
(0.0753638 -0.029963 0)
(0.0773836 -0.0229054 0)
(0.0763131 -0.0179661 0)
(0.0702473 -0.0122331 0)
(0.0656652 -0.00910848 0)
(0.06351 -0.00733129 0)
(0.0624866 -0.0061902 0)
(0.0618356 -0.00540176 0)
(0.0615084 -0.00474302 0)
(0.0620463 -0.00374404 0)
(0.0647168 -0.000304289 0)
(0.0627969 0.0172078 0)
(0.0501304 0.0300561 0)
(0.0478842 0.0406254 0)
(-0.065596 0.0728674 0)
(0.493199 0.337115 0)
(-0.198805 0.149462 0)
(-0.0772061 0.114276 0)
(-0.10474 0.0801544 0)
(-0.117339 0.0445748 0)
(-0.120269 0.00379976 0)
(-0.107701 -0.0411478 0)
(-0.0871763 -0.0819208 0)
(-0.062356 -0.110947 0)
(-0.0377645 -0.124566 0)
(-0.0149621 -0.124602 0)
(0.00540463 -0.112564 0)
(0.0219203 -0.0918851 0)
(0.0362704 -0.0653915 0)
(0.0494929 -0.0366283 0)
(0.0646396 -0.0079339 0)
(0.0848451 0.0247149 0)
(0.116734 0.0261629 0)
(0.118728 -0.0164938 0)
(0.104214 -0.0324967 0)
(0.0935015 -0.035511 0)
(0.0862146 -0.0328873 0)
(0.0804246 -0.0270137 0)
(0.075972 -0.0189237 0)
(0.0758833 -0.0109362 0)
(0.0805671 -0.00747617 0)
(0.0840685 -0.00555223 0)
(0.085504 -0.00428405 0)
(0.0855646 -0.00308324 0)
(0.0840938 -0.00161692 0)
(0.0803951 0.000346643 0)
(0.0732182 0.00318338 0)
(0.0596371 0.00751488 0)
(0.0483236 0.0275919 0)
(0.0382057 0.0444926 0)
(0.0500168 0.0591718 0)
(-0.0958732 0.0954606 0)
(0.616162 0.391311 0)
(-0.237966 0.177936 0)
(-0.0365795 0.12994 0)
(-0.0584224 0.0907054 0)
(-0.0625627 0.0496581 0)
(-0.0535504 -0.000650943 0)
(-0.0312604 -0.0579525 0)
(-0.0093168 -0.104511 0)
(0.0108493 -0.134417 0)
(0.025983 -0.14487 0)
(0.0377681 -0.141247 0)
(0.046486 -0.126547 0)
(0.0531088 -0.103972 0)
(0.0590442 -0.0766969 0)
(0.0656427 -0.0483794 0)
(0.0746951 -0.022912 0)
(0.0884243 -0.00651044 0)
(0.0989215 -0.0129459 0)
(0.0987062 -0.0242083 0)
(0.0911081 -0.0281498 0)
(0.0813755 -0.0276366 0)
(0.0725663 -0.0249436 0)
(0.0652065 -0.0205016 0)
(0.0598018 -0.0143865 0)
(0.0575624 -0.00678861 0)
(0.0582677 -0.0027498 0)
(0.0593118 -0.00111571 0)
(0.0600974 -7.2442e-05 0)
(0.0608265 0.00148866 0)
(0.0610178 0.00402873 0)
(0.0600258 0.00783838 0)
(0.0572494 0.0132811 0)
(0.0518737 0.0211126 0)
(0.0456671 0.0360931 0)
(0.0376079 0.0541408 0)
(0.0584854 0.0746424 0)
(-0.0153558 0.106155 0)
(0.0463693 0.036705 0)
(-0.0591375 -0.0332501 0)
(-0.26605 -0.0553261 0)
(0.70663 0.435807 0)
(-0.277301 0.195968 0)
(-0.00528654 0.124953 0)
(-0.00971379 0.0894171 0)
(-0.000240431 0.0433149 0)
(0.0329937 -0.0207264 0)
(0.0605328 -0.0803979 0)
(0.0792874 -0.12261 0)
(0.0896418 -0.146077 0)
(0.0929833 -0.152518 0)
(0.0914503 -0.145396 0)
(0.0867254 -0.128254 0)
(0.080667 -0.104669 0)
(0.0750474 -0.0778789 0)
(0.0713114 -0.0512455 0)
(0.0705608 -0.0284492 0)
(0.0730694 -0.0136368 0)
(0.0744883 -0.0112901 0)
(0.0709736 -0.0146692 0)
(0.0633171 -0.0175414 0)
(0.0542992 -0.0180624 0)
(0.0460017 -0.016717 0)
(0.0391185 -0.0139385 0)
(0.0341427 -0.00999055 0)
(0.0316244 -0.00567221 0)
(0.0314048 -0.00344897 0)
(0.0323286 -0.00276173 0)
(0.0339045 -0.00226978 0)
(0.0360052 -0.00087401 0)
(0.0386805 0.00221191 0)
(0.0408483 0.00721394 0)
(0.0423133 0.0142582 0)
(0.0430518 0.0237907 0)
(0.0442124 0.0374531 0)
(0.0443987 0.0547149 0)
(0.0667189 0.0770617 0)
(0.0505446 0.0969087 0)
(0.0902779 0.0680002 0)
(0.11304 0.0443633 0)
(-0.1258 -0.00606287 0)
(0.765525 0.476145 0)
(-0.296259 0.179446 0)
(0.0268883 0.0691772 0)
(0.0584214 0.05231 0)
(0.0931851 0.00932867 0)
(0.13712 -0.0536872 0)
(0.162958 -0.103097 0)
(0.173079 -0.133835 0)
(0.170087 -0.147374 0)
(0.157448 -0.1465 0)
(0.13886 -0.13458 0)
(0.11757 -0.115171 0)
(0.0963826 -0.0916452 0)
(0.0774032 -0.0666348 0)
(0.0621006 -0.0428043 0)
(0.0512794 -0.0233176 0)
(0.0447114 -0.0108767 0)
(0.039978 -0.00687523 0)
(0.0344122 -0.0078265 0)
(0.0274768 -0.00965539 0)
(0.0201774 -0.0103932 0)
(0.0135165 -0.00993539 0)
(0.00803219 -0.0085588 0)
(0.00417851 -0.00657368 0)
(0.00234537 -0.00467847 0)
(0.00236968 -0.00403108 0)
(0.00357457 -0.0043353 0)
(0.00561798 -0.00467646 0)
(0.00848132 -0.00410814 0)
(0.0123769 -0.00160369 0)
(0.0179088 0.00366017 0)
(0.0232979 0.010921 0)
(0.0290866 0.0201423 0)
(0.0366644 0.0319487 0)
(0.0450696 0.0458707 0)
(0.0670032 0.0637439 0)
(0.0812527 0.0727766 0)
(0.113541 0.0512726 0)
(0.153022 0.0432879 0)
(-0.0359907 0.0913303 0)
(0.872346 0.474137 0)
(-0.0525757 0.155978 0)
(0.118671 -0.0204407 0)
(0.207907 -0.0649652 0)
(0.256247 -0.0874739 0)
(0.278629 -0.109329 0)
(0.282194 -0.125956 0)
(0.268487 -0.133428 0)
(0.240949 -0.131497 0)
(0.204645 -0.121509 0)
(0.164532 -0.105278 0)
(0.124695 -0.0852378 0)
(0.0882556 -0.0638768 0)
(0.0569668 -0.0428011 0)
(0.0323204 -0.0238667 0)
(0.015169 -0.00988492 0)
(0.00458148 -0.00228358 0)
(-0.00166995 -0.000493139 0)
(-0.00638924 -0.00179053 0)
(-0.0113348 -0.0035227 0)
(-0.0163069 -0.00460032 0)
(-0.0208456 -0.00494903 0)
(-0.0245803 -0.00478759 0)
(-0.0271848 -0.00443302 0)
(-0.0284738 -0.0043545 0)
(-0.0286552 -0.00499822 0)
(-0.028173 -0.00619053 0)
(-0.0272565 -0.00743569 0)
(-0.0258409 -0.00816977 0)
(-0.0235714 -0.00773393 0)
(-0.0195144 -0.00534587 0)
(-0.0113138 -0.000491599 0)
(-0.00383362 0.00588181 0)
(0.00700457 0.0130415 0)
(0.0187153 0.0194674 0)
(0.0381547 0.0265591 0)
(0.0571761 0.0209388 0)
(0.0771688 -0.00487158 0)
(0.135397 0.039234 0)
(-0.401828 0.199963 0)
(1.02204 0.42326 0)
(0.485973 0.278948 0)
(0.502972 0.176298 0)
(0.533677 0.0920696 0)
(0.507165 0.0281987 0)
(0.454201 -0.0214713 0)
(0.394522 -0.0546027 0)
(0.330782 -0.0710734 0)
(0.264452 -0.0739609 0)
(0.199123 -0.0674801 0)
(0.138266 -0.0549847 0)
(0.084858 -0.0395727 0)
(0.0404113 -0.0238408 0)
(0.00388617 -0.00939635 0)
(-0.0210609 0.000295048 0)
(-0.0337444 0.00426987 0)
(-0.0401043 0.00509615 0)
(-0.0435046 0.00402158 0)
(-0.0462539 0.00214418 0)
(-0.0489652 0.000344153 0)
(-0.051809 -0.00101665 0)
(-0.0546499 -0.00196396 0)
(-0.0572315 -0.0026895 0)
(-0.0593859 -0.00340283 0)
(-0.0611377 -0.00430303 0)
(-0.0627777 -0.00548 0)
(-0.0647474 -0.00673373 0)
(-0.0674626 -0.00766562 0)
(-0.071315 -0.00773719 0)
(-0.0767521 -0.00624576 0)
(-0.0844002 -0.00234935 0)
(-0.09379 0.00433826 0)
(-0.104007 0.0136995 0)
(-0.119017 0.0261017 0)
(-0.142013 0.0416803 0)
(-0.175424 0.0593624 0)
(-0.222507 0.0753531 0)
(-0.276991 0.0868875 0)
(-0.34396 0.0938755 0)
(-0.599899 0.0968178 0)
(-0.113458 -0.0131244 0)
(0.107365 -0.0363152 0)
(0.178182 -0.0642804 0)
(0.16325 -0.060482 0)
(0.139212 -0.0477769 0)
(0.109273 -0.0344584 0)
(0.0739293 -0.0217113 0)
(0.0351454 -0.00963154 0)
(-0.00505394 0.00126062 0)
(-0.0360148 0.00821648 0)
(-0.0565784 0.0120322 0)
(-0.0685267 0.0133829 0)
(-0.0745228 0.0128785 0)
(-0.0774277 0.0116455 0)
(-0.0789774 0.0104522 0)
(-0.0801502 0.00935131 0)
(-0.0815813 0.00848752 0)
(-0.0834059 0.00807132 0)
(-0.0854972 0.00814479 0)
(-0.0876304 0.00854052 0)
(-0.0897409 0.00904419 0)
(-0.0918481 0.00943774 0)
(-0.094069 0.00952611 0)
(-0.0966287 0.00922125 0)
(-0.0997309 0.00868038 0)
(-0.103462 0.00825958 0)
(-0.107804 0.00831792 0)
(-0.112456 0.00948843 0)
(-0.116799 0.0123915 0)
(-0.120729 0.0180453 0)
(-0.124145 0.027482 0)
(-0.12719 0.0412129 0)
(-0.130285 0.0585718 0)
(-0.1337 0.0763946 0)
(-0.13445 0.0856701 0)
(-0.116339 0.0665037 0)
(-0.0702445 -0.0199685 0)
(-0.267211 -0.194735 0)
(0.0564522 0.181149 0)
(0.0273741 0.0507767 0)
(-0.00871468 -0.00688315 0)
(-0.0361652 -0.010172 0)
(-0.0615022 -0.0038552 0)
(-0.0827607 0.000817223 0)
(-0.0995042 0.00478434 0)
(-0.109606 0.00734737 0)
(-0.114847 0.00740924 0)
(-0.117022 0.00486109 0)
(-0.116694 0.00128791 0)
(-0.11471 -0.00239461 0)
(-0.112024 -0.00625269 0)
(-0.109508 -0.0102886 0)
(-0.107577 -0.014349 0)
(-0.106397 -0.0185379 0)
(-0.106032 -0.0229085 0)
(-0.106396 -0.0273283 0)
(-0.107307 -0.0315638 0)
(-0.108576 -0.0353794 0)
(-0.110064 -0.0385644 0)
(-0.111688 -0.0409328 0)
(-0.113407 -0.0422953 0)
(-0.115187 -0.0424339 0)
(-0.116946 -0.0411514 0)
(-0.118502 -0.0382772 0)
(-0.119576 -0.0335678 0)
(-0.119856 -0.026979 0)
(-0.11879 -0.0183697 0)
(-0.115482 -0.00747278 0)
(-0.108669 0.00619883 0)
(-0.0971495 0.0231473 0)
(-0.0803461 0.0427506 0)
(-0.0587927 0.0610467 0)
(-0.0355525 0.0714713 0)
(0.00507289 0.0544311 0)
(0.141785 -0.0138858 0)
(-0.200249 -0.10341 0)
(-0.0392847 -0.315711 0)
(-0.409568 -0.123894 0)
(-0.300616 0.0584325 0)
(-0.269417 -0.00785319 0)
(-0.233462 -0.00644237 0)
(-0.227476 0.00423202 0)
(-0.224047 0.0134147 0)
(-0.218941 0.0213946 0)
(-0.210983 0.0290925 0)
(-0.200182 0.036591 0)
(-0.187623 0.0435094 0)
(-0.174889 0.0496783 0)
(-0.163145 0.055465 0)
(-0.152911 0.0611113 0)
(-0.144254 0.0667818 0)
(-0.137014 0.0727304 0)
(-0.130915 0.0791157 0)
(-0.125724 0.0859183 0)
(-0.121291 0.0929515 0)
(-0.117508 0.099877 0)
(-0.11428 0.106291 0)
(-0.111527 0.111822 0)
(-0.109186 0.116173 0)
(-0.107219 0.119096 0)
(-0.105616 0.120356 0)
(-0.104374 0.119735 0)
(-0.103452 0.117111 0)
(-0.102725 0.112545 0)
(-0.101883 0.106318 0)
(-0.100331 0.0991257 0)
(-0.0970126 0.0918945 0)
(-0.0901763 0.0857044 0)
(-0.0775154 0.0817495 0)
(-0.0573428 0.081261 0)
(-0.0301736 0.0849472 0)
(0.0133513 0.09124 0)
(0.0529388 0.0913258 0)
(0.091182 0.0809381 0)
(0.158279 0.0590124 0)
(-0.245344 0.015401 0)
)
;

boundaryField
{
    floor
    {
        type            noSlip;
    }
    ceiling
    {
        type            noSlip;
    }
    sWall
    {
        type            noSlip;
    }
    nWall
    {
        type            noSlip;
    }
    sideWalls
    {
        type            empty;
    }
    glass1
    {
        type            noSlip;
    }
    glass2
    {
        type            noSlip;
    }
    sun
    {
        type            noSlip;
    }
    heatsource1
    {
        type            noSlip;
    }
    heatsource2
    {
        type            noSlip;
    }
    Table_master
    {
        type            noSlip;
    }
    Table_slave
    {
        type            noSlip;
    }
    inlet
    {
        type            fixedValue;
        value           uniform (0.277164 -0.114805 0);
    }
    outlet
    {
        type            zeroGradient;
    }
}


// ************************************************************************* //
