/*--------------------------------*- C++ -*----------------------------------*\
  =========                 |
  \\      /  F ield         | OpenFOAM: The Open Source CFD Toolbox
   \\    /   O peration     | Website:  https://openfoam.org
    \\  /    A nd           | Version:  6
     \\/     M anipulation  |
\*---------------------------------------------------------------------------*/
FoamFile
{
    version     2.0;
    format      ascii;
    class       volScalarField;
    location    "600";
    object      nut;
}
// * * * * * * * * * * * * * * * * * * * * * * * * * * * * * * * * * * * * * //

dimensions      [0 2 -1 0 0 0 0];

internalField   nonuniform List<scalar> 
459
(
0.00104963
0.00114358
0.00116203
0.00121667
0.00126691
0.00131343
0.0013583
0.0014043
0.0014394
0.00145787
0.00145447
0.00142543
0.00137067
0.0012966
0.00121641
0.000458856
0.000566216
0.000628775
0.000616358
0.000590908
0.00056081
0.000526481
0.00049338
0.000463427
0.000436755
0.000413042
0.000391877
0.000373055
0.000356047
0.000340273
0.000324944
0.00030887
0.000298245
0.000272612
0.00144034
0.00344301
0.00326889
0.00380161
0.00431595
0.00483624
0.00531261
0.00566538
0.00598259
0.00624717
0.00641864
0.00644503
0.00624804
0.00564667
0.00407789
0.00123456
0.00078438
0.00050804
0.00101669
0.001368
0.00160507
0.0017185
0.0017053
0.00141223
0.00123424
0.00110352
0.00100142
0.000919078
0.000851322
0.000790747
0.000734216
0.000679874
0.00063231
0.000590047
0.000697548
0.000362415
0.0017678
0.00471017
0.00403079
0.00512058
0.00565109
0.00604132
0.00634143
0.00656915
0.00680888
0.00706382
0.00730553
0.00748538
0.0075469
0.00742124
0.00693581
0.00550997
0.00119882
0.00103595
0.0014298
0.00176883
0.00205115
0.00222923
0.00215684
0.000750572
0.00066626
0.000598439
0.000543552
0.000498681
0.000461605
0.000430729
0.000405007
0.00038397
0.00041258
0.000474695
0.000780981
0.000421419
0.00208417
0.00607607
0.00402326
0.00544241
0.00595485
0.00612569
0.00620941
0.00629593
0.00646399
0.00670819
0.00700434
0.00729369
0.0075176
0.00762889
0.00755038
0.00707511
0.00546722
0.00142987
0.00178202
0.00226229
0.0026757
0.00297039
0.00313396
0.00292739
0.000842529
0.000770886
0.000720249
0.000682131
0.000649799
0.000619406
0.00059022
0.000559405
0.000523259
0.000491817
0.000500337
0.000891465
0.000466711
0.00240746
0.00784059
0.0044421
0.00520036
0.00592082
0.0060015
0.00592923
0.00591284
0.00605721
0.00629743
0.00662902
0.00697419
0.00725445
0.00740471
0.00738729
0.00715877
0.006577
0.00537964
0.00492714
0.00472226
0.00460184
0.00451725
0.00444174
0.00428223
0.00366872
0.00338516
0.00322595
0.00310171
0.00296386
0.00275693
0.00246084
0.00209173
0.00167534
0.0012475
0.000918921
0.000912978
0.00062192
0.000579893
0.000701852
0.000786506
0.00274984
0.00975775
0.00619864
0.00509424
0.00561906
0.00590591
0.00578397
0.00578604
0.00590688
0.00612552
0.00644688
0.00681501
0.00712696
0.00728395
0.00723616
0.00699965
0.00663965
0.00623081
0.00595433
0.00574474
0.00555186
0.00537762
0.0052191
0.00504535
0.00479428
0.00457248
0.00437283
0.00417614
0.00397058
0.00374461
0.00344256
0.00304912
0.0025632
0.00201091
0.00151094
0.00111965
0.000853485
0.000731376
0.00104921
0.000819327
0.00306441
0.0111203
0.00881956
0.00661477
0.00615618
0.00621993
0.00608886
0.00596656
0.00596883
0.00614992
0.0064895
0.00689406
0.00722844
0.00736978
0.00726574
0.00696327
0.0066049
0.00634418
0.00620934
0.00607429
0.00587563
0.00562799
0.00535209
0.00506704
0.00478996
0.00454569
0.00432348
0.00411303
0.00391358
0.00373062
0.00356372
0.0033083
0.00292632
0.0024489
0.00198321
0.00155768
0.00125192
0.00115758
0.00118577
0.000924427
0.00312732
0.00999645
0.0088243
0.00807451
0.00753959
0.00695347
0.00636688
0.00603247
0.00602327
0.00630274
0.00675819
0.00723276
0.00756015
0.00761578
0.00738081
0.00695491
0.00654706
0.00632757
0.00622714
0.00598366
0.00560662
0.0051758
0.00476145
0.00440985
0.00413115
0.0039086
0.00372044
0.00355878
0.00342723
0.00333475
0.0032911
0.00327376
0.00306617
0.00274777
0.00246303
0.00231463
0.00240228
0.00278249
0.0034562
0.00145559
0.00304564
0.00361914
0.00403761
0.0041845
0.00424983
0.00437858
0.00468813
0.00522335
0.00594691
0.00673908
0.00744731
0.00793177
0.00807617
0.00782723
0.00729002
0.00669555
0.00630996
0.00601918
0.00567592
0.00519624
0.00465302
0.0041544
0.00375808
0.00346479
0.00324649
0.00307314
0.00292513
0.00279323
0.00267241
0.00255769
0.00244361
0.0023308
0.0022383
0.00216977
0.00214634
0.00216187
0.00215802
0.00207939
0.00194772
0.00137053
0.00156713
0.00314343
0.00465444
0.00593401
0.0070016
0.00790296
0.00856317
0.0089198
0.00896431
0.0087154
0.00815537
0.00734302
0.00647031
0.00579981
0.00533651
0.00486902
0.00433866
0.003807
0.00334994
0.00300671
0.00276015
0.00257982
0.0024412
0.00232952
0.00223793
0.00216414
0.00210802
0.00207062
0.00205517
0.0020639
0.00208346
0.00211184
0.00214284
0.00215313
0.00210358
0.00197965
0.00179297
0.0011383
0.00201388
0.00486172
0.00712476
0.0080409
0.00860136
0.0088664
0.00880471
0.00843022
0.00780404
0.00701734
0.00617576
0.00540438
0.00474786
0.00420323
0.00370308
0.0032453
0.0028774
0.00260931
0.00241783
0.00227047
0.00215029
0.00205508
0.00198256
0.00193034
0.00189749
0.00188344
0.00188698
0.0019053
0.00194347
0.00200093
0.00207496
0.00215923
0.00223886
0.00229447
0.00228199
0.00231214
0.00233907
0.00115956
0.0017838
0.00188966
0.00196526
0.00210497
0.00202662
0.00193036
0.00186253
0.00178411
0.00168124
0.00155266
0.00140321
0.00124247
0.00108286
0.000937606
0.000820908
0.000738038
0.000683014
0.000647528
0.000625408
0.000612725
0.000607092
0.000607092
0.000612408
0.000621918
0.000635211
0.00065239
0.00067365
0.000699311
0.000729926
0.000766508
0.000808568
0.000855814
0.000908864
0.000968314
0.00103398
0.0011119
0.00113914
0.00111151
0.00104359
0.000972167
)
;

boundaryField
{
    floor
    {
        type            nutkWallFunction;
        Cmu             0.09;
        kappa           0.41;
        E               9.8;
        value           nonuniform List<scalar> 
29
(
0.000145899
5.44208e-05
6.81059e-05
7.59298e-05
7.43845e-05
7.12057e-05
6.74248e-05
6.30817e-05
5.88608e-05
5.5011e-05
5.15565e-05
4.84629e-05
4.56827e-05
4.31941e-05
4.09315e-05
3.88205e-05
3.6757e-05
3.45793e-05
3.31318e-05
2.96106e-05
2.96105e-05
4.17802e-05
4.95584e-05
5.54346e-05
0.000145899
5.44207e-05
6.07344e-05
0.000124946
0.000170237
)
;
    }
    ceiling
    {
        type            nutkWallFunction;
        Cmu             0.09;
        kappa           0.41;
        E               9.8;
        value           nonuniform List<scalar> 
43
(
0.000209598
0.000221223
0.000229485
0.000244755
0.00023629
0.000225809
0.000218386
0.000209762
0.000198383
0.000184048
0.000167219
0.000148893
0.000130429
0.000113354
9.94144e-05
8.93751e-05
8.26359e-05
7.82556e-05
7.55106e-05
7.39316e-05
7.32291e-05
7.32294e-05
7.38927e-05
7.50774e-05
7.67298e-05
7.88589e-05
8.14844e-05
8.46402e-05
8.83874e-05
9.28404e-05
9.79294e-05
0.000103609
0.000109943
0.000116991
0.000124718
0.000133814
0.000136977
0.000133769
0.000125844
0.000117446
0.000344898
0.000404179
0.00023466
)
;
    }
    sWall
    {
        type            nutkWallFunction;
        Cmu             0.09;
        kappa           0.41;
        E               9.8;
        value           uniform 0.000209656;
    }
    nWall
    {
        type            nutkWallFunction;
        Cmu             0.09;
        kappa           0.41;
        E               9.8;
        value           nonuniform List<scalar> 6(9.52643e-05 9.92273e-05 0.000111796 0.000136889 0.000139352 0.000117452);
    }
    sideWalls
    {
        type            empty;
    }
    glass1
    {
        type            nutkWallFunction;
        Cmu             0.09;
        kappa           0.41;
        E               9.8;
        value           nonuniform List<scalar> 9(0.000126643 0.000171632 0.000208271 0.000242965 0.000277837 0.000314231 0.000347254 0.000353824 0.00034532);
    }
    glass2
    {
        type            nutkWallFunction;
        Cmu             0.09;
        kappa           0.41;
        E               9.8;
        value           nonuniform List<scalar> 2(0.000173213 0.000163581);
    }
    sun
    {
        type            nutkWallFunction;
        Cmu             0.09;
        kappa           0.41;
        E               9.8;
        value           nonuniform List<scalar> 
14
(
0.000126552
0.000137489
0.000139626
0.000145929
0.000151698
0.000157016
0.000162126
0.000167345
0.000171315
0.000173399
0.000173016
0.000169736
0.000163531
0.000155094
)
;
    }
    heatsource1
    {
        type            nutkWallFunction;
        Cmu             0.09;
        kappa           0.41;
        E               9.8;
        value           nonuniform List<scalar> 3(6.98278e-05 8.49526e-05 9.52641e-05);
    }
    heatsource2
    {
        type            nutkWallFunction;
        Cmu             0.09;
        kappa           0.41;
        E               9.8;
        value           nonuniform List<scalar> 4(0.000147982 9.5007e-05 9.5007e-05 0.000143869);
    }
    Table_master
    {
        type            nutkWallFunction;
        Cmu             0.09;
        kappa           0.41;
        E               9.8;
        value           nonuniform List<scalar> 9(9.0903e-05 8.05735e-05 7.21507e-05 6.52494e-05 5.9544e-05 5.47817e-05 5.07792e-05 4.74174e-05 4.46478e-05);
    }
    Table_slave
    {
        type            nutkWallFunction;
        Cmu             0.09;
        kappa           0.41;
        E               9.8;
        value           nonuniform List<scalar> 9(0.000102014 9.33705e-05 8.72047e-05 8.25293e-05 7.85391e-05 7.47663e-05 7.11222e-05 6.72509e-05 6.26762e-05);
    }
    inlet
    {
        type            calculated;
        value           uniform 0.000100623;
    }
    outlet
    {
        type            calculated;
        value           nonuniform List<scalar> 2(0.0017838 0.00188966);
    }
}


// ************************************************************************* //
