/*--------------------------------*- C++ -*----------------------------------*\
  =========                 |
  \\      /  F ield         | OpenFOAM: The Open Source CFD Toolbox
   \\    /   O peration     | Website:  https://openfoam.org
    \\  /    A nd           | Version:  6
     \\/     M anipulation  |
\*---------------------------------------------------------------------------*/
FoamFile
{
    version     2.0;
    format      ascii;
    class       volScalarField;
    location    "70";
    object      epsilon;
}
// * * * * * * * * * * * * * * * * * * * * * * * * * * * * * * * * * * * * * //

dimensions      [0 2 -3 0 0 0 0];

internalField   nonuniform List<scalar> 
459
(
0.00306878
0.00468636
0.00447548
0.00373397
0.00301939
0.00244794
0.00201395
0.00167505
0.00140231
0.0011768
0.000985178
0.000817332
0.000664765
0.000518227
0.000381124
0.000126729
0.000266305
0.000345797
0.000331819
0.00030268
0.000272972
0.000232559
0.000195582
0.000166296
0.000143181
0.000124351
0.000108116
9.32981e-05
7.89943e-05
6.45501e-05
4.97911e-05
3.50433e-05
2.10686e-05
2.80541e-05
0.00487738
0.0108764
0.00615905
0.00394378
0.00276019
0.00207422
0.00163457
0.00132648
0.00109441
0.000909124
0.000754243
0.000620582
0.000504003
0.000402783
0.000319868
0.00035077
0.000231001
0.00033461
0.00105185
0.000486273
0.000332025
0.000261687
0.00022089
0.00021254
0.000173591
0.000139739
0.000113124
9.27319e-05
7.70677e-05
6.36753e-05
5.11489e-05
3.97999e-05
3.23831e-05
3.32097e-05
2.5175e-05
3.66212e-05
0.00560444
0.0142682
0.00619553
0.00329103
0.00206246
0.00148804
0.00117392
0.000972169
0.00082098
0.000694434
0.000582469
0.000482426
0.000395303
0.000322141
0.000265
0.000241429
0.000244885
0.000388439
0.00100243
0.00049296
0.000323575
0.000245651
0.000211993
0.000452152
0.000317038
0.000216502
0.000144367
9.59939e-05
6.70035e-05
5.18331e-05
4.30739e-05
3.73833e-05
2.82636e-05
3.00918e-05
3.2002e-05
4.55473e-05
0.00542132
0.0124999
0.00433244
0.00178762
0.00100929
0.000764615
0.000676488
0.000614906
0.000551923
0.0004854
0.000419204
0.000357239
0.000302458
0.000256902
0.000222514
0.000200601
0.00020204
0.000257456
0.000362589
0.000306941
0.000268043
0.00024264
0.000220051
0.000207691
0.000511739
0.000386112
0.000305636
0.00024647
0.000198311
0.000157621
0.000121836
9.04154e-05
6.28349e-05
3.35614e-05
2.76384e-05
5.57315e-05
6.3e-05
0.00513563
0.00871499
0.0023484
0.00071652
0.000433204
0.000391014
0.000391913
0.000382386
0.000360139
0.000328436
0.000294712
0.000263078
0.000234955
0.000213191
0.000199817
0.000192789
0.000210724
0.000223031
0.000235608
0.000260175
0.000275472
0.000273547
0.000253868
0.000221417
0.00019971
0.000179144
0.000167808
0.000158368
0.000145497
0.000126458
0.00010236
7.80875e-05
5.18925e-05
3.51004e-05
2.70646e-05
6.08583e-05
8.31009e-05
0.0001089
0.00019178
0.000697938
0.00464086
0.0060971
0.00153589
0.000484261
0.000287668
0.000263505
0.000266791
0.000267122
0.000259841
0.000246904
0.000231887
0.000217693
0.000205519
0.000199933
0.000203886
0.000219119
0.00025629
0.000294156
0.000334119
0.000363926
0.000371919
0.00035182
0.00030841
0.000251759
0.000201041
0.000172989
0.000156699
0.000139526
0.000120009
0.000101475
8.6109e-05
7.27671e-05
5.60269e-05
4.58155e-05
3.65127e-05
6.11608e-05
9.85049e-05
0.000206649
0.000826624
0.00153051
0.00399588
0.00457812
0.00128456
0.000578241
0.000322951
0.000284228
0.000288984
0.000295029
0.000292302
0.000280979
0.000264758
0.000248838
0.000239493
0.000240226
0.000254283
0.000285259
0.000339038
0.000408603
0.000464165
0.000490167
0.000475411
0.000422014
0.000346874
0.000267442
0.000201209
0.000166398
0.000146605
0.000131905
0.000120749
0.000113267
0.000107709
0.000100351
8.72489e-05
7.40807e-05
6.10377e-05
7.3433e-05
0.000116068
0.000455062
0.00267413
0.00370069
0.00323989
0.00353401
0.00151528
0.00115196
0.000584114
0.000488889
0.000505704
0.0005262
0.000527038
0.000509736
0.000482844
0.000455013
0.000430751
0.000416257
0.000421636
0.000459098
0.000527003
0.000602593
0.00064581
0.000639429
0.000577882
0.000478491
0.000378622
0.000297224
0.000244816
0.00022095
0.000210594
0.000207195
0.000207792
0.000209864
0.000209635
0.000202368
0.000184728
0.000160338
0.000137249
0.000138278
0.000225836
0.00116754
0.0121148
0.0100928
0.00220586
0.00231564
0.00222494
0.00254928
0.00126455
0.00103568
0.00108014
0.00111982
0.00112134
0.00109175
0.00104502
0.000997131
0.000957882
0.00093267
0.000925471
0.00093836
0.000964981
0.000983883
0.000969158
0.000907478
0.000810787
0.000705698
0.000617519
0.000559966
0.000530876
0.000518464
0.000519243
0.000527972
0.000540563
0.000552145
0.000556402
0.000546278
0.000516906
0.000471524
0.000426869
0.00042308
0.000605217
0.00254319
0.0204734
0.015226
0.0029465
0.00420226
0.00271745
0.00247989
0.00252675
0.00253709
0.00252269
0.00248596
0.0024263
0.00236422
0.00231201
0.00227155
0.00223849
0.00220434
0.00215714
0.0020868
0.00200187
0.00190635
0.00181345
0.00173937
0.00168986
0.00165413
0.00163091
0.001625
0.00163567
0.00166013
0.00169311
0.00172624
0.00174812
0.00174562
0.00170824
0.00163716
0.00156107
0.00158162
0.00206178
0.00460253
0.0168385
0.00991825
0.00661073
0.00964665
0.00811303
0.0068134
0.00636936
0.00609554
0.00597491
0.00594153
0.00589169
0.00583065
0.00577798
0.00574015
0.0057126
0.0056839
0.0056395
0.00556843
0.00548933
0.00538578
0.00525776
0.00511681
0.00497513
0.00484909
0.00474734
0.00467897
0.00465041
0.00466357
0.00471414
0.00478902
0.00486345
0.00489841
0.00484302
0.00465108
0.00432592
0.00400641
0.00408995
0.00545799
0.00897373
0.00600232
0.000444224
0.000247634
0.000685547
0.00250185
0.00330588
0.00331653
0.0031486
0.00298914
0.00298666
0.00306646
0.00314665
0.00321498
0.00327137
0.00331405
0.00333941
0.00334516
0.00333471
0.00332213
0.0032927
0.00324988
0.00320224
0.00315884
0.00312614
0.00310739
0.00310547
0.00312088
0.00315116
0.0031912
0.00323308
0.00326617
0.0032781
0.00325703
0.00319613
0.00310359
0.00302554
0.00307495
0.00340686
0.00409866
0.00466369
0.00343331
)
;

boundaryField
{
    floor
    {
        Cmu             0.09;
        kappa           0.41;
        E               9.8;
        type            epsilonWallFunction;
        value           nonuniform List<scalar> 
29
(
0.000381124
0.000126729
0.000266305
0.000345797
0.000331819
0.00030268
0.000272972
0.000232559
0.000195582
0.000166296
0.000143181
0.000124351
0.000108116
9.32981e-05
7.89943e-05
6.45501e-05
4.97911e-05
3.50433e-05
2.10686e-05
2.80541e-05
2.80541e-05
3.66212e-05
4.55473e-05
6.3e-05
0.000381124
0.000126729
0.00033461
0.000388439
0.000257456
)
;
    }
    ceiling
    {
        Cmu             0.09;
        kappa           0.41;
        E               9.8;
        type            epsilonWallFunction;
        value           nonuniform List<scalar> 
43
(
0.000444224
0.000247634
0.000685547
0.00250185
0.00330588
0.00331653
0.0031486
0.00298914
0.00298666
0.00306646
0.00314665
0.00321498
0.00327137
0.00331405
0.00333941
0.00334516
0.00333471
0.00332213
0.0032927
0.00324988
0.00320224
0.00315884
0.00312614
0.00310739
0.00310547
0.00312088
0.00315116
0.0031912
0.00323308
0.00326617
0.0032781
0.00325703
0.00319613
0.00310359
0.00302554
0.00307495
0.00340686
0.00409866
0.00466369
0.00343331
0.00220586
0.00231564
0.00661073
)
;
    }
    sWall
    {
        Cmu             0.09;
        kappa           0.41;
        E               9.8;
        type            epsilonWallFunction;
        value           uniform 0.000444224;
    }
    nWall
    {
        Cmu             0.09;
        kappa           0.41;
        E               9.8;
        type            epsilonWallFunction;
        value           nonuniform List<scalar> 6(0.000697938 0.00153051 0.00370069 0.00991825 0.00600232 0.00343331);
    }
    sideWalls
    {
        type            empty;
    }
    glass1
    {
        Cmu             0.09;
        kappa           0.41;
        E               9.8;
        type            epsilonWallFunction;
        value           nonuniform List<scalar> 9(0.00306878 0.00487738 0.00560444 0.00542132 0.00513563 0.00464086 0.00399588 0.00323989 0.00220586);
    }
    glass2
    {
        Cmu             0.09;
        kappa           0.41;
        E               9.8;
        type            epsilonWallFunction;
        value           nonuniform List<scalar> 2(0.0100928 0.015226);
    }
    sun
    {
        Cmu             0.09;
        kappa           0.41;
        E               9.8;
        type            epsilonWallFunction;
        value           nonuniform List<scalar> 
14
(
0.00306878
0.00468636
0.00447548
0.00373397
0.00301939
0.00244794
0.00201395
0.00167505
0.00140231
0.0011768
0.000985178
0.000817332
0.000664765
0.000518227
)
;
    }
    heatsource1
    {
        Cmu             0.09;
        kappa           0.41;
        E               9.8;
        type            epsilonWallFunction;
        value           nonuniform List<scalar> 3(0.0001089 0.00019178 0.000697938);
    }
    heatsource2
    {
        Cmu             0.09;
        kappa           0.41;
        E               9.8;
        type            epsilonWallFunction;
        value           nonuniform List<scalar> 4(0.00035077 0.000231001 0.000231001 0.000244885);
    }
    Table_master
    {
        Cmu             0.09;
        kappa           0.41;
        E               9.8;
        type            epsilonWallFunction;
        value           nonuniform List<scalar> 9(0.000452152 0.000317038 0.000216502 0.000144367 9.59939e-05 6.70035e-05 5.18331e-05 4.30739e-05 3.73833e-05);
    }
    Table_slave
    {
        Cmu             0.09;
        kappa           0.41;
        E               9.8;
        type            epsilonWallFunction;
        value           nonuniform List<scalar> 9(0.000511739 0.000386112 0.000305636 0.00024647 0.000198311 0.000157621 0.000121836 9.04154e-05 6.28349e-05);
    }
    inlet
    {
        type            turbulentMixingLengthDissipationRateInlet;
        mixingLength    0.01;
        phi             phi;
        k               k;
        value           uniform 3.01869e-05;
    }
    outlet
    {
        type            zeroGradient;
    }
}


// ************************************************************************* //
