/*--------------------------------*- C++ -*----------------------------------*\
  =========                 |
  \\      /  F ield         | OpenFOAM: The Open Source CFD Toolbox
   \\    /   O peration     | Website:  https://openfoam.org
    \\  /    A nd           | Version:  6
     \\/     M anipulation  |
\*---------------------------------------------------------------------------*/
FoamFile
{
    version     2.0;
    format      ascii;
    class       volScalarField;
    location    "70";
    object      T;
}
// * * * * * * * * * * * * * * * * * * * * * * * * * * * * * * * * * * * * * //

dimensions      [0 0 0 1 0 0 0];

internalField   nonuniform List<scalar> 
459
(
303.395
303.44
303.488
303.525
303.549
303.567
303.584
303.6
303.617
303.634
303.65
303.666
303.681
303.697
303.705
304.619
304.415
304.301
304.277
304.291
304.31
304.332
304.361
304.401
304.452
304.514
304.585
304.665
304.753
304.847
304.941
305.03
305.101
305.103
303.424
303.519
303.607
303.67
303.709
303.735
303.756
303.773
303.787
303.797
303.804
303.806
303.801
303.788
303.764
303.784
303.817
304.573
304.329
304.247
304.245
304.272
304.305
304.323
304.35
304.396
304.468
304.562
304.668
304.78
304.889
304.985
305.064
305.125
305.162
305.198
303.416
303.56
303.717
303.83
303.895
303.93
303.949
303.957
303.959
303.955
303.945
303.93
303.908
303.878
303.842
303.833
303.841
304.368
304.15
304.164
304.218
304.284
304.343
304.345
304.362
304.416
304.529
304.692
304.863
305
305.096
305.159
305.19
305.211
305.219
305.248
303.386
303.571
303.841
304.046
304.14
304.168
304.162
304.144
304.123
304.1
304.073
304.042
304.006
303.964
303.917
303.887
303.872
303.892
303.958
304.036
304.142
304.255
304.357
304.437
304.489
304.514
304.534
304.554
304.585
304.641
304.74
304.9
305.106
305.239
305.271
305.266
305.284
303.335
303.548
303.957
304.282
304.365
304.364
304.333
304.3
304.266
304.229
304.19
304.148
304.101
304.051
303.999
303.962
303.942
303.965
304.039
304.148
304.277
304.403
304.513
304.598
304.658
304.694
304.726
304.769
304.831
304.919
305.039
305.179
305.303
305.344
305.335
305.312
305.304
305.32
305.409
305.712
303.251
303.465
303.964
304.413
304.51
304.508
304.481
304.447
304.409
304.366
304.322
304.272
304.215
304.161
304.111
304.079
304.074
304.127
304.233
304.36
304.492
304.614
304.715
304.792
304.847
304.888
304.936
304.998
305.075
305.168
305.265
305.351
305.407
305.409
305.384
305.356
305.335
305.343
305.443
305.727
303.111
303.26
303.796
304.485
304.641
304.658
304.644
304.62
304.588
304.548
304.499
304.443
304.387
304.332
304.29
304.276
304.303
304.393
304.505
304.625
304.743
304.847
304.931
304.995
305.048
305.099
305.151
305.208
305.272
305.335
305.391
305.432
305.451
305.444
305.418
305.391
305.361
305.367
305.476
305.762
302.906
302.899
303.337
304.48
304.769
304.821
304.821
304.804
304.78
304.751
304.717
304.679
304.635
304.591
304.56
304.564
304.614
304.702
304.797
304.895
304.991
305.073
305.136
305.187
305.232
305.274
305.314
305.355
305.395
305.431
305.459
305.476
305.48
305.471
305.451
305.427
305.39
305.398
305.503
305.83
302.628
302.344
302.301
304.343
304.869
304.975
304.982
304.963
304.943
304.925
304.909
304.893
304.879
304.869
304.871
304.89
304.932
304.993
305.063
305.133
305.196
305.251
305.295
305.332
305.364
305.392
305.419
305.445
305.47
305.49
305.506
305.514
305.515
305.508
305.493
305.472
305.441
305.45
305.547
305.835
300.911
304.194
304.999
305.139
305.124
305.08
305.052
305.043
305.043
305.047
305.055
305.068
305.088
305.117
305.155
305.2
305.247
305.291
305.33
305.364
305.392
305.416
305.438
305.46
305.48
305.5
305.519
305.535
305.547
305.555
305.558
305.556
305.549
305.538
305.527
305.54
305.621
305.796
305.024
305.294
305.437
305.401
305.287
305.17
305.115
305.11
305.122
305.14
305.161
305.185
305.212
305.242
305.275
305.309
305.341
305.37
305.396
305.418
305.439
305.458
305.477
305.497
305.516
305.535
305.552
305.568
305.582
305.593
305.601
305.606
305.609
305.611
305.615
305.634
305.699
305.788
307.3
307.191
306.923
306.479
306.151
305.864
305.571
305.261
305.14
305.144
305.172
305.203
305.234
305.263
305.292
305.319
305.344
305.367
305.388
305.407
305.424
305.441
305.459
305.477
305.495
305.515
305.535
305.555
305.574
305.592
305.609
305.623
305.636
305.648
305.66
305.671
305.684
305.705
305.747
305.798
)
;

boundaryField
{
    floor
    {
        type            wallHeatTransfer;
        Tinf            uniform 297.65;
        alphaWall       uniform 0.24;
        value           nonuniform List<scalar> 
29
(
303.041
303.618
303.603
303.553
303.524
303.518
303.515
303.503
303.493
303.492
303.503
303.524
303.552
303.583
303.614
303.638
303.643
303.61
303.502
303.598
303.598
303.758
303.867
303.993
303.041
303.618
303.787
303.633
303.137
)
;
    }
    ceiling
    {
        type            wallHeatTransfer;
        Tinf            uniform 297.65;
        alphaWall       uniform 0.24;
        value           nonuniform List<scalar> 
43
(
306.273
306.018
306.04
305.88
305.616
305.348
305.067
304.771
304.657
304.664
304.694
304.726
304.757
304.786
304.814
304.839
304.862
304.883
304.902
304.918
304.932
304.947
304.961
304.977
304.995
305.014
305.034
305.054
305.074
305.092
305.108
305.121
305.131
305.138
305.145
305.158
305.184
305.228
305.284
305.292
302.282
302.022
304.641
)
;
    }
    sWall
    {
        type            wallHeatTransfer;
        Tinf            uniform 298.15;
        alphaWall       uniform 0.36;
        value           uniform 305.914;
    }
    nWall
    {
        type            wallHeatTransfer;
        Tinf            uniform 299.15;
        alphaWall       uniform 0.36;
        value           nonuniform List<scalar> 6(304.824 304.995 305.176 305.344 305.271 305.197);
    }
    sideWalls
    {
        type            empty;
    }
    glass1
    {
        type            wallHeatTransfer;
        Tinf            uniform 298.15;
        alphaWall       uniform 4.3;
        value           nonuniform List<scalar> 9(300.524 300.712 300.761 300.733 300.688 300.61 300.489 300.321 300.073);
    }
    glass2
    {
        type            wallHeatTransfer;
        Tinf            uniform 299.15;
        alphaWall       uniform 4.3;
        value           nonuniform List<scalar> 2(302.737 302.937);
    }
    sun
    {
        type            wallHeatTransfer;
        Tinf            uniform 297.65;
        alphaWall       uniform 0.24;
        value           nonuniform List<scalar> 
14
(
303.03
303.112
303.153
303.17
303.172
303.166
303.161
303.155
303.149
303.142
303.133
303.122
303.107
303.083
)
;
    }
    heatsource1
    {
        type            fixedGradient;
        gradient        uniform 0;
    }
    heatsource2
    {
        type            fixedGradient;
        gradient        uniform 0;
    }
    Table_master
    {
        type            zeroGradient;
    }
    Table_slave
    {
        type            zeroGradient;
    }
    inlet
    {
        type            fixedValue;
        value           uniform 299.15;
    }
    outlet
    {
        type            zeroGradient;
    }
}


// ************************************************************************* //
