/*--------------------------------*- C++ -*----------------------------------*\
  =========                 |
  \\      /  F ield         | OpenFOAM: The Open Source CFD Toolbox
   \\    /   O peration     | Website:  https://openfoam.org
    \\  /    A nd           | Version:  6
     \\/     M anipulation  |
\*---------------------------------------------------------------------------*/
FoamFile
{
    version     2.0;
    format      ascii;
    class       volScalarField;
    location    "300";
    object      alphat;
}
// * * * * * * * * * * * * * * * * * * * * * * * * * * * * * * * * * * * * * //

dimensions      [1 -1 -1 0 0 0 0];

internalField   nonuniform List<scalar> 
459
(
0.000830978
0.000856499
0.00079301
0.000823258
0.000855438
0.000885719
0.000914248
0.000941775
0.000969404
0.000997794
0.00102182
0.00104014
0.0010518
0.00105629
0.00104942
0.00040132
0.000443826
0.000456999
0.000366172
0.000280378
0.000254184
0.000244708
0.000256526
0.000279619
0.000309984
0.000342182
0.000372084
0.000394257
0.000407841
0.000432066
0.000468323
0.000496008
0.000496323
0.000439325
0.00140351
0.00245058
0.00181752
0.00237125
0.00258757
0.00280875
0.0030372
0.00325415
0.00343261
0.00354996
0.00360889
0.00357125
0.00337411
0.00291567
0.00209466
0.00112898
0.000751471
0.000549801
0.00119188
0.00135783
0.00127495
0.000928416
0.000538398
0.000360493
0.000427399
0.000595351
0.00081657
0.00104265
0.00125211
0.00142897
0.00156765
0.00170723
0.00185415
0.00174189
0.00173043
0.000548434
0.00191339
0.00405368
0.00191754
0.00336434
0.00385152
0.00410619
0.00432518
0.0045125
0.00466045
0.00475849
0.00481189
0.00477773
0.00458555
0.00412942
0.00331198
0.00222026
0.00119594
0.000929113
0.00248242
0.00222738
0.0018405
0.00137298
0.00093273
0.000350842
0.000371414
0.000412275
0.000453557
0.000496422
0.000542813
0.000596245
0.000662051
0.000749405
0.00182739
0.00160565
0.00127984
0.000744747
0.00239855
0.00608529
0.0021464
0.00353171
0.00449345
0.00475859
0.00493119
0.0050775
0.00520661
0.00531618
0.00543125
0.00553807
0.0055752
0.00542021
0.00488313
0.00379523
0.00231551
0.00125165
0.00299512
0.00319813
0.00282319
0.00225932
0.00171804
0.00119477
0.000774459
0.000767203
0.000762681
0.000759711
0.000760019
0.000766826
0.000784762
0.000820487
0.000898791
0.00270999
0.0031516
0.00306955
0.00107948
0.00284925
0.00828877
0.00285654
0.00318279
0.00462793
0.00494638
0.00506477
0.00515055
0.00523517
0.00533434
0.00550652
0.00578538
0.00615435
0.00655959
0.00689809
0.00703944
0.00689051
0.00646514
0.00623321
0.00579927
0.0053391
0.00493882
0.00460053
0.00430575
0.00404593
0.00386302
0.00367598
0.00349434
0.00334665
0.00326654
0.00327374
0.00336524
0.00352523
0.00373651
0.00385706
0.00380394
0.0033211
0.00148249
0.00132321
0.00115915
0.00327053
0.0102527
0.00429535
0.00287053
0.0042113
0.00472726
0.00488347
0.00493709
0.00494825
0.00495886
0.00510188
0.0053983
0.00585835
0.00647167
0.00715714
0.00775796
0.0080909
0.00805972
0.0077674
0.0073601
0.00695936
0.0066132
0.00631576
0.00604127
0.00575312
0.00542844
0.0050601
0.00466794
0.00430275
0.00403101
0.00389203
0.00387087
0.00391384
0.00395607
0.00396106
0.0038937
0.00362208
0.00297839
0.00227963
0.0012109
0.00366485
0.0116651
0.00683622
0.00357149
0.00322362
0.00384742
0.00437967
0.00466638
0.00471491
0.00461956
0.00467398
0.00484533
0.00516699
0.00568801
0.0063948
0.00715524
0.00776102
0.00806425
0.00807306
0.00790245
0.00767594
0.0074566
0.00725788
0.00706641
0.00685122
0.00658011
0.00622521
0.0057731
0.00525541
0.00476081
0.00437839
0.00412896
0.00397414
0.00384817
0.003687
0.00343454
0.00304252
0.00254682
0.00203145
0.00118718
0.00375797
0.0118849
0.00897496
0.00649812
0.00462356
0.00390951
0.00411601
0.00452123
0.00457103
0.00447795
0.00443278
0.00446045
0.00457621
0.00481964
0.00524587
0.00585911
0.00653657
0.00709285
0.0074194
0.00753846
0.0075518
0.00752444
0.00748875
0.00745426
0.00741504
0.00735502
0.00724004
0.00701455
0.00663743
0.00615191
0.00566078
0.00519375
0.00475485
0.00433269
0.00391987
0.0035306
0.00312442
0.00276552
0.00245218
0.00150723
0.00364389
0.00437037
0.00518608
0.00527248
0.00490274
0.00444106
0.00413789
0.00400878
0.00395844
0.00396284
0.00399582
0.00404156
0.00409973
0.00418856
0.00434776
0.00462728
0.00504166
0.00552658
0.00597728
0.00633316
0.00659443
0.00678562
0.00693287
0.00705794
0.0071801
0.0073185
0.00748192
0.00764475
0.00772624
0.007601
0.00727442
0.00688102
0.00656806
0.00642834
0.00640478
0.00606231
0.00514704
0.0042876
0.00442801
0.00172123
0.00506307
0.00683454
0.00577432
0.00516295
0.00474994
0.00446634
0.00426622
0.00411235
0.0039924
0.00389794
0.00382425
0.00377336
0.00375673
0.00379654
0.00392025
0.00414321
0.00445084
0.00480292
0.00515427
0.00547189
0.00574369
0.00597566
0.00618606
0.00640198
0.00665456
0.00696282
0.0072905
0.00753279
0.00759494
0.00745717
0.00721259
0.00697921
0.0067873
0.00657176
0.00598937
0.00504722
0.0046142
0.00169083
0.00342766
0.00708502
0.00596541
0.00533936
0.00489416
0.00455344
0.00429002
0.00407825
0.00387653
0.00369816
0.00355143
0.00344232
0.00337671
0.003362
0.00340742
0.00352183
0.00370862
0.00395956
0.00425152
0.00454191
0.00480888
0.00504153
0.00523823
0.00540427
0.00554936
0.00568571
0.0058289
0.00598676
0.00611926
0.00616901
0.00611094
0.0059698
0.00577369
0.00544453
0.00486947
0.00401435
0.0039044
0.00151422
0.00221581
0.00253854
0.00291721
0.0030353
0.00265826
0.00241097
0.00221075
0.00203821
0.00188589
0.00175092
0.00163611
0.00153507
0.00144451
0.00136297
0.00129015
0.00122655
0.00117308
0.00113075
0.00110026
0.00108168
0.00107412
0.00107711
0.00108609
0.0010974
0.00110878
0.00111923
0.00112878
0.00113838
0.00115019
0.0011666
0.0011875
0.00121017
0.00122891
0.00123619
0.00122425
0.00119565
0.00116147
0.00111799
0.00113887
0.00109483
)
;

boundaryField
{
    floor
    {
        type            compressible::alphatWallFunction;
        Prt             0.85;
        value           nonuniform List<scalar> 
29
(
0.00014925
5.38716e-05
6.05207e-05
6.25654e-05
4.83059e-05
3.44046e-05
3.00547e-05
2.84667e-05
3.04446e-05
3.42775e-05
3.92545e-05
4.44626e-05
4.92427e-05
5.27557e-05
5.4896e-05
5.86905e-05
6.43196e-05
6.858e-05
6.86271e-05
5.98254e-05
5.98246e-05
7.6566e-05
0.000105719
0.000153448
0.000149248
5.38709e-05
7.67692e-05
0.000132242
0.000177267
)
;
    }
    ceiling
    {
        type            compressible::alphatWallFunction;
        Prt             0.85;
        value           nonuniform List<scalar> 
43
(
0.000305262
0.000346534
0.000394262
0.000409026
0.000361715
0.000330303
0.000304619
0.000282284
0.000262397
0.000244627
0.000229394
0.000215889
0.0002037
0.000192651
0.000182721
0.000173994
0.000166618
0.000160749
0.000156507
0.000153913
0.000152855
0.000153268
0.000154519
0.000156095
0.000157678
0.00015913
0.000160456
0.000161789
0.000163426
0.000165696
0.000168585
0.000171711
0.000174292
0.000175292
0.000173651
0.000169709
0.000164984
0.000158951
0.00016185
0.000155728
0.000484227
0.000572233
0.000457604
)
;
    }
    sWall
    {
        type            compressible::alphatWallFunction;
        Prt             0.85;
        value           uniform 0.000304187;
    }
    nWall
    {
        type            compressible::alphatWallFunction;
        Prt             0.85;
        value           nonuniform List<scalar> 6(0.000164335 0.000171484 0.000168213 0.000236288 0.000212714 0.000155409);
    }
    sideWalls
    {
        type            empty;
    }
    glass1
    {
        type            compressible::alphatWallFunction;
        Prt             0.85;
        value           nonuniform List<scalar> 9(0.000115017 0.000193506 0.000260555 0.000322697 0.000379327 0.000431479 0.000479701 0.00049114 0.00047749);
    }
    glass2
    {
        type            compressible::alphatWallFunction;
        Prt             0.85;
        value           nonuniform List<scalar> 2(0.000210625 0.000239054);
    }
    sun
    {
        type            compressible::alphatWallFunction;
        Prt             0.85;
        value           nonuniform List<scalar> 
14
(
0.000118274
0.000121923
0.000112775
0.000117144
0.000121771
0.000126105
0.000130173
0.000134084
0.000137996
0.000142002
0.000145383
0.000147952
0.000149585
0.000150214
)
;
    }
    heatsource1
    {
        type            compressible::alphatWallFunction;
        Prt             0.85;
        value           nonuniform List<scalar> 3(0.00020877 0.000187187 0.000164644);
    }
    heatsource2
    {
        type            compressible::alphatWallFunction;
        Prt             0.85;
        value           nonuniform List<scalar> 4(0.000160456 0.000106849 0.000106848 0.000169723);
    }
    Table_master
    {
        type            compressible::alphatWallFunction;
        Prt             0.85;
        value           nonuniform List<scalar> 9(4.6004e-05 4.92887e-05 5.57464e-05 6.21875e-05 6.8797e-05 7.58696e-05 8.39231e-05 9.37205e-05 0.000106545);
    }
    Table_slave
    {
        type            compressible::alphatWallFunction;
        Prt             0.85;
        value           nonuniform List<scalar> 9(0.000110194 0.00010914 0.000108483 0.000108051 0.000108095 0.000109085 0.000111687 0.000116851 0.000128078);
    }
    inlet
    {
        type            fixedValue;
        value           uniform 1.94e-05;
    }
    outlet
    {
        type            zeroGradient;
    }
}


// ************************************************************************* //
