/*--------------------------------*- C++ -*----------------------------------*\
  =========                 |
  \\      /  F ield         | OpenFOAM: The Open Source CFD Toolbox
   \\    /   O peration     | Website:  https://openfoam.org
    \\  /    A nd           | Version:  6
     \\/     M anipulation  |
\*---------------------------------------------------------------------------*/
FoamFile
{
    version     2.0;
    format      ascii;
    class       volScalarField;
    location    "1300";
    object      alphat;
}
// * * * * * * * * * * * * * * * * * * * * * * * * * * * * * * * * * * * * * //

dimensions      [1 -1 -1 0 0 0 0];

internalField   nonuniform List<scalar> 
459
(
0.00299737
0.00287288
0.00276537
0.00267482
0.00259954
0.00253505
0.00247804
0.00242587
0.00237645
0.00232742
0.00227622
0.0022195
0.00215193
0.00206253
0.0019449
0.000577135
0.000687935
0.000787464
0.000885945
0.000960741
0.000974938
0.000852687
0.000731554
0.000626546
0.000521625
0.000421317
0.000341589
0.000290961
0.000264833
0.000257156
0.000271596
0.000352332
0.000528738
0.000641084
0.00336715
0.00367401
0.00372183
0.00365454
0.00364584
0.00369486
0.00377156
0.00383593
0.00385986
0.00382815
0.00372648
0.00354204
0.00326378
0.00287918
0.00239834
0.00187747
0.00171004
0.00072096
0.0016064
0.00210904
0.00267115
0.00307015
0.0031078
0.0018805
0.00159038
0.00130238
0.00108195
0.000939602
0.000856786
0.000811302
0.000790766
0.000802528
0.0008565
0.00109572
0.00143007
0.000811289
0.003622
0.0040473
0.00383237
0.00359544
0.00364881
0.00389498
0.00422052
0.00451399
0.00471338
0.00477476
0.00467433
0.00441127
0.00400546
0.00348698
0.00291422
0.00239508
0.00171365
0.00088606
0.00235739
0.00240551
0.0026318
0.00315285
0.00335676
0.00106626
0.000810728
0.000664719
0.000582856
0.000528196
0.000488204
0.000457485
0.000433693
0.000418291
0.000538075
0.000889188
0.00143726
0.000860928
0.00382868
0.00438018
0.00365423
0.00333158
0.00387054
0.004798
0.00570673
0.00634679
0.00648273
0.00627694
0.00584994
0.00528931
0.00465317
0.00397691
0.00329951
0.0026932
0.00200157
0.00159065
0.00130116
0.00202984
0.00203354
0.00240908
0.0031819
0.00373416
0.00130286
0.00122689
0.00116181
0.00110257
0.00104729
0.000998272
0.00094994
0.000897676
0.000835893
0.000739212
0.000835171
0.00135934
0.000871767
0.00402242
0.00459019
0.00331204
0.00351504
0.00559509
0.00723605
0.00811758
0.0084632
0.00822987
0.00755433
0.00673315
0.00589175
0.00507483
0.00429584
0.00356966
0.00293737
0.00231539
0.00194637
0.0017014
0.00168713
0.00186743
0.00254082
0.00358461
0.00458086
0.00487507
0.0048443
0.00470953
0.00455662
0.00439674
0.00408551
0.00364337
0.00308366
0.00243068
0.00179556
0.00143248
0.00140767
0.00116058
0.000846728
0.00090038
0.00125598
0.00422656
0.00463562
0.00301391
0.00450487
0.00688374
0.00806041
0.00860858
0.00875356
0.00853306
0.00780332
0.00689664
0.00601349
0.00519097
0.00442915
0.00373516
0.00313036
0.00257652
0.0022462
0.00204898
0.00206059
0.0024456
0.00343702
0.00467799
0.00570286
0.00625348
0.00644265
0.00648076
0.00644957
0.00623856
0.00581661
0.00519571
0.0044066
0.00351196
0.00266278
0.00209459
0.00174335
0.00138369
0.00142566
0.00208161
0.00165551
0.00446923
0.00464206
0.0031165
0.004162
0.00637184
0.00726532
0.00762807
0.00769153
0.0074953
0.00706939
0.00644844
0.00577384
0.00510214
0.00446122
0.00385744
0.00328163
0.00281328
0.0025923
0.00256483
0.00290252
0.00389271
0.00531088
0.0065806
0.00738644
0.00770389
0.00772853
0.00763223
0.00740475
0.00702023
0.00647282
0.00576612
0.00492804
0.00402336
0.0031887
0.00258851
0.00211143
0.0016063
0.0020063
0.00362139
0.00226901
0.0048055
0.0050588
0.00405648
0.00346693
0.00523387
0.00602901
0.006319
0.00644822
0.00637543
0.00614476
0.00578817
0.00535727
0.00489213
0.00442725
0.00398034
0.0035426
0.00320168
0.00324746
0.00376885
0.00498568
0.00659465
0.00791349
0.00870993
0.00895607
0.00878756
0.00839749
0.00788327
0.00734441
0.00677888
0.00615908
0.00547659
0.00475116
0.00403397
0.00340707
0.00294066
0.00254238
0.00214691
0.00272711
0.00635226
0.0031495
0.00533386
0.00615545
0.00680512
0.0045712
0.00479635
0.00555553
0.00571303
0.00583173
0.00583645
0.00568975
0.00545813
0.00519392
0.00492071
0.00465955
0.00443364
0.00427638
0.0043349
0.00499902
0.00649951
0.00814352
0.009351
0.00986167
0.00986149
0.00940238
0.00864471
0.00784948
0.0071503
0.00655157
0.00601839
0.00552514
0.00506859
0.00466571
0.00434645
0.00414126
0.00405822
0.00404938
0.00397218
0.00444113
0.0084849
0.00354601
0.00966719
0.00613652
0.00564042
0.00605523
0.00614902
0.00626648
0.00636605
0.00635941
0.00621095
0.00604157
0.00593617
0.0059156
0.00601368
0.00629813
0.00690219
0.00795401
0.0091506
0.00992301
0.0101496
0.0099408
0.00949927
0.00897068
0.00845205
0.00799266
0.00761331
0.00730488
0.00705217
0.00685031
0.00670524
0.00662953
0.00663557
0.00672446
0.00686695
0.00698138
0.00694319
0.00708061
0.00912679
0.00303407
0.00426101
0.00504858
0.006495
0.00672122
0.00688356
0.00686731
0.00675107
0.0065791
0.00637012
0.00618106
0.00613891
0.00624322
0.00651332
0.00699328
0.00773284
0.0086959
0.00958759
0.0101462
0.0103467
0.0102707
0.010037
0.00975646
0.00949512
0.00927838
0.0091087
0.00897715
0.0088774
0.0088116
0.00878853
0.00881973
0.00891311
0.00905913
0.00920544
0.00924087
0.009054
0.00868368
0.00749943
0.00257626
0.00190227
0.00166525
0.00265964
0.00214077
0.00198173
0.00197367
0.00197954
0.00198486
0.00199622
0.00201699
0.00204922
0.00209005
0.00213547
0.00218945
0.00225401
0.00232872
0.00240856
0.00248074
0.00253041
0.00255066
0.00254426
0.00252126
0.00249349
0.00246782
0.00244714
0.00243204
0.00242179
0.00241555
0.00241296
0.00241418
0.00241972
0.00242991
0.00244399
0.00245879
0.00246948
0.00247759
0.00250117
0.0025459
0.00250917
0.00219831
)
;

boundaryField
{
    floor
    {
        type            compressible::alphatWallFunction;
        Prt             0.85;
        value           nonuniform List<scalar> 
29
(
0.000270321
8.13025e-05
9.78018e-05
0.000112348
0.000126522
0.00013716
0.000139164
0.000121746
0.000104185
8.86732e-05
7.28459e-05
5.73443e-05
4.46985e-05
3.64789e-05
3.21677e-05
3.08959e-05
3.33132e-05
4.6497e-05
7.40246e-05
9.09054e-05
9.09043e-05
0.000115845
0.000122999
0.000124549
0.000270319
8.13015e-05
0.000102692
0.000126583
0.000223536
)
;
    }
    ceiling
    {
        type            compressible::alphatWallFunction;
        Prt             0.85;
        value           nonuniform List<scalar> 
43
(
0.000265568
0.0002342
0.000362504
0.000296101
0.000275348
0.000274291
0.000275056
0.00027575
0.000277231
0.000279936
0.000284129
0.00028943
0.000295316
0.000302296
0.00031062
0.000320224
0.000330453
0.000339671
0.000346001
0.000348582
0.000347776
0.000344856
0.000341326
0.000338059
0.000335423
0.000333496
0.000332187
0.00033139
0.000331058
0.000331213
0.000331919
0.000333219
0.000335015
0.000336903
0.000338264
0.000339298
0.000342298
0.000347981
0.000343314
0.000303505
0.000687019
0.000783055
0.000559456
)
;
    }
    sWall
    {
        type            compressible::alphatWallFunction;
        Prt             0.85;
        value           uniform 0.00026502;
    }
    nWall
    {
        type            compressible::alphatWallFunction;
        Prt             0.85;
        value           nonuniform List<scalar> 6(0.000178393 0.00023234 0.000312496 0.000409265 0.000351716 0.000303393);
    }
    sideWalls
    {
        type            empty;
    }
    glass1
    {
        type            compressible::alphatWallFunction;
        Prt             0.85;
        value           nonuniform List<scalar> 9(0.00040063 0.000446253 0.000477398 0.00050249 0.000525886 0.000550415 0.000579422 0.000619359 0.00068155);
    }
    glass2
    {
        type            compressible::alphatWallFunction;
        Prt             0.85;
        value           nonuniform List<scalar> 2(0.000425985 0.000475092);
    }
    sun
    {
        type            compressible::alphatWallFunction;
        Prt             0.85;
        value           nonuniform List<scalar> 
14
(
0.000404507
0.000388932
0.000375427
0.000364011
0.000354488
0.000346308
0.000339057
0.000332407
0.000326093
0.000319816
0.000313246
0.000305949
0.000297229
0.000285646
)
;
    }
    heatsource1
    {
        type            compressible::alphatWallFunction;
        Prt             0.85;
        value           nonuniform List<scalar> 3(0.000120637 0.000128318 0.000178008);
    }
    heatsource2
    {
        type            compressible::alphatWallFunction;
        Prt             0.85;
        value           nonuniform List<scalar> 4(0.000261236 0.00023916 0.000239157 0.000239636);
    }
    Table_master
    {
        type            compressible::alphatWallFunction;
        Prt             0.85;
        value           nonuniform List<scalar> 9(0.000151706 0.000115452 9.41362e-05 8.19319e-05 7.36649e-05 6.75482e-05 6.28067e-05 5.91063e-05 5.66966e-05);
    }
    Table_slave
    {
        type            compressible::alphatWallFunction;
        Prt             0.85;
        value           nonuniform List<scalar> 9(0.000184394 0.000173979 0.000165 0.000156777 0.000149057 0.000142171 0.000135343 0.000127914 0.000119065);
    }
    inlet
    {
        type            fixedValue;
        value           uniform 1.94e-05;
    }
    outlet
    {
        type            zeroGradient;
    }
}


// ************************************************************************* //
