// -*- C++ -*-
// File generated by PyFoam - sorry for the ugliness

FoamFile
{
 version 2.0;
 format ascii;
 class volScalarField;
 location "1300";
 object T;
}

dimensions [ 0 0 0 1 0 0 0 ];

internalField nonuniform List<scalar> 459
(
  309.189
  309.176
  309.194
  309.213
  309.231
  309.246
  309.259
  309.271
  309.283
  309.295
  309.308
  309.32
  309.334
  309.349
  309.365
  310.473
  310.56
  310.532
  310.49
  310.47
  310.514
  310.568
  310.599
  310.59
  310.527
  310.428
  310.342
  310.292
  310.269
  310.258
  310.25
  310.27
  310.367
  310.468
  309.111
  309.131
  309.21
  309.279
  309.334
  309.375
  309.405
  309.424
  309.44
  309.451
  309.457
  309.458
  309.451
  309.435
  309.414
  309.432
  309.467
  310.521
  310.545
  310.484
  310.389
  310.379
  310.437
  310.517
  310.597
  310.638
  310.642
  310.63
  310.623
  310.623
  310.625
  310.622
  310.607
  310.567
  310.515
  310.574
  309.051
  309.117
  309.319
  309.483
  309.601
  309.683
  309.736
  309.759
  309.762
  309.746
  309.715
  309.671
  309.618
  309.56
  309.504
  309.486
  309.494
  310.515
  310.513
  310.42
  310.279
  310.297
  310.373
  310.464
  310.605
  310.694
  310.737
  310.765
  310.789
  310.809
  310.824
  310.826
  310.805
  310.754
  310.697
  310.729
  308.995
  309.116
  309.499
  309.792
  309.975
  310.076
  310.125
  310.14
  310.109
  310.049
  309.969
  309.878
  309.78
  309.684
  309.595
  309.543
  309.524
  309.564
  310.253
  310.395
  310.249
  310.181
  310.23
  310.343
  310.47
  310.553
  310.619
  310.674
  310.724
  310.774
  310.824
  310.875
  310.928
  310.936
  310.909
  310.859
  310.844
  308.936
  309.113
  309.691
  310.112
  310.273
  310.309
  310.314
  310.306
  310.274
  310.209
  310.118
  310.008
  309.891
  309.775
  309.669
  309.599
  309.564
  309.585
  309.857
  309.99
  310.01
  310.061
  310.19
  310.362
  310.526
  310.651
  310.744
  310.819
  310.886
  310.943
  310.99
  311.029
  311.058
  311.062
  311.038
  310.997
  310.941
  310.984
  311.162
  311.868
  308.872
  309.095
  309.814
  310.299
  310.348
  310.337
  310.323
  310.311
  310.294
  310.246
  310.162
  310.055
  309.94
  309.824
  309.716
  309.643
  309.601
  309.611
  309.744
  309.827
  309.894
  310.037
  310.251
  310.483
  310.684
  310.835
  310.942
  311.027
  311.089
  311.132
  311.163
  311.183
  311.193
  311.185
  311.164
  311.143
  311.078
  311.085
  311.344
  311.768
  308.796
  309.038
  309.746
  310.317
  310.336
  310.3
  310.267
  310.244
  310.221
  310.186
  310.124
  310.04
  309.943
  309.842
  309.744
  309.671
  309.633
  309.642
  309.725
  309.806
  309.95
  310.195
  310.481
  310.748
  310.959
  311.107
  311.208
  311.27
  311.302
  311.32
  311.329
  311.331
  311.325
  311.31
  311.29
  311.276
  311.203
  311.19
  311.43
  311.72
  308.685
  308.849
  309.414
  310.33
  310.34
  310.274
  310.214
  310.168
  310.13
  310.094
  310.048
  309.986
  309.913
  309.835
  309.759
  309.7
  309.668
  309.693
  309.795
  309.965
  310.239
  310.567
  310.879
  311.129
  311.305
  311.424
  311.478
  311.494
  311.497
  311.494
  311.488
  311.479
  311.466
  311.45
  311.434
  311.419
  311.343
  311.31
  311.469
  311.702
  308.489
  308.35
  308.32
  310.426
  310.428
  310.321
  310.228
  310.15
  310.087
  310.037
  309.995
  309.948
  309.897
  309.844
  309.796
  309.764
  309.767
  309.855
  310.099
  310.432
  310.786
  311.102
  311.37
  311.544
  311.643
  311.685
  311.696
  311.692
  311.684
  311.673
  311.662
  311.651
  311.639
  311.628
  311.617
  311.6
  311.535
  311.481
  311.569
  311.753
  306.028
  310.633
  310.592
  310.457
  310.348
  310.255
  310.177
  310.113
  310.065
  310.028
  309.997
  309.976
  309.973
  310.006
  310.106
  310.335
  310.701
  311.094
  311.415
  311.627
  311.765
  311.841
  311.873
  311.882
  311.879
  311.871
  311.86
  311.849
  311.839
  311.829
  311.819
  311.81
  311.798
  311.777
  311.733
  311.686
  311.719
  311.786
  309.656
  311.25
  310.792
  310.653
  310.567
  310.495
  310.436
  310.389
  310.354
  310.337
  310.339
  310.365
  310.426
  310.54
  310.729
  311.008
  311.325
  311.598
  311.793
  311.913
  311.978
  312.009
  312.019
  312.018
  312.012
  312.002
  311.992
  311.982
  311.972
  311.961
  311.951
  311.939
  311.923
  311.9
  311.868
  311.838
  311.846
  311.853
  321.303
  319.885
  313.671
  312.133
  310.972
  310.905
  310.901
  310.906
  310.915
  310.927
  310.941
  310.963
  311.007
  311.076
  311.176
  311.313
  311.486
  311.679
  311.851
  311.977
  312.057
  312.101
  312.122
  312.129
  312.128
  312.122
  312.115
  312.106
  312.096
  312.086
  312.076
  312.064
  312.052
  312.037
  312.019
  311.997
  311.974
  311.955
  311.954
  311.958
)
;

boundaryField
{
  floor
  {
    type wallHeatTransfer;
    Tinf uniform 305.2;
    alphaWall uniform 0.24;
    value nonuniform List<scalar> 29
(
  309.053
  309.507
  309.688
  309.743
  309.77
  309.794
  309.839
  309.817
  309.757
  309.655
  309.484
  309.256
  309.035
  308.874
  308.783
  308.752
  308.791
  309.006
  309.365
  309.569
  309.569
  309.795
  309.961
  310.067
  309.053
  309.507
  309.683
  309.791
  309.181
)
;
  }
  ceiling
  {
    type wallHeatTransfer;
    Tinf uniform 303.2;
    alphaWall uniform 0.24;
    value nonuniform List<scalar> 43
(
  319.925
  318.475
  313.062
  311.514
  310.399
  310.334
  310.332
  310.338
  310.349
  310.364
  310.385
  310.414
  310.464
  310.539
  310.645
  310.787
  310.963
  311.156
  311.326
  311.448
  311.522
  311.56
  311.575
  311.577
  311.572
  311.564
  311.555
  311.545
  311.536
  311.527
  311.518
  311.509
  311.5
  311.489
  311.474
  311.455
  311.437
  311.427
  311.42
  311.363
  308.317
  308.202
  309.402
)
;
  }
  sWall
  {
    type wallHeatTransfer;
    Tinf uniform 315.2;
    alphaWall uniform 0.36;
    value uniform 320.631;
  }
  nWall
  {
    type wallHeatTransfer;
    Tinf uniform 307.2;
    alphaWall uniform 0.36;
    value nonuniform List<scalar> 6
(
  311.169
  311.209
  311.285
  311.436
  311.448
  311.489
)
;
  }
  sideWalls
  {
    type empty;
  }
  glass1
  {
    type wallHeatTransfer;
    Tinf uniform 315.2;
    alphaWall uniform 4.3;
    value nonuniform List<scalar> 9
(
  312.207
  312.014
  311.885
  311.779
  311.68
  311.577
  311.456
  311.291
  311.026
)
;
  }
  glass2
  {
    type wallHeatTransfer;
    Tinf uniform 307.2;
    alphaWall uniform 4.3;
    value nonuniform List<scalar> 2
(
  309.507
  309.65
)
;
  }
  sun
  {
    type wallHeatTransfer;
    Tinf uniform 305.2;
    alphaWall uniform 0.24;
    value nonuniform List<scalar> 14
(
  308.978
  308.959
  308.969
  308.98
  308.991
  309.001
  309.009
  309.016
  309.023
  309.03
  309.036
  309.043
  309.048
  309.052
)
;
  }
  heatsource1
  {
    type fixedGradient;
    gradient uniform 0;
  }
  heatsource2
  {
    type fixedGradient;
    gradient uniform 0;
  }
  Table_master
  {
    type zeroGradient;
  }
  Table_slave
  {
    type zeroGradient;
  }
  inlet
  {
    type fixedValue;
    value uniform 293.15;
  }
  outlet
  {
    type zeroGradient;
  }
} 	// ************************************************************************* //

