/*--------------------------------*- C++ -*----------------------------------*\
  =========                 |
  \\      /  F ield         | OpenFOAM: The Open Source CFD Toolbox
   \\    /   O peration     | Website:  https://openfoam.org
    \\  /    A nd           | Version:  6
     \\/     M anipulation  |
\*---------------------------------------------------------------------------*/
FoamFile
{
    version     2.0;
    format      ascii;
    class       volScalarField;
    location    "400";
    object      alphat;
}
// * * * * * * * * * * * * * * * * * * * * * * * * * * * * * * * * * * * * * //

dimensions      [1 -1 -1 0 0 0 0];

internalField   nonuniform List<scalar> 
459
(
0.00123849
0.00135284
0.00137658
0.0014421
0.00150256
0.00155885
0.00161357
0.00166895
0.00170933
0.00172865
0.00172093
0.00168211
0.0016121
0.00151791
0.00141592
0.000544632
0.000670324
0.000749392
0.000739038
0.000710764
0.000675764
0.00063414
0.000593513
0.000556698
0.000523957
0.000494899
0.000469015
0.000445984
0.000425233
0.000406039
0.00038744
0.000367995
0.000354256
0.000322756
0.00169171
0.00411092
0.00392727
0.00457135
0.00519913
0.00583009
0.00639686
0.00681293
0.00719226
0.00750472
0.0077046
0.00773607
0.00751531
0.00683937
0.00502507
0.00143863
0.000878794
0.000596763
0.00122676
0.00167229
0.00198172
0.0021378
0.00212575
0.00173486
0.00150662
0.00134134
0.00121341
0.00111096
0.00102711
0.00095353
0.000884696
0.000817957
0.00075891
0.000707037
0.000826905
0.00042412
0.00206909
0.00561793
0.00486647
0.00614563
0.00677893
0.00724556
0.00760474
0.00787622
0.00817098
0.00848222
0.00877465
0.00899034
0.00906656
0.00892206
0.00833386
0.00650336
0.00140045
0.0012073
0.00169945
0.00214012
0.00251954
0.00276742
0.00268277
0.000906669
0.000802258
0.0007184
0.000650681
0.000595445
0.000549904
0.000512063
0.000480635
0.000455071
0.000490382
0.000566858
0.000925176
0.000490919
0.00243162
0.00720275
0.00487169
0.00652295
0.00711082
0.00730699
0.00741425
0.0075316
0.00775023
0.0080574
0.00842192
0.00876919
0.00903596
0.009165
0.00905484
0.00845363
0.00644688
0.00169832
0.00210816
0.00270036
0.00324236
0.00365004
0.00388662
0.00363074
0.00102032
0.000930253
0.000865961
0.000817135
0.000775732
0.000737566
0.000700992
0.000662633
0.000618075
0.000580811
0.00059352
0.0010513
0.000542379
0.00280122
0.0092404
0.00536309
0.00625693
0.00705805
0.00712927
0.00704941
0.00707355
0.00726335
0.00756936
0.00798007
0.0083912
0.00871926
0.00888737
0.00886193
0.00859412
0.00790666
0.00649304
0.00599277
0.00579894
0.00570497
0.00563965
0.00556197
0.00534954
0.00453619
0.00415091
0.00392865
0.00375601
0.00357167
0.003304
0.00293674
0.00248702
0.00198421
0.00147205
0.00108448
0.0010807
0.000724047
0.000670164
0.000811787
0.000910333
0.00319262
0.0114543
0.00741266
0.00618048
0.00677047
0.00705044
0.00689486
0.00693265
0.00708086
0.00735812
0.0077618
0.00820942
0.00857346
0.00874358
0.00867871
0.00841645
0.00804141
0.00762898
0.00737413
0.00718432
0.00699252
0.00679638
0.00659359
0.00634986
0.00599132
0.00567049
0.00538396
0.00510776
0.00482622
0.0045216
0.00413277
0.00364206
0.00304788
0.00238213
0.00178691
0.00133088
0.00100396
0.00085457
0.00122105
0.000948825
0.00354943
0.0130068
0.0104283
0.00797139
0.00750091
0.00747587
0.00726659
0.00710628
0.00712969
0.00738425
0.00782458
0.00832237
0.00871068
0.00885601
0.00872144
0.00839216
0.00805423
0.00786652
0.0078078
0.00770359
0.00748656
0.00718415
0.00682667
0.00643612
0.00603562
0.00567129
0.00534005
0.00503201
0.00474687
0.00449137
0.00426488
0.00394143
0.00347669
0.00290422
0.00234987
0.00184852
0.00148154
0.00136545
0.00139232
0.00107403
0.003617
0.0116018
0.0102905
0.00947781
0.00884769
0.00808389
0.00741993
0.00710202
0.00718185
0.00759281
0.00818603
0.00876454
0.00913011
0.00916191
0.00887322
0.00842188
0.00806909
0.00795901
0.00792639
0.00766898
0.00722479
0.00668498
0.00612983
0.00562328
0.00519702
0.00484735
0.00455318
0.00430477
0.00410527
0.00396385
0.00388995
0.00385522
0.0036093
0.00323434
0.00290092
0.00272553
0.00282072
0.00325015
0.00401699
0.00168494
0.00351767
0.00417804
0.00465241
0.00479669
0.00487798
0.00509386
0.00555965
0.00630431
0.00725539
0.00825076
0.00910426
0.00964552
0.00974191
0.00939248
0.00877196
0.00821168
0.00790111
0.00765603
0.007296
0.00673971
0.00606814
0.00540262
0.00482964
0.00437757
0.00403009
0.00375521
0.00352725
0.00333238
0.00316235
0.00300903
0.0028637
0.00272616
0.00261537
0.00253313
0.00250271
0.00251674
0.00250821
0.00241418
0.00226027
0.00158659
0.00179986
0.00364676
0.00565012
0.00736072
0.00873359
0.00982877
0.0105666
0.0109061
0.0108696
0.0104707
0.0097224
0.00876732
0.00786067
0.00723679
0.00678133
0.00626151
0.00563671
0.00497721
0.00436974
0.00387548
0.00349976
0.00321577
0.00299536
0.00281923
0.00267715
0.00256485
0.00248087
0.00242519
0.00240072
0.00240654
0.00242694
0.00245848
0.00249317
0.0025038
0.00244543
0.00230187
0.00208575
0.00132033
0.00236731
0.00592982
0.00880009
0.00986404
0.0104303
0.0106566
0.0104872
0.00996298
0.00918369
0.00826435
0.00734077
0.00652192
0.00584566
0.00527591
0.00472102
0.00418733
0.00373064
0.0033735
0.00310577
0.00289777
0.00272642
0.00258013
0.00245949
0.00236627
0.00229948
0.0022584
0.00224159
0.00224575
0.0022784
0.00233657
0.00241646
0.00251012
0.00259956
0.00266163
0.00264463
0.00267783
0.002722
0.00134605
0.00209157
0.00221712
0.00230605
0.00246522
0.00237566
0.00226723
0.00219763
0.00210889
0.00198491
0.00182993
0.00165312
0.00146671
0.00128415
0.00112229
0.000996344
0.000906787
0.000844873
0.000801965
0.000772296
0.000752377
0.000740095
0.000734048
0.00073381
0.000739587
0.000750804
0.000767068
0.000788625
0.000815858
0.000849407
0.000890435
0.00093779
0.00099149
0.00105218
0.00112048
0.00119601
0.00128532
0.00131628
0.0012838
0.00120595
0.00112405
)
;

boundaryField
{
    floor
    {
        type            compressible::alphatWallFunction;
        Prt             0.85;
        value           nonuniform List<scalar> 
29
(
0.000199659
7.60494e-05
9.48421e-05
0.00010644
0.000104929
0.000100793
9.56448e-05
8.94797e-05
8.34146e-05
7.78742e-05
7.29087e-05
6.84693e-05
6.44871e-05
6.09204e-05
5.76869e-05
5.46779e-05
5.17446e-05
4.86585e-05
4.64653e-05
4.13942e-05
4.13936e-05
5.75131e-05
6.78592e-05
7.57081e-05
0.000199657
7.60485e-05
8.3902e-05
0.000171175
0.000237482
)
;
    }
    ceiling
    {
        type            compressible::alphatWallFunction;
        Prt             0.85;
        value           nonuniform List<scalar> 
43
(
0.000288924
0.000305144
0.000316578
0.000337044
0.000325663
0.000311786
0.00030284
0.000291381
0.000275278
0.000254987
0.000231604
0.000206645
0.000181856
0.000159538
0.000141918
0.00012923
0.000120373
0.000114189
0.000109891
0.000106994
0.000105204
0.000104321
0.000104286
0.00010513
0.000106767
0.000109134
0.000112262
0.000116199
0.000121027
0.000126902
0.000133642
0.000141238
0.000149766
0.000159294
0.000169752
0.000182024
0.000186255
0.000181817
0.000171125
0.000159793
0.00046875
0.000549074
0.000324263
)
;
    }
    sWall
    {
        type            compressible::alphatWallFunction;
        Prt             0.85;
        value           uniform 0.000287714;
    }
    nWall
    {
        type            compressible::alphatWallFunction;
        Prt             0.85;
        value           nonuniform List<scalar> 6(0.00012942 0.000134882 0.000152485 0.000186482 0.000189986 0.000159472);
    }
    sideWalls
    {
        type            empty;
    }
    glass1
    {
        type            compressible::alphatWallFunction;
        Prt             0.85;
        value           nonuniform List<scalar> 9(0.000171227 0.000231554 0.000280547 0.000326793 0.000373254 0.000421806 0.000465577 0.000473945 0.000462056);
    }
    glass2
    {
        type            compressible::alphatWallFunction;
        Prt             0.85;
        value           nonuniform List<scalar> 2(0.000234157 0.000221175);
    }
    sun
    {
        type            compressible::alphatWallFunction;
        Prt             0.85;
        value           nonuniform List<scalar> 
14
(
0.000175487
0.000191104
0.00019433
0.000203202
0.000211349
0.000218901
0.000226213
0.000233586
0.000238944
0.000241503
0.000240479
0.000235331
0.000226014
0.000213408
)
;
    }
    heatsource1
    {
        type            compressible::alphatWallFunction;
        Prt             0.85;
        value           nonuniform List<scalar> 3(9.49214e-05 0.000115595 0.000129722);
    }
    heatsource2
    {
        type            compressible::alphatWallFunction;
        Prt             0.85;
        value           nonuniform List<scalar> 4(0.000202849 0.000125223 0.000125221 0.000197679);
    }
    Table_master
    {
        type            compressible::alphatWallFunction;
        Prt             0.85;
        value           nonuniform List<scalar> 9(0.000129196 0.000114215 0.000102014 9.20352e-05 8.3802e-05 7.6943e-05 7.11899e-05 6.63711e-05 6.24221e-05);
    }
    Table_slave
    {
        type            compressible::alphatWallFunction;
        Prt             0.85;
        value           nonuniform List<scalar> 9(0.000145277 0.000132554 0.000123384 0.000116366 0.000110375 0.000104819 9.94624e-05 9.38076e-05 8.71883e-05);
    }
    inlet
    {
        type            fixedValue;
        value           uniform 1.94e-05;
    }
    outlet
    {
        type            zeroGradient;
    }
}


// ************************************************************************* //
