// -*- C++ -*-
// File generated by PyFoam - sorry for the ugliness

FoamFile
{
 version 2.0;
 format ascii;
 class volVectorField;
 location "340";
 object U;
}

dimensions [ 0 1 -1 0 0 0 0 ];

internalField nonuniform List<vector> 459
(
  (0.0127267 0.0744129 0)
  (-0.14602 0.0256629 0)
  (-0.175276 0.0161229 0)
  (-0.203789 0.00889155 0)
  (-0.221746 0.00126718 0)
  (-0.227516 -0.0068452 0)
  (-0.218811 -0.0155347 0)
  (-0.196161 -0.02456 0)
  (-0.161246 -0.0322332 0)
  (-0.118561 -0.0368961 0)
  (-0.0740318 -0.0376666 0)
  (-0.0336661 -0.0338233 0)
  (0.00201291 -0.0209904 0)
  (0.0150416 -0.00399966 0)
  (0.0642666 0.0175041 0)
  (-0.13177 0.000364109 0)
  (0.0347876 0.00898936 0)
  (-0.016118 -0.00435039 0)
  (0.00132667 -0.0154692 0)
  (0.0165139 -0.0139082 0)
  (0.0291249 -0.0104042 0)
  (0.0383532 -0.00623555 0)
  (0.0443273 -0.00384647 0)
  (0.04764 -0.00290804 0)
  (0.0495328 -0.00251568 0)
  (0.050833 -0.00224376 0)
  (0.0517409 -0.00197514 0)
  (0.0521359 -0.0016183 0)
  (0.0516497 -0.000928707 0)
  (0.0495653 0.000516919 0)
  (0.0445658 0.00343343 0)
  (0.0410397 0.00779009 0)
  (-0.0391746 0.0186966 0)
  (0.155374 -0.00997627 0)
  (0.147595 0.151791 0)
  (-0.132066 0.0673119 0)
  (-0.141394 0.0506858 0)
  (-0.170367 0.0362545 0)
  (-0.188391 0.0198606 0)
  (-0.194799 0.00109754 0)
  (-0.186973 -0.0200088 0)
  (-0.166131 -0.0408114 0)
  (-0.134555 -0.057214 0)
  (-0.09713 -0.0657701 0)
  (-0.0591662 -0.0655347 0)
  (-0.0253623 -0.0566798 0)
  (0.00319706 -0.0380347 0)
  (0.0216514 -0.0162109 0)
  (0.0419329 0.00961876 0)
  (0.0427171 0.0200626 0)
  (0.0307169 0.0296048 0)
  (-0.161592 0.00500597 0)
  (0.0360506 0.00696017 0)
  (0.0159471 -0.0126025 0)
  (0.0266673 -0.0218475 0)
  (0.0368649 -0.0204397 0)
  (0.0448253 -0.0155647 0)
  (0.0482993 -0.00790504 0)
  (0.0495 -0.00293246 0)
  (0.0498778 -0.000864228 0)
  (0.0502445 3.54806e-05 0)
  (0.0506333 0.000637255 0)
  (0.0509365 0.00122877 0)
  (0.0511396 0.00211455 0)
  (0.0510955 0.00361139 0)
  (0.0503222 0.00655318 0)
  (0.0466423 0.0133643 0)
  (0.0447879 0.0209053 0)
  (-0.0280204 0.0305409 0)
  (0.199577 0.0146842 0)
  (0.27337 0.226839 0)
  (-0.138948 0.104642 0)
  (-0.106618 0.080595 0)
  (-0.134118 0.0562003 0)
  (-0.150727 0.0292623 0)
  (-0.156856 -0.0014416 0)
  (-0.148229 -0.0351988 0)
  (-0.127432 -0.0675129 0)
  (-0.0979704 -0.0913796 0)
  (-0.0653784 -0.101812 0)
  (-0.033836 -0.0986583 0)
  (-0.00664004 -0.0833973 0)
  (0.0156838 -0.0581216 0)
  (0.0313455 -0.0303181 0)
  (0.042738 -0.00142817 0)
  (0.0462972 0.0233645 0)
  (0.0399663 0.0579183 0)
  (-0.189576 0.0113318 0)
  (0.0647869 -0.0251338 0)
  (0.0513813 -0.0314194 0)
  (0.0546676 -0.0314155 0)
  (0.0593015 -0.0271698 0)
  (0.06278 -0.0225093 0)
  (0.060401 -0.0186703 0)
  (0.053723 -0.012884 0)
  (0.0486334 -0.00969483 0)
  (0.045957 -0.00790862 0)
  (0.0444343 -0.00677804 0)
  (0.0433679 -0.00598193 0)
  (0.0427892 -0.00522309 0)
  (0.0434787 -0.00386469 0)
  (0.0469267 0.000157454 0)
  (0.0473986 0.016485 0)
  (0.0486801 0.0287149 0)
  (-0.0201135 0.0399851 0)
  (0.226253 0.0381474 0)
  (0.390631 0.287082 0)
  (-0.161306 0.135908 0)
  (-0.0698138 0.106169 0)
  (-0.0947483 0.0740306 0)
  (-0.107512 0.0390679 0)
  (-0.110758 -0.00267738 0)
  (-0.0982798 -0.0497953 0)
  (-0.0764275 -0.0930482 0)
  (-0.0498359 -0.122575 0)
  (-0.02386 -0.133027 0)
  (3.50409e-05 -0.126092 0)
  (0.0195648 -0.105235 0)
  (0.0352442 -0.0763105 0)
  (0.0481457 -0.044023 0)
  (0.0596378 -0.0112583 0)
  (0.071245 0.019737 0)
  (0.0855443 0.0503413 0)
  (0.11203 -0.0190101 0)
  (0.10186 -0.0160289 0)
  (0.102284 -0.0294379 0)
  (0.0899679 -0.0325905 0)
  (0.0814203 -0.0303874 0)
  (0.0762449 -0.0257793 0)
  (0.0719259 -0.0191874 0)
  (0.0715405 -0.0116049 0)
  (0.0754708 -0.00749431 0)
  (0.0776345 -0.00503953 0)
  (0.0768313 -0.00335679 0)
  (0.0741679 -0.00201726 0)
  (0.0702712 -0.000818953 0)
  (0.0650838 0.00042681 0)
  (0.0580214 0.00203463 0)
  (0.047362 0.00448466 0)
  (0.0399991 0.0202899 0)
  (0.0470439 0.0328741 0)
  (-0.0107822 0.0435338 0)
  (0.241048 0.0729057 0)
  (0.496543 0.33295 0)
  (-0.193479 0.159335 0)
  (-0.0328653 0.121184 0)
  (-0.0531607 0.0847021 0)
  (-0.0596352 0.0453048 0)
  (-0.0545067 -0.00544937 0)
  (-0.0344808 -0.0661379 0)
  (-0.0125858 -0.116726 0)
  (0.00849142 -0.147596 0)
  (0.0250174 -0.154529 0)
  (0.0382665 -0.14366 0)
  (0.0485045 -0.119841 0)
  (0.056666 -0.0884613 0)
  (0.063829 -0.0546315 0)
  (0.0716356 -0.0219854 0)
  (0.0819996 0.00634055 0)
  (0.0964522 0.0238645 0)
  (0.109737 0.00837321 0)
  (0.110578 -0.00156519 0)
  (0.102669 -0.0145154 0)
  (0.0917905 -0.0204826 0)
  (0.0819091 -0.0209779 0)
  (0.0738903 -0.0183476 0)
  (0.0673923 -0.0132809 0)
  (0.0635419 -0.00565066 0)
  (0.0616914 -0.000503771 0)
  (0.0592421 0.00250303 0)
  (0.0559488 0.00445226 0)
  (0.052152 0.006031 0)
  (0.0481027 0.00758103 0)
  (0.0438113 0.0093949 0)
  (0.0392846 0.0118424 0)
  (0.0344891 0.0154507 0)
  (0.0319539 0.0232655 0)
  (0.0427951 0.030454 0)
  (0.0145366 0.0326032 0)
  (0.12468 0.0697963 0)
  (0.0946876 0.065115 0)
  (-0.103604 0.0643228 0)
  (0.363196 -0.0186092 0)
  (0.578597 0.369974 0)
  (-0.2289 0.172976 0)
  (-0.00299296 0.118826 0)
  (-0.010466 0.0862286 0)
  (-0.00832534 0.0453927 0)
  (0.016104 -0.0200095 0)
  (0.04158 -0.0876988 0)
  (0.0596251 -0.135975 0)
  (0.070859 -0.161266 0)
  (0.076299 -0.164709 0)
  (0.0777531 -0.150624 0)
  (0.0766024 -0.124388 0)
  (0.074383 -0.0919095 0)
  (0.0726672 -0.0583933 0)
  (0.0730142 -0.0278041 0)
  (0.0769312 -0.00364081 0)
  (0.084475 0.0100052 0)
  (0.0896102 0.00651478 0)
  (0.0880804 -0.00147949 0)
  (0.0817214 -0.00868499 0)
  (0.0732813 -0.0124494 0)
  (0.0645842 -0.0128622 0)
  (0.0565596 -0.0108849 0)
  (0.0495251 -0.00701058 0)
  (0.0439531 -0.00172063 0)
  (0.0395415 0.00254635 0)
  (0.0359802 0.00530841 0)
  (0.0325647 0.00720122 0)
  (0.0292488 0.0087857 0)
  (0.026105 0.0103821 0)
  (0.0232228 0.0122363 0)
  (0.0208084 0.0145711 0)
  (0.0190633 0.0174671 0)
  (0.0191474 0.0210573 0)
  (0.0268159 0.0228741 0)
  (0.0118464 0.0139007 0)
  (0.0455611 0.0431475 0)
  (0.0500468 0.0605963 0)
  (-0.140967 0.0770292 0)
  (0.369855 -0.039076 0)
  (0.632791 0.402548 0)
  (-0.249431 0.157731 0)
  (0.0238275 0.0766374 0)
  (0.0423034 0.0633243 0)
  (0.0591765 0.025125 0)
  (0.0999266 -0.0484871 0)
  (0.124734 -0.109408 0)
  (0.135359 -0.148363 0)
  (0.134707 -0.16523 0)
  (0.12589 -0.16244 0)
  (0.112317 -0.144385 0)
  (0.0968375 -0.116347 0)
  (0.0818521 -0.0841073 0)
  (0.0694009 -0.0525275 0)
  (0.0609122 -0.0251557 0)
  (0.0570477 -0.00469912 0)
  (0.0572534 0.00658139 0)
  (0.0576574 0.00678029 0)
  (0.0552024 0.00231195 0)
  (0.0506288 -0.0022087 0)
  (0.0442692 -0.00486551 0)
  (0.0371633 -0.00526638 0)
  (0.0301197 -0.00371657 0)
  (0.023439 -0.000645476 0)
  (0.017837 0.0031827 0)
  (0.0139516 0.00632226 0)
  (0.0109789 0.00847603 0)
  (0.00845503 0.0100255 0)
  (0.0062595 0.0113301 0)
  (0.0044428 0.0125962 0)
  (0.00316788 0.0139453 0)
  (0.00271248 0.0154151 0)
  (0.00329373 0.0168425 0)
  (0.00530451 0.0179197 0)
  (0.0106221 0.0179329 0)
  (0.00184486 0.0136053 0)
  (0.0137055 0.0401375 0)
  (0.0408208 0.0789357 0)
  (-0.19277 0.096483 0)
  (0.458785 -0.0473478 0)
  (0.727564 0.399577 0)
  (-0.0539278 0.128335 0)
  (0.0944767 -0.00270654 0)
  (0.149098 -0.0378756 0)
  (0.187167 -0.068804 0)
  (0.213939 -0.101999 0)
  (0.222334 -0.130861 0)
  (0.213777 -0.14847 0)
  (0.192232 -0.151942 0)
  (0.162733 -0.141786 0)
  (0.130364 -0.120819 0)
  (0.0987794 -0.0929744 0)
  (0.0706928 -0.0633451 0)
  (0.0482866 -0.0360918 0)
  (0.0326533 -0.0139569 0)
  (0.023307 0.001314 0)
  (0.0204693 0.00868372 0)
  (0.0196386 0.00890778 0)
  (0.017735 0.00596428 0)
  (0.0141727 0.00295477 0)
  (0.00946183 0.00128714 0)
  (0.00397322 0.00130116 0)
  (-0.0017341 0.00276636 0)
  (-0.00647983 0.00498844 0)
  (-0.0100268 0.00738086 0)
  (-0.012434 0.00938292 0)
  (-0.0141023 0.0108929 0)
  (-0.0152899 0.0120466 0)
  (-0.0160478 0.0129703 0)
  (-0.0162729 0.0137141 0)
  (-0.0157453 0.0142698 0)
  (-0.0141633 0.0145842 0)
  (-0.0112625 0.0145859 0)
  (-0.00682958 0.014393 0)
  (-0.00028243 0.0146962 0)
  (0.00130259 0.015809 0)
  (0.0143416 0.0377167 0)
  (0.059523 0.081298 0)
  (-0.15765 0.0833982 0)
  (0.769862 0.0087834 0)
  (0.857211 0.396874 0)
  (0.410448 0.280728 0)
  (0.420658 0.193946 0)
  (0.437417 0.111939 0)
  (0.418501 0.0441862 0)
  (0.375532 -0.0187278 0)
  (0.326705 -0.0667971 0)
  (0.274007 -0.0943993 0)
  (0.218071 -0.10221 0)
  (0.162526 -0.0947642 0)
  (0.111713 -0.0772895 0)
  (0.0675584 -0.0541686 0)
  (0.0318164 -0.030889 0)
  (0.00570446 -0.0109881 0)
  (-0.0110175 0.00337347 0)
  (-0.0179786 0.0102914 0)
  (-0.0196041 0.0127154 0)
  (-0.0198945 0.0122098 0)
  (-0.0208553 0.0104585 0)
  (-0.0230543 0.00884647 0)
  (-0.0261602 0.00811753 0)
  (-0.0295708 0.00837892 0)
  (-0.0327002 0.00932477 0)
  (-0.0350869 0.0105925 0)
  (-0.0365907 0.0119543 0)
  (-0.0372837 0.0131818 0)
  (-0.0373597 0.014183 0)
  (-0.0369434 0.0149336 0)
  (-0.0360469 0.0154052 0)
  (-0.0345895 0.0155422 0)
  (-0.032419 0.0152707 0)
  (-0.0293328 0.0145314 0)
  (-0.025116 0.0133507 0)
  (-0.0195651 0.0119806 0)
  (-0.0124647 0.0110621 0)
  (-0.0047824 0.0116582 0)
  (0.0135169 0.0243064 0)
  (0.0563823 0.0578145 0)
  (-0.120813 0.0496575 0)
  (0.756615 0.0498614 0)
  (0.133393 0.0123632 0)
  (0.216923 0.00803152 0)
  (0.241278 -0.0285168 0)
  (0.224164 -0.0529868 0)
  (0.195756 -0.0638804 0)
  (0.158588 -0.0655063 0)
  (0.113921 -0.0592764 0)
  (0.0678167 -0.0474744 0)
  (0.0258365 -0.0316052 0)
  (-0.0110817 -0.0122357 0)
  (-0.0355867 0.00192247 0)
  (-0.0501667 0.0104556 0)
  (-0.0563954 0.0149702 0)
  (-0.0579666 0.016874 0)
  (-0.0575873 0.0174253 0)
  (-0.0568419 0.0171361 0)
  (-0.0565932 0.0164855 0)
  (-0.057014 0.015936 0)
  (-0.0578244 0.0157636 0)
  (-0.0586123 0.0159942 0)
  (-0.0590448 0.0164709 0)
  (-0.0589373 0.0170163 0)
  (-0.0582411 0.0175155 0)
  (-0.0569998 0.0178559 0)
  (-0.0553035 0.0179574 0)
  (-0.0532299 0.0177605 0)
  (-0.0508322 0.0172089 0)
  (-0.0481477 0.0162424 0)
  (-0.0452074 0.0148023 0)
  (-0.0420459 0.0128452 0)
  (-0.0387332 0.010342 0)
  (-0.0354323 0.00721472 0)
  (-0.0323481 0.00326296 0)
  (-0.0281034 0.00205757 0)
  (-0.0173862 0.0113174 0)
  (-0.00636648 0.0348416 0)
  (-0.169636 0.0279213 0)
  (0.461044 0.0774438 0)
  (-0.0364215 0.0770481 0)
  (0.0668281 0.0151013 0)
  (0.0678464 -0.0523981 0)
  (0.0603337 -0.0766103 0)
  (0.0396578 -0.0770812 0)
  (0.0134283 -0.0744842 0)
  (-0.0161405 -0.0724781 0)
  (-0.0419269 -0.0723786 0)
  (-0.0640644 -0.0709206 0)
  (-0.0788553 -0.0705934 0)
  (-0.0861271 -0.0717457 0)
  (-0.089023 -0.0730008 0)
  (-0.0892803 -0.0745069 0)
  (-0.0879685 -0.0760751 0)
  (-0.0859183 -0.0775835 0)
  (-0.0837115 -0.079252 0)
  (-0.0817274 -0.0811401 0)
  (-0.0800854 -0.0830651 0)
  (-0.0786933 -0.0847749 0)
  (-0.0773625 -0.0861036 0)
  (-0.0759108 -0.0870112 0)
  (-0.0742105 -0.0875268 0)
  (-0.0721921 -0.0877115 0)
  (-0.0698372 -0.0876735 0)
  (-0.06717 -0.0875407 0)
  (-0.0642451 -0.0874533 0)
  (-0.0611466 -0.0875734 0)
  (-0.0579965 -0.0880947 0)
  (-0.0549744 -0.0892401 0)
  (-0.0523724 -0.0912329 0)
  (-0.0507045 -0.0942188 0)
  (-0.0506982 -0.0979822 0)
  (-0.0525461 -0.100837 0)
  (-0.0539998 -0.0986179 0)
  (-0.0527978 -0.0823315 0)
  (-0.063371 -0.0507985 0)
  (-0.136296 -0.0364154 0)
  (0.36271 -0.00458617 0)
  (0.151423 -0.180219 0)
  (-0.239994 -0.0222817 0)
  (-0.165398 0.243811 0)
  (-0.115643 0.250818 0)
  (-0.102914 0.265291 0)
  (-0.101227 0.26381 0)
  (-0.109514 0.252671 0)
  (-0.12137 0.249875 0)
  (-0.13108 0.252514 0)
  (-0.136831 0.259135 0)
  (-0.137867 0.266116 0)
  (-0.1356 0.275104 0)
  (-0.131279 0.283893 0)
  (-0.126058 0.290925 0)
  (-0.120653 0.29662 0)
  (-0.115445 0.301216 0)
  (-0.110544 0.305138 0)
  (-0.105978 0.30886 0)
  (-0.101781 0.312589 0)
  (-0.0979402 0.316269 0)
  (-0.0943818 0.319739 0)
  (-0.0909937 0.322867 0)
  (-0.0876702 0.325581 0)
  (-0.0843345 0.327859 0)
  (-0.0809442 0.329707 0)
  (-0.0774976 0.33116 0)
  (-0.0740399 0.332264 0)
  (-0.0706637 0.333066 0)
  (-0.0675057 0.333631 0)
  (-0.0647377 0.334069 0)
  (-0.0625581 0.334566 0)
  (-0.0612208 0.335434 0)
  (-0.0610618 0.337094 0)
  (-0.0621093 0.339659 0)
  (-0.0628411 0.341232 0)
  (-0.0609521 0.337413 0)
  (-0.0623849 0.321943 0)
  (-0.0928256 0.300025 0)
  (-0.159676 0.296885 0)
  (0.459109 0.334399 0)
)
;

boundaryField
{
  floor
  {
    type noSlip;
  }
  ceiling
  {
    type noSlip;
  }
  sWall
  {
    type noSlip;
  }
  nWall
  {
    type noSlip;
  }
  sideWalls
  {
    type empty;
  }
  glass1
  {
    type noSlip;
  }
  glass2
  {
    type noSlip;
  }
  sun
  {
    type noSlip;
  }
  heatsource1
  {
    type noSlip;
  }
  heatsource2
  {
    type noSlip;
  }
  Table_master
  {
    type noSlip;
  }
  Table_slave
  {
    type noSlip;
  }
  inlet
  {
    type fixedValue;
    value uniform (0.277164 -0.114805 0);
  }
  outlet
  {
    type zeroGradient;
  }
} 	// ************************************************************************* //

