/*--------------------------------*- C++ -*----------------------------------*\
  =========                 |
  \\      /  F ield         | OpenFOAM: The Open Source CFD Toolbox
   \\    /   O peration     | Website:  https://openfoam.org
    \\  /    A nd           | Version:  6
     \\/     M anipulation  |
\*---------------------------------------------------------------------------*/
FoamFile
{
    version     2.0;
    format      ascii;
    class       volScalarField;
    location    "1400";
    object      epsilon;
}
// * * * * * * * * * * * * * * * * * * * * * * * * * * * * * * * * * * * * * //

dimensions      [0 2 -3 0 0 0 0];

internalField   nonuniform List<scalar> 
459
(
0.00516725
0.00466955
0.00416941
0.00375655
0.00342753
0.00315684
0.00292744
0.00272514
0.00253842
0.00235844
0.00217746
0.00198742
0.0017774
0.00152711
0.00123468
3.58923e-06
4.16779e-06
4.54052e-06
3.66619e-06
2.86487e-06
2.22865e-06
1.59302e-06
1.19921e-06
1.10497e-06
1.17812e-06
1.4134e-06
1.85859e-06
2.63291e-06
3.75351e-06
4.53965e-06
5.86343e-06
6.92539e-06
8.70169e-06
5.90831e-06
0.00756547
0.00562186
0.00437905
0.00339145
0.00275375
0.00233834
0.00205196
0.00184471
0.00168896
0.00156923
0.00147576
0.00139914
0.00132405
0.00121082
0.00105094
0.00106109
0.000700333
1.32164e-05
1.32295e-05
1.06477e-05
8.30206e-06
6.40955e-06
4.06001e-06
2.53708e-06
1.7249e-06
1.91266e-06
2.71522e-06
4.03431e-06
5.98352e-06
8.60874e-06
1.18159e-05
1.54636e-05
1.76798e-05
2.04032e-05
3.69039e-05
1.17258e-05
0.00933749
0.00688165
0.00457557
0.00301571
0.00220915
0.00177312
0.00152359
0.00136895
0.00125968
0.00117901
0.00111927
0.0010756
0.00103984
0.000982459
0.000909955
0.000918936
0.000716265
4.88977e-05
3.31769e-05
2.04722e-05
1.7637e-05
1.56121e-05
1.4644e-05
5.73409e-06
2.90751e-06
4.1313e-06
5.90831e-06
8.38977e-06
1.20019e-05
1.74668e-05
2.62097e-05
4.17592e-05
3.13788e-05
3.22842e-05
3.7592e-05
4.11332e-05
0.0108327
0.00837957
0.00432889
0.00215957
0.00132385
0.000976204
0.000828644
0.000784684
0.000786689
0.000800875
0.000814557
0.000825061
0.000831125
0.000815059
0.000794183
0.000825462
0.000750468
0.00014869
6.87743e-05
3.05981e-05
2.74968e-05
2.91344e-05
3.27208e-05
3.92887e-05
5.18494e-05
5.75143e-05
6.43272e-05
7.10044e-05
7.81994e-05
8.71465e-05
9.97069e-05
0.000119323
0.000154831
8.76577e-05
9.79524e-05
0.0001118
0.000147952
0.0122871
0.0100933
0.00380198
0.00127562
0.000673236
0.000511507
0.000477679
0.000490364
0.000527707
0.000570517
0.000611875
0.000648366
0.000677427
0.000682859
0.000687148
0.000725694
0.000686593
0.000203516
5.31357e-05
3.27342e-05
3.157e-05
3.35316e-05
3.64343e-05
4.00255e-05
4.41418e-05
4.83586e-05
5.33677e-05
5.91045e-05
6.61654e-05
7.54409e-05
8.80481e-05
0.000105192
0.000127551
0.000152603
0.000190629
0.000237038
0.000287218
0.000411424
0.000262508
0.000169052
0.0139053
0.0120631
0.00375223
0.000698195
0.000471284
0.000375776
0.00036241
0.000375724
0.000403803
0.000444124
0.000487193
0.000527872
0.000560922
0.000575653
0.000593563
0.000628884
0.00060013
0.000218208
6.46673e-05
4.65742e-05
4.76209e-05
5.14052e-05
5.5619e-05
6.00713e-05
6.48567e-05
7.01697e-05
7.55447e-05
8.17097e-05
8.96219e-05
0.000100668
0.000116735
0.000140158
0.000173419
0.000218711
0.000277429
0.00034491
0.00040427
0.000420277
0.000268425
0.000195239
0.0159817
0.0145443
0.00619241
0.000814544
0.000467331
0.00032508
0.00030151
0.000312669
0.000336462
0.000368302
0.000404179
0.000439857
0.000470498
0.000491541
0.00051594
0.000546352
0.0005128
0.000207048
8.65145e-05
7.99287e-05
8.93551e-05
9.86912e-05
0.000105502
0.000110625
0.000115121
0.000118569
0.000122362
0.000127394
0.000134778
0.000146296
0.000164612
0.00019307
0.000234536
0.000290994
0.00036219
0.00044192
0.000511938
0.000543049
0.000503324
0.000213915
0.0192467
0.0208476
0.0161129
0.00160173
0.000502216
0.000285382
0.000252397
0.000263394
0.000288677
0.000317348
0.000348605
0.000380445
0.000409771
0.000433995
0.000457608
0.00047778
0.000432306
0.000196093
0.000131812
0.000155409
0.000189106
0.000214589
0.000225779
0.000226077
0.000221525
0.000217091
0.000214603
0.000214831
0.000218665
0.000228041
0.000246876
0.00028189
0.000337307
0.000416458
0.0005185
0.000636984
0.000771253
0.000931951
0.00113915
0.00100733
0.0257358
0.0378572
0.0570048
0.00743771
0.000751756
0.000327487
0.000253617
0.00024744
0.000265529
0.000293157
0.000323853
0.000355864
0.00038612
0.000410421
0.000426478
0.000430805
0.000377987
0.000211349
0.000227682
0.000319991
0.000419934
0.000471138
0.000479223
0.000463196
0.000439964
0.00041812
0.000400911
0.000388971
0.000382108
0.0003806
0.000386574
0.000406283
0.00044344
0.000504416
0.000600728
0.000742559
0.000895389
0.00100994
0.00181332
0.0013207
0.131301
0.0180179
0.00154149
0.000553638
0.000381815
0.000336537
0.000337577
0.000356057
0.000383881
0.000416127
0.000446706
0.000467638
0.000472913
0.000470308
0.000430535
0.000337528
0.000465186
0.000694431
0.000885607
0.000987392
0.00100711
0.000976967
0.000927132
0.000876407
0.000833435
0.000800452
0.000776438
0.000759201
0.000746602
0.000737958
0.000737586
0.000745469
0.000767347
0.000799991
0.000823203
0.000823355
0.000953213
0.00137618
0.0120261
0.00247292
0.0022672
0.00106393
0.000708453
0.000520019
0.000423433
0.000387344
0.000388119
0.000407984
0.000434846
0.000455599
0.000460264
0.0004392
0.000411514
0.000517385
0.000858372
0.00134845
0.00177871
0.0020268
0.00209687
0.00205601
0.00197004
0.00188038
0.00180552
0.00174896
0.00170585
0.00166761
0.00162573
0.00157351
0.00150895
0.00144188
0.0013851
0.00133892
0.00128802
0.00118621
0.00136045
0.00157454
0.000877396
0.000917152
0.00301958
0.00067601
0.000609156
0.000576353
0.00057516
0.000581637
0.000594275
0.000611604
0.000626884
0.000643738
0.000661471
0.000676235
0.00068114
0.000655568
0.000626821
0.000626904
0.000661555
0.00073266
0.000850683
0.000976758
0.00107725
0.00113737
0.00115984
0.00115606
0.00113844
0.00111651
0.00109582
0.0010784
0.0010637
0.00104937
0.00103208
0.0010085
0.0009756
0.000928761
0.000858375
0.000748924
0.000666819
0.000719571
)
;

boundaryField
{
    floor
    {
        Cmu             0.09;
        kappa           0.41;
        E               9.8;
        type            epsilonWallFunction;
        value           nonuniform List<scalar> 
29
(
0.00123468
3.58923e-06
4.16779e-06
4.54052e-06
3.66619e-06
2.86487e-06
2.22865e-06
1.59302e-06
1.19921e-06
1.10497e-06
1.17812e-06
1.4134e-06
1.85859e-06
2.63291e-06
3.75351e-06
4.53965e-06
5.86343e-06
6.92539e-06
8.70169e-06
5.90831e-06
5.90831e-06
1.17258e-05
4.11332e-05
0.000147952
0.00123468
3.58923e-06
1.32164e-05
4.88977e-05
0.00014869
)
;
    }
    ceiling
    {
        Cmu             0.09;
        kappa           0.41;
        E               9.8;
        type            epsilonWallFunction;
        value           nonuniform List<scalar> 
43
(
0.000877396
0.000917152
0.00301958
0.00067601
0.000609156
0.000576353
0.00057516
0.000581637
0.000594275
0.000611604
0.000626884
0.000643738
0.000661471
0.000676235
0.00068114
0.000655568
0.000626821
0.000626904
0.000661555
0.00073266
0.000850683
0.000976758
0.00107725
0.00113737
0.00115984
0.00115606
0.00113844
0.00111651
0.00109582
0.0010784
0.0010637
0.00104937
0.00103208
0.0010085
0.0009756
0.000928761
0.000858375
0.000748924
0.000666819
0.000719571
0.0257358
0.0378572
0.0120261
)
;
    }
    sWall
    {
        Cmu             0.09;
        kappa           0.41;
        E               9.8;
        type            epsilonWallFunction;
        value           uniform 0.000877396;
    }
    nWall
    {
        Cmu             0.09;
        kappa           0.41;
        E               9.8;
        type            epsilonWallFunction;
        value           nonuniform List<scalar> 6(0.000169052 0.000195239 0.000213915 0.00137618 0.00157454 0.000719571);
    }
    sideWalls
    {
        type            empty;
    }
    glass1
    {
        Cmu             0.09;
        kappa           0.41;
        E               9.8;
        type            epsilonWallFunction;
        value           nonuniform List<scalar> 9(0.00516725 0.00756547 0.00933749 0.0108327 0.0122871 0.0139053 0.0159817 0.0192467 0.0257358);
    }
    glass2
    {
        Cmu             0.09;
        kappa           0.41;
        E               9.8;
        type            epsilonWallFunction;
        value           nonuniform List<scalar> 2(0.00100733 0.0013207);
    }
    sun
    {
        Cmu             0.09;
        kappa           0.41;
        E               9.8;
        type            epsilonWallFunction;
        value           nonuniform List<scalar> 
14
(
0.00516725
0.00466955
0.00416941
0.00375655
0.00342753
0.00315684
0.00292744
0.00272514
0.00253842
0.00235844
0.00217746
0.00198742
0.0017774
0.00152711
)
;
    }
    heatsource1
    {
        Cmu             0.09;
        kappa           0.41;
        E               9.8;
        type            epsilonWallFunction;
        value           nonuniform List<scalar> 3(0.000411424 0.000262508 0.000169052);
    }
    heatsource2
    {
        Cmu             0.09;
        kappa           0.41;
        E               9.8;
        type            epsilonWallFunction;
        value           nonuniform List<scalar> 4(0.00106109 0.000700333 0.000700333 0.000716265);
    }
    Table_master
    {
        Cmu             0.09;
        kappa           0.41;
        E               9.8;
        type            epsilonWallFunction;
        value           nonuniform List<scalar> 9(5.73409e-06 2.90751e-06 4.1313e-06 5.90831e-06 8.38977e-06 1.20019e-05 1.74668e-05 2.62097e-05 4.17592e-05);
    }
    Table_slave
    {
        Cmu             0.09;
        kappa           0.41;
        E               9.8;
        type            epsilonWallFunction;
        value           nonuniform List<scalar> 9(5.18494e-05 5.75143e-05 6.43272e-05 7.10044e-05 7.81994e-05 8.71465e-05 9.97069e-05 0.000119323 0.000154831);
    }
    inlet
    {
        type            turbulentMixingLengthDissipationRateInlet;
        mixingLength    0.01;
        phi             phi;
        k               k;
        value           uniform 0.131301;
    }
    outlet
    {
        type            zeroGradient;
    }
}


// ************************************************************************* //
