// -*- C++ -*-
// File generated by PyFoam - sorry for the ugliness

FoamFile
{
 version 2.0;
 format ascii;
 class volScalarField;
 location "330";
 object T;
}

dimensions [ 0 0 0 1 0 0 0 ];

internalField nonuniform List<scalar> 459
(
  303.763
  303.622
  303.619
  303.62
  303.621
  303.621
  303.621
  303.618
  303.613
  303.608
  303.605
  303.606
  303.607
  303.6
  303.571
  303.618
  303.701
  303.721
  303.736
  303.747
  303.755
  303.759
  303.761
  303.762
  303.764
  303.766
  303.768
  303.77
  303.772
  303.774
  303.777
  303.78
  303.781
  303.758
  303.865
  303.661
  303.656
  303.661
  303.665
  303.665
  303.662
  303.652
  303.635
  303.62
  303.613
  303.615
  303.622
  303.624
  303.614
  303.622
  303.63
  303.703
  303.72
  303.733
  303.747
  303.763
  303.777
  303.787
  303.796
  303.805
  303.814
  303.823
  303.832
  303.841
  303.849
  303.853
  303.853
  303.845
  303.83
  303.851
  303.968
  303.695
  303.684
  303.694
  303.704
  303.709
  303.706
  303.686
  303.652
  303.622
  303.608
  303.611
  303.623
  303.632
  303.634
  303.636
  303.638
  303.699
  303.707
  303.722
  303.743
  303.766
  303.786
  303.794
  303.803
  303.814
  303.826
  303.838
  303.85
  303.864
  303.876
  303.885
  303.889
  303.882
  303.867
  303.878
  304.074
  303.732
  303.709
  303.728
  303.749
  303.765
  303.764
  303.729
  303.671
  303.622
  303.599
  303.604
  303.621
  303.637
  303.646
  303.649
  303.649
  303.653
  303.669
  303.691
  303.72
  303.752
  303.784
  303.812
  303.837
  303.858
  303.877
  303.896
  303.914
  303.932
  303.95
  303.968
  303.985
  303.964
  303.937
  303.91
  303.904
  304.179
  303.775
  303.735
  303.755
  303.79
  303.824
  303.823
  303.769
  303.681
  303.617
  303.59
  303.596
  303.62
  303.646
  303.663
  303.671
  303.675
  303.685
  303.703
  303.729
  303.762
  303.798
  303.834
  303.866
  303.897
  303.923
  303.947
  303.968
  303.987
  304.004
  304.018
  304.029
  304.035
  304.021
  303.992
  303.96
  303.933
  303.944
  304.035
  304.28
  304.277
  303.83
  303.77
  303.781
  303.822
  303.873
  303.858
  303.78
  303.68
  303.603
  303.575
  303.589
  303.626
  303.665
  303.694
  303.71
  303.722
  303.74
  303.764
  303.796
  303.832
  303.87
  303.907
  303.94
  303.97
  303.997
  304.019
  304.038
  304.054
  304.068
  304.078
  304.085
  304.086
  304.073
  304.049
  304.028
  303.982
  303.976
  304.087
  304.285
  304.369
  303.918
  303.849
  303.85
  303.883
  303.919
  303.871
  303.76
  303.641
  303.564
  303.549
  303.585
  303.645
  303.704
  303.748
  303.776
  303.797
  303.821
  303.852
  303.886
  303.924
  303.962
  303.997
  304.028
  304.055
  304.076
  304.093
  304.108
  304.12
  304.13
  304.137
  304.14
  304.138
  304.126
  304.106
  304.086
  304.023
  304.01
  304.119
  304.307
  304.497
  304.151
  304.066
  304.032
  304.043
  303.984
  303.844
  303.675
  303.545
  303.493
  303.52
  303.599
  303.693
  303.775
  303.834
  303.873
  303.897
  303.925
  303.959
  303.997
  304.034
  304.069
  304.1
  304.124
  304.142
  304.156
  304.168
  304.178
  304.187
  304.193
  304.197
  304.197
  304.193
  304.183
  304.166
  304.139
  304.072
  304.051
  304.136
  304.35
  304.679
  304.511
  304.395
  304.303
  304.169
  303.904
  303.624
  303.426
  303.355
  303.402
  303.522
  303.669
  303.798
  303.894
  303.957
  303.991
  304.016
  304.045
  304.08
  304.115
  304.147
  304.174
  304.196
  304.212
  304.224
  304.233
  304.24
  304.246
  304.251
  304.254
  304.254
  304.252
  304.247
  304.238
  304.222
  304.196
  304.141
  304.113
  304.173
  304.36
  301.415
  301.841
  301.992
  302.209
  302.482
  302.799
  303.126
  303.42
  303.665
  303.865
  303.977
  304.044
  304.083
  304.111
  304.136
  304.164
  304.193
  304.22
  304.243
  304.261
  304.274
  304.283
  304.289
  304.294
  304.297
  304.299
  304.299
  304.299
  304.296
  304.292
  304.285
  304.275
  304.262
  304.241
  304.212
  304.194
  304.235
  304.335
  301.502
  301.844
  302.152
  302.516
  302.897
  303.259
  303.568
  303.782
  303.94
  304.05
  304.115
  304.155
  304.184
  304.208
  304.231
  304.252
  304.273
  304.29
  304.304
  304.315
  304.322
  304.326
  304.329
  304.33
  304.33
  304.329
  304.327
  304.323
  304.319
  304.313
  304.305
  304.296
  304.286
  304.274
  304.263
  304.261
  304.289
  304.335
  302.456
  302.386
  302.379
  302.783
  303.212
  303.499
  303.701
  303.865
  303.99
  304.08
  304.142
  304.187
  304.219
  304.243
  304.263
  304.28
  304.296
  304.309
  304.321
  304.33
  304.337
  304.341
  304.343
  304.344
  304.344
  304.342
  304.34
  304.336
  304.332
  304.327
  304.321
  304.314
  304.307
  304.301
  304.296
  304.294
  304.294
  304.3
  304.319
  304.347
)
;

boundaryField
{
  floor
  {
    type wallHeatTransfer;
    Tinf uniform 298.85;
    alphaWall uniform 0.24;
    value nonuniform List<scalar> 29
(
  302.995
  302.812
  303.002
  303.015
  303.063
  303.061
  303.044
  303.002
  302.953
  302.904
  302.858
  302.814
  302.773
  302.734
  302.697
  302.661
  302.623
  302.589
  302.58
  302.72
  302.72
  302.962
  303.067
  303.155
  302.995
  302.812
  303.117
  303.166
  303.202
)
;
  }
  ceiling
  {
    type wallHeatTransfer;
    Tinf uniform 298.85;
    alphaWall uniform 0.24;
    value nonuniform List<scalar> 43
(
  302.137
  302.092
  302.102
  302.507
  302.922
  303.198
  303.396
  303.555
  303.672
  303.75
  303.8
  303.833
  303.856
  303.874
  303.889
  303.904
  303.919
  303.931
  303.942
  303.951
  303.956
  303.96
  303.961
  303.962
  303.961
  303.96
  303.958
  303.955
  303.952
  303.948
  303.944
  303.94
  303.935
  303.929
  303.922
  303.918
  303.925
  303.945
  303.975
  303.973
  304.362
  304.246
  301.272
)
;
  }
  sWall
  {
    type wallHeatTransfer;
    Tinf uniform 311.144;
    alphaWall uniform 0.36;
    value uniform 303.561;
  }
  nWall
  {
    type wallHeatTransfer;
    Tinf uniform 299.15;
    alphaWall uniform 0.36;
    value nonuniform List<scalar> 6
(
  303.567
  303.711
  303.847
  303.955
  303.895
  303.835
)
;
  }
  sideWalls
  {
    type empty;
  }
  glass1
  {
    type wallHeatTransfer;
    Tinf uniform 311.144;
    alphaWall uniform 4.3;
    value nonuniform List<scalar> 9
(
  308.901
  308.582
  308.373
  308.21
  308.068
  307.933
  307.826
  307.855
  307.973
)
;
  }
  glass2
  {
    type wallHeatTransfer;
    Tinf uniform 299.15;
    alphaWall uniform 4.3;
    value nonuniform List<scalar> 2
(
  301.898
  302.025
)
;
  }
  sun
  {
    type wallHeatTransfer;
    Tinf uniform 298.85;
    alphaWall uniform 0.24;
    value nonuniform List<scalar> 14
(
  303.214
  303.127
  303.138
  303.158
  303.175
  303.19
  303.205
  303.213
  303.215
  303.212
  303.204
  303.191
  303.153
  303.088
)
;
  }
  heatsource1
  {
    type fixedGradient;
    gradient uniform 0;
  }
  heatsource2
  {
    type fixedGradient;
    gradient uniform 0;
  }
  Table_master
  {
    type zeroGradient;
  }
  Table_slave
  {
    type zeroGradient;
  }
  inlet
  {
    type fixedValue;
    value uniform 300.15;
  }
  outlet
  {
    type zeroGradient;
  }
} 	// ************************************************************************* //

