// -*- C++ -*-
// File generated by PyFoam - sorry for the ugliness

FoamFile
{
 version 2.0;
 format ascii;
 class volVectorField;
 location "330";
 object U;
}

dimensions [ 0 1 -1 0 0 0 0 ];

internalField nonuniform List<vector> 459
(
  (0.0119369 0.0745534 0)
  (-0.146452 0.0257773 0)
  (-0.175983 0.0159889 0)
  (-0.204357 0.00855604 0)
  (-0.221831 0.000727333 0)
  (-0.226674 -0.00760132 0)
  (-0.216713 -0.0165509 0)
  (-0.192575 -0.0257376 0)
  (-0.156228 -0.0334017 0)
  (-0.112474 -0.0378725 0)
  (-0.0674878 -0.0383888 0)
  (-0.0275699 -0.0344176 0)
  (0.00900601 -0.0191616 0)
  (0.018966 -0.00252082 0)
  (0.0650121 0.0195957 0)
  (-0.13257 0.000725962 0)
  (0.0338484 0.00903756 0)
  (-0.0170244 -0.0047764 0)
  (0.00109816 -0.0161106 0)
  (0.0169835 -0.0145604 0)
  (0.0301681 -0.0109389 0)
  (0.0398403 -0.00654065 0)
  (0.0460785 -0.00402415 0)
  (0.0495078 -0.00304124 0)
  (0.0514521 -0.00263338 0)
  (0.0527921 -0.00235143 0)
  (0.0537387 -0.0020714 0)
  (0.0541637 -0.0016986 0)
  (0.0536814 -0.00098777 0)
  (0.0515607 0.000489751 0)
  (0.0464622 0.00344984 0)
  (0.0421022 0.00790121 0)
  (-0.0352801 0.0190796 0)
  (0.151967 -0.00860647 0)
  (0.146387 0.152122 0)
  (-0.132164 0.0677722 0)
  (-0.141854 0.0507059 0)
  (-0.170678 0.0358394 0)
  (-0.188247 0.0189367 0)
  (-0.193755 -0.000409507 0)
  (-0.184739 -0.0220444 0)
  (-0.162549 -0.0430659 0)
  (-0.129772 -0.0592352 0)
  (-0.0915756 -0.0671123 0)
  (-0.0533901 -0.065988 0)
  (-0.0199457 -0.056242 0)
  (0.0084865 -0.035892 0)
  (0.0259267 -0.0136022 0)
  (0.045818 0.0125174 0)
  (0.0461242 0.0221502 0)
  (0.0328299 0.0311749 0)
  (-0.161919 0.00572088 0)
  (0.0357094 0.00741682 0)
  (0.015904 -0.0131775 0)
  (0.027025 -0.0227693 0)
  (0.0375976 -0.0214207 0)
  (0.0459609 -0.0164167 0)
  (0.0496818 -0.00827931 0)
  (0.0509403 -0.0030201 0)
  (0.0513061 -0.000859842 0)
  (0.0516661 5.60254e-05 0)
  (0.0520614 0.000653117 0)
  (0.0523743 0.00124066 0)
  (0.0525845 0.00213754 0)
  (0.0525365 0.00366376 0)
  (0.0517403 0.00666154 0)
  (0.0480038 0.0135797 0)
  (0.0456053 0.0212794 0)
  (-0.0258459 0.0315507 0)
  (0.198653 0.0156888 0)
  (0.271803 0.22729 0)
  (-0.138665 0.105238 0)
  (-0.106916 0.0805384 0)
  (-0.134262 0.0554699 0)
  (-0.150478 0.0277102 0)
  (-0.155668 -0.00391349 0)
  (-0.145825 -0.0384713 0)
  (-0.123823 -0.0709792 0)
  (-0.0934459 -0.0942909 0)
  (-0.0604756 -0.103524 0)
  (-0.0289426 -0.0989022 0)
  (-0.00202437 -0.0820752 0)
  (0.0195713 -0.055818 0)
  (0.0349121 -0.027419 0)
  (0.0458857 0.00176327 0)
  (0.0489163 0.0260855 0)
  (0.0418781 0.0607101 0)
  (-0.190827 0.0110903 0)
  (0.0653173 -0.0254281 0)
  (0.0518721 -0.0322581 0)
  (0.0553077 -0.0325867 0)
  (0.0601493 -0.0284653 0)
  (0.0639127 -0.0237985 0)
  (0.0617322 -0.0195248 0)
  (0.0547825 -0.0133786 0)
  (0.0494525 -0.00999445 0)
  (0.0466828 -0.00810174 0)
  (0.0451237 -0.00690521 0)
  (0.0440202 -0.0060595 0)
  (0.043404 -0.00525169 0)
  (0.0440921 -0.00383528 0)
  (0.0476069 0.000281273 0)
  (0.0481289 0.0168166 0)
  (0.0491453 0.0292751 0)
  (-0.0193751 0.0412808 0)
  (0.226281 0.0395475 0)
  (0.3888 0.287601 0)
  (-0.16065 0.136555 0)
  (-0.0700124 0.106057 0)
  (-0.0947648 0.0730713 0)
  (-0.107197 0.0369625 0)
  (-0.1093 -0.0061356 0)
  (-0.0955602 -0.054329 0)
  (-0.0728301 -0.0975557 0)
  (-0.0457357 -0.126074 0)
  (-0.019868 -0.134813 0)
  (0.00395658 -0.125855 0)
  (0.0228946 -0.103585 0)
  (0.0382612 -0.0735655 0)
  (0.0508797 -0.0407158 0)
  (0.0621499 -0.00778363 0)
  (0.0735046 0.0230923 0)
  (0.0875756 0.054055 0)
  (0.114215 -0.0158738 0)
  (0.102018 -0.0145147 0)
  (0.102827 -0.029237 0)
  (0.0906579 -0.0332989 0)
  (0.0821668 -0.0315731 0)
  (0.0769778 -0.0271318 0)
  (0.0725235 -0.0205035 0)
  (0.0721345 -0.0124029 0)
  (0.0764715 -0.00795921 0)
  (0.0789381 -0.00532265 0)
  (0.0782249 -0.00351817 0)
  (0.0755262 -0.00208671 0)
  (0.071526 -0.000815562 0)
  (0.0661831 0.000491421 0)
  (0.0589107 0.00215836 0)
  (0.0479372 0.00467837 0)
  (0.0403454 0.0207312 0)
  (0.0472983 0.0335684 0)
  (-0.0108008 0.0449125 0)
  (0.241538 0.0746278 0)
  (0.494536 0.333483 0)
  (-0.192527 0.159949 0)
  (-0.0330509 0.12103 0)
  (-0.0530874 0.0835928 0)
  (-0.0592528 0.0427274 0)
  (-0.0523691 -0.0100692 0)
  (-0.0313948 -0.0718358 0)
  (-0.00922444 -0.121839 0)
  (0.011897 -0.151134 0)
  (0.0278728 -0.155912 0)
  (0.0407953 -0.143163 0)
  (0.050699 -0.11781 0)
  (0.058581 -0.0854024 0)
  (0.065529 -0.0510483 0)
  (0.0732375 -0.0182716 0)
  (0.0834649 0.00994419 0)
  (0.0979314 0.0272258 0)
  (0.111418 0.0102097 0)
  (0.112266 -0.000767338 0)
  (0.104298 -0.014676 0)
  (0.093261 -0.0213155 0)
  (0.083169 -0.0221607 0)
  (0.0749299 -0.0196 0)
  (0.0682165 -0.0143607 0)
  (0.0642958 -0.00627204 0)
  (0.062538 -0.000800955 0)
  (0.0601039 0.00240954 0)
  (0.0567564 0.0044929 0)
  (0.0528593 0.00616992 0)
  (0.0486875 0.00779575 0)
  (0.0442589 0.00967327 0)
  (0.0395835 0.0121837 0)
  (0.0346147 0.0158651 0)
  (0.0319462 0.0238575 0)
  (0.042944 0.0312423 0)
  (0.014337 0.0338604 0)
  (0.125692 0.0714762 0)
  (0.0958202 0.0663112 0)
  (-0.104424 0.0650718 0)
  (0.36608 -0.0183148 0)
  (0.576578 0.37045 0)
  (-0.227754 0.173479 0)
  (-0.00316372 0.118619 0)
  (-0.0102056 0.0850058 0)
  (-0.007493 0.0419126 0)
  (0.0193376 -0.0264185 0)
  (0.0446939 -0.0938902 0)
  (0.0624002 -0.140871 0)
  (0.0731019 -0.164309 0)
  (0.0779417 -0.165692 0)
  (0.0789033 -0.14972 0)
  (0.0773614 -0.122014 0)
  (0.0748838 -0.0886131 0)
  (0.0730604 -0.0546803 0)
  (0.0734632 -0.024095 0)
  (0.0776354 -0.000109637 0)
  (0.085361 0.0129841 0)
  (0.090822 0.00836633 0)
  (0.0894326 -0.00065339 0)
  (0.0831829 -0.00870289 0)
  (0.0746749 -0.0130574 0)
  (0.0657968 -0.0137883 0)
  (0.0575349 -0.0118813 0)
  (0.0502593 -0.00787509 0)
  (0.0445455 -0.00228842 0)
  (0.0399714 0.00228664 0)
  (0.0363091 0.00527038 0)
  (0.0327943 0.0073139 0)
  (0.0293758 0.00900923 0)
  (0.0261298 0.0106939 0)
  (0.0231472 0.0126251 0)
  (0.0206403 0.0150336 0)
  (0.0188103 0.0180002 0)
  (0.0188488 0.021684 0)
  (0.0267858 0.0235932 0)
  (0.011527 0.0146986 0)
  (0.0462864 0.0443634 0)
  (0.0508374 0.0611805 0)
  (-0.141567 0.0773808 0)
  (0.371883 -0.0389381 0)
  (0.631387 0.402947 0)
  (-0.248121 0.158062 0)
  (0.0241114 0.0760005 0)
  (0.0433156 0.0609736 0)
  (0.0623905 0.0197505 0)
  (0.103702 -0.0552954 0)
  (0.127687 -0.115314 0)
  (0.137348 -0.152617 0)
  (0.1357 -0.16753 0)
  (0.125982 -0.162744 0)
  (0.11173 -0.142938 0)
  (0.0958026 -0.113605 0)
  (0.0806235 -0.080649 0)
  (0.068229 -0.0488291 0)
  (0.060013 -0.0216464 0)
  (0.0564839 -0.00159249 0)
  (0.0574037 0.0090489 0)
  (0.0583814 0.00827398 0)
  (0.05627 0.00291704 0)
  (0.0518277 -0.0022751 0)
  (0.0454043 -0.00537009 0)
  (0.0381028 -0.0059937 0)
  (0.0307889 -0.00447698 0)
  (0.0238678 -0.0012806 0)
  (0.0179353 0.00282665 0)
  (0.0138577 0.00622399 0)
  (0.0107631 0.00856173 0)
  (0.00814981 0.0102405 0)
  (0.0058814 0.0116443 0)
  (0.00400225 0.0129927 0)
  (0.00267469 0.0144131 0)
  (0.00218387 0.0159401 0)
  (0.0027505 0.0173947 0)
  (0.00478626 0.0184624 0)
  (0.0103497 0.0184439 0)
  (0.00131203 0.0139156 0)
  (0.0138605 0.0409344 0)
  (0.0418313 0.079425 0)
  (-0.193633 0.0971315 0)
  (0.460692 -0.0472858 0)
  (0.726302 0.399513 0)
  (-0.0522318 0.128504 0)
  (0.0954758 -0.00426479 0)
  (0.151 -0.0427023 0)
  (0.192566 -0.074252 0)
  (0.21775 -0.10695 0)
  (0.224367 -0.134904 0)
  (0.214184 -0.151151 0)
  (0.191218 -0.153 0)
  (0.160636 -0.1412 0)
  (0.127588 -0.118804 0)
  (0.0956436 -0.0899382 0)
  (0.067558 -0.0598995 0)
  (0.0455284 -0.0326495 0)
  (0.0305715 -0.0109302 0)
  (0.021942 0.00373067 0)
  (0.0201906 0.0103505 0)
  (0.0199857 0.00984245 0)
  (0.0184144 0.00628943 0)
  (0.0149363 0.00283735 0)
  (0.01017 0.000892191 0)
  (0.00446328 0.00079614 0)
  (-0.00155683 0.00229918 0)
  (-0.00669151 0.00468654 0)
  (-0.010475 0.00726418 0)
  (-0.0130285 0.00942506 0)
  (-0.0147818 0.0110602 0)
  (-0.0160187 0.0123135 0)
  (-0.0168045 0.01332 0)
  (-0.0170419 0.0141336 0)
  (-0.0165094 0.0147425 0)
  (-0.0148999 0.0150822 0)
  (-0.011948 0.0150671 0)
  (-0.00743483 0.0148177 0)
  (-0.000749706 0.0150563 0)
  (0.000744762 0.0160044 0)
  (0.0140919 0.0382227 0)
  (0.0601613 0.0819535 0)
  (-0.158835 0.0842489 0)
  (0.773562 0.00934564 0)
  (0.856281 0.396551 0)
  (0.409882 0.280444 0)
  (0.420559 0.192315 0)
  (0.439494 0.109611 0)
  (0.418909 0.0397823 0)
  (0.374792 -0.0235486 0)
  (0.32482 -0.0706436 0)
  (0.27082 -0.09656 0)
  (0.213745 -0.102613 0)
  (0.157528 -0.0936584 0)
  (0.106526 -0.075004 0)
  (0.0623921 -0.0511086 0)
  (0.0270919 -0.0277766 0)
  (0.00181587 -0.00809725 0)
  (-0.0135987 0.0052917 0)
  (-0.0192831 0.0115025 0)
  (-0.0201727 0.013523 0)
  (-0.0200143 0.0126758 0)
  (-0.0207846 0.010617 0)
  (-0.0230028 0.00877432 0)
  (-0.0262643 0.00792012 0)
  (-0.0299054 0.00816322 0)
  (-0.0332727 0.00916398 0)
  (-0.0358671 0.0105205 0)
  (-0.0375066 0.0119719 0)
  (-0.0382797 0.0132865 0)
  (-0.0383916 0.0143682 0)
  (-0.0379796 0.0151913 0)
  (-0.0370637 0.0157271 0)
  (-0.0355653 0.0159164 0)
  (-0.0333313 0.0156775 0)
  (-0.0301586 0.0149411 0)
  (-0.0258359 0.0137285 0)
  (-0.0201626 0.0123019 0)
  (-0.0129362 0.0113214 0)
  (-0.00525286 0.0117837 0)
  (0.0132421 0.0245146 0)
  (0.0567598 0.0583893 0)
  (-0.121962 0.0502693 0)
  (0.760063 0.0503534 0)
  (0.135069 0.00837286 0)
  (0.216334 0.00165399 0)
  (0.241475 -0.0343197 0)
  (0.222886 -0.0569797 0)
  (0.192619 -0.0658855 0)
  (0.153503 -0.0655856 0)
  (0.107665 -0.0579817 0)
  (0.0611906 -0.0452915 0)
  (0.0195031 -0.0286545 0)
  (-0.0171299 -0.00873926 0)
  (-0.0400505 0.00410398 0)
  (-0.05336 0.0119137 0)
  (-0.0584162 0.015856 0)
  (-0.0593781 0.0174974 0)
  (-0.0586042 0.0179108 0)
  (-0.0576313 0.0174952 0)
  (-0.0573112 0.0167281 0)
  (-0.0577807 0.0160971 0)
  (-0.0587099 0.0158933 0)
  (-0.0596379 0.0161427 0)
  (-0.0601933 0.0166711 0)
  (-0.060173 0.0172788 0)
  (-0.0595228 0.0178365 0)
  (-0.0582924 0.0182319 0)
  (-0.0565764 0.0183828 0)
  (-0.0544573 0.0182269 0)
  (-0.0519917 0.0177054 0)
  (-0.0492193 0.0167543 0)
  (-0.0461741 0.0153089 0)
  (-0.0428963 0.0133208 0)
  (-0.0394636 0.0107625 0)
  (-0.0360428 0.00757042 0)
  (-0.0328404 0.00357862 0)
  (-0.0285432 0.00225636 0)
  (-0.0177449 0.0115093 0)
  (-0.00655915 0.0352547 0)
  (-0.170744 0.0282645 0)
  (0.46325 0.0779496 0)
  (-0.0368921 0.072561 0)
  (0.0639519 0.00936047 0)
  (0.062691 -0.0560009 0)
  (0.0550954 -0.0761885 0)
  (0.033442 -0.0759449 0)
  (0.00620077 -0.073555 0)
  (-0.0228144 -0.0722679 0)
  (-0.0484459 -0.0722434 0)
  (-0.069759 -0.0703071 0)
  (-0.0831888 -0.0702503 0)
  (-0.0892497 -0.0715691 0)
  (-0.0916062 -0.0729868 0)
  (-0.0914313 -0.0745835 0)
  (-0.0898317 -0.0760828 0)
  (-0.087554 -0.0775191 0)
  (-0.085184 -0.0791881 0)
  (-0.0831093 -0.0811435 0)
  (-0.0814408 -0.0831688 0)
  (-0.0800662 -0.0849794 0)
  (-0.0787721 -0.0863876 0)
  (-0.0773547 -0.0873477 0)
  (-0.0756735 -0.0878929 0)
  (-0.0736531 -0.0880892 0)
  (-0.0712739 -0.088046 0)
  (-0.0685594 -0.0878952 0)
  (-0.0655647 -0.0877819 0)
  (-0.0623754 -0.0878737 0)
  (-0.0591165 -0.0883725 0)
  (-0.055974 -0.0895117 0)
  (-0.0532514 -0.0915256 0)
  (-0.051478 -0.0945645 0)
  (-0.0513937 -0.0984061 0)
  (-0.0531862 -0.101343 0)
  (-0.0545976 -0.0990875 0)
  (-0.053354 -0.0825924 0)
  (-0.0639019 -0.0507718 0)
  (-0.137042 -0.0363866 0)
  (0.364075 -0.00412245 0)
  (0.148569 -0.179885 0)
  (-0.238456 -0.0213271 0)
  (-0.165477 0.245168 0)
  (-0.118321 0.252379 0)
  (-0.107871 0.264912 0)
  (-0.107306 0.259832 0)
  (-0.116536 0.250335 0)
  (-0.127984 0.248714 0)
  (-0.136854 0.252493 0)
  (-0.141705 0.259872 0)
  (-0.141687 0.266577 0)
  (-0.138712 0.276023 0)
  (-0.133871 0.284664 0)
  (-0.128393 0.291586 0)
  (-0.122868 0.297142 0)
  (-0.117594 0.301568 0)
  (-0.112614 0.305394 0)
  (-0.107959 0.309121 0)
  (-0.103676 0.312932 0)
  (-0.0997633 0.316738 0)
  (-0.0961465 0.320346 0)
  (-0.0927079 0.323603 0)
  (-0.0893332 0.32643 0)
  (-0.0859398 0.328802 0)
  (-0.0824816 0.330725 0)
  (-0.0789545 0.332238 0)
  (-0.0754025 0.333386 0)
  (-0.0719178 0.334222 0)
  (-0.0686389 0.334812 0)
  (-0.065741 0.335269 0)
  (-0.0634292 0.335788 0)
  (-0.0619669 0.336686 0)
  (-0.0616998 0.338391 0)
  (-0.0626634 0.341015 0)
  (-0.0633429 0.342643 0)
  (-0.0614303 0.338729 0)
  (-0.0628793 0.323027 0)
  (-0.0933889 0.300886 0)
  (-0.160102 0.29765 0)
  (0.460237 0.335058 0)
)
;

boundaryField
{
  floor
  {
    type noSlip;
  }
  ceiling
  {
    type noSlip;
  }
  sWall
  {
    type noSlip;
  }
  nWall
  {
    type noSlip;
  }
  sideWalls
  {
    type empty;
  }
  glass1
  {
    type noSlip;
  }
  glass2
  {
    type noSlip;
  }
  sun
  {
    type noSlip;
  }
  heatsource1
  {
    type noSlip;
  }
  heatsource2
  {
    type noSlip;
  }
  Table_master
  {
    type noSlip;
  }
  Table_slave
  {
    type noSlip;
  }
  inlet
  {
    type fixedValue;
    value uniform (0.277164 -0.114805 0);
  }
  outlet
  {
    type zeroGradient;
  }
} 	// ************************************************************************* //

