/*--------------------------------*- C++ -*----------------------------------*\
  =========                 |
  \\      /  F ield         | OpenFOAM: The Open Source CFD Toolbox
   \\    /   O peration     | Website:  https://openfoam.org
    \\  /    A nd           | Version:  6
     \\/     M anipulation  |
\*---------------------------------------------------------------------------*/
FoamFile
{
    version     2.0;
    format      ascii;
    class       volScalarField;
    location    "600";
    object      nut;
}
// * * * * * * * * * * * * * * * * * * * * * * * * * * * * * * * * * * * * * //

dimensions      [0 2 -1 0 0 0 0];

internalField   nonuniform List<scalar> 
459
(
0.000871449
0.000931462
0.000937315
0.00097409
0.0010063
0.00103477
0.00106086
0.00108601
0.00110995
0.00112558
0.00112867
0.00111522
0.00108414
0.00104026
0.000993443
0.000397336
0.000473841
0.000493558
0.000474911
0.000453468
0.000431978
0.000410927
0.00039162
0.000374309
0.000358849
0.000345012
0.00033261
0.000321389
0.00031104
0.000301175
0.000291211
0.000280179
0.000273699
0.000254753
0.00123597
0.00241295
0.00216751
0.0024933
0.00276045
0.00303976
0.00331008
0.00353826
0.00370154
0.00384468
0.00393484
0.00392876
0.00377382
0.00337304
0.00247151
0.000988334
0.000673113
0.000507746
0.00073926
0.000873114
0.000957396
0.000986951
0.000973556
0.000875651
0.000803868
0.000746598
0.000699324
0.000659503
0.000623946
0.000590338
0.000556947
0.000523357
0.000495522
0.000468709
0.000572388
0.000338602
0.00155322
0.00331642
0.00247734
0.00326528
0.00352147
0.00369834
0.00382797
0.00393266
0.00402967
0.00414307
0.00424142
0.00429156
0.00427426
0.00418307
0.00398817
0.00342975
0.000937184
0.000804118
0.000967373
0.0010716
0.00115636
0.00121447
0.00119534
0.000530727
0.000487456
0.000450953
0.000420201
0.000394192
0.000372059
0.00035314
0.00033701
0.00032345
0.00034559
0.00038973
0.000645999
0.000397313
0.00187371
0.00454968
0.00235209
0.00343879
0.00368332
0.00372351
0.00371591
0.00372934
0.00379677
0.00391012
0.00402131
0.00409258
0.00411574
0.00410465
0.0040777
0.00395209
0.00329581
0.00102278
0.00117068
0.00132007
0.0014499
0.00156627
0.00167256
0.00166444
0.00059052
0.000566209
0.000551591
0.000540943
0.000529415
0.000515168
0.000499853
0.000481606
0.000457527
0.00042563
0.000418023
0.000759793
0.000443778
0.00220795
0.00625585
0.0026142
0.00320605
0.00363974
0.00361578
0.00351676
0.00348114
0.00356619
0.00372412
0.00386042
0.00393738
0.00395606
0.00392619
0.00384382
0.00367536
0.00334197
0.00277617
0.00246204
0.00230931
0.00226341
0.00229825
0.00238225
0.00246319
0.00237147
0.00237063
0.00238575
0.00238111
0.00233638
0.0022169
0.00200687
0.00172688
0.00139971
0.00104792
0.000758643
0.000757729
0.00055898
0.000594409
0.000714451
0.00079341
0.00256361
0.00816463
0.00407037
0.0028701
0.00334675
0.00347544
0.00341141
0.0033322
0.00346175
0.00367426
0.00381925
0.00388487
0.00388394
0.00382862
0.00370252
0.0034668
0.00311668
0.00276677
0.00259628
0.00257216
0.00260781
0.00266815
0.00274019
0.00282397
0.00289996
0.00296915
0.00301108
0.00301562
0.00297921
0.00289705
0.00272125
0.002448
0.00207864
0.00163562
0.00121928
0.000875157
0.000711995
0.000656893
0.000988219
0.000821955
0.00292176
0.00969612
0.00682507
0.00398074
0.00317768
0.0030832
0.00328
0.00341837
0.00360829
0.00376785
0.0038688
0.00389857
0.00386757
0.00378949
0.00363736
0.00336419
0.00297211
0.00263795
0.00257639
0.00265699
0.00269216
0.00270299
0.00274743
0.00282799
0.00292192
0.00300155
0.00305027
0.00306563
0.00305108
0.00301299
0.00294367
0.00273477
0.00240019
0.00198483
0.00159138
0.00121711
0.000990892
0.000939163
0.00100014
0.000887257
0.00301327
0.00937566
0.00786397
0.00650893
0.00525938
0.00444399
0.00419478
0.00406911
0.00399498
0.003991
0.00398835
0.00394208
0.00385847
0.00375071
0.00357112
0.00325708
0.00281639
0.00253855
0.00257411
0.00254174
0.00249989
0.00250721
0.00255738
0.00262851
0.00270222
0.00276242
0.00280281
0.00282647
0.00284236
0.00286273
0.00289564
0.0028823
0.00262724
0.00230448
0.00202615
0.00188868
0.00198593
0.00244415
0.0032713
0.0014554
0.00295808
0.00358096
0.00404352
0.00423762
0.00425363
0.0041352
0.00403603
0.00399696
0.00405335
0.00409969
0.00405083
0.00392528
0.00378429
0.00364776
0.00341671
0.00301619
0.00254667
0.00238139
0.00227308
0.00218494
0.00216166
0.00218335
0.0022248
0.00226955
0.00230708
0.00233002
0.00233448
0.00231907
0.00228322
0.00222641
0.00214913
0.00205921
0.00197762
0.00192809
0.00193385
0.00198697
0.00202609
0.00198647
0.00187484
0.0013666
0.00198092
0.00353883
0.00408487
0.00430265
0.00445232
0.00459265
0.00462519
0.0043995
0.00405339
0.0037416
0.00353502
0.00336155
0.0029688
0.00242406
0.00208267
0.00189059
0.00175764
0.00171264
0.0017176
0.00174358
0.0017757
0.00180618
0.0018307
0.00184706
0.00185501
0.00185602
0.00185322
0.0018514
0.00185688
0.00187698
0.00190413
0.0019433
0.00199154
0.00202557
0.00200468
0.00190932
0.0017454
0.00113166
0.00218109
0.00419541
0.00471939
0.00476747
0.00473621
0.00469935
0.00445355
0.00368842
0.00317068
0.00290338
0.00278781
0.0024743
0.00184749
0.00149781
0.00130547
0.00119837
0.00116166
0.00116971
0.00119825
0.00123703
0.00128183
0.00133098
0.00138398
0.00144095
0.00150215
0.00156751
0.00163602
0.00170492
0.00177654
0.00185652
0.00194548
0.00204133
0.00213363
0.00220697
0.00222019
0.00228756
0.00225641
0.0011478
0.00189542
0.00200405
0.00209011
0.002221
0.00210561
0.00197388
0.00179348
0.00157388
0.00134781
0.00113039
0.000814472
0.000683249
0.000600179
0.000523343
0.00046784
0.000436721
0.000434031
0.00044539
0.000462902
0.000482868
0.000504512
0.000527523
0.000551786
0.000577299
0.000604145
0.000632485
0.00066258
0.000694843
0.000729945
0.000769014
0.000812771
0.000860718
0.000913733
0.000972885
0.00103892
0.00112091
0.00115119
0.00112749
0.00105813
0.000984297
)
;

boundaryField
{
    floor
    {
        type            nutkWallFunction;
        Cmu             0.09;
        kappa           0.41;
        E               9.8;
        value           nonuniform List<scalar> 
29
(
0.000119949
4.64054e-05
5.63568e-05
5.88845e-05
5.64914e-05
5.37251e-05
5.09365e-05
4.81879e-05
4.56514e-05
4.33634e-05
4.13085e-05
3.94597e-05
3.77945e-05
3.62809e-05
3.48787e-05
3.35363e-05
3.21745e-05
3.06597e-05
2.97661e-05
2.71366e-05
2.71365e-05
3.85997e-05
4.64013e-05
5.24709e-05
0.000119949
4.64054e-05
6.07092e-05
9.73878e-05
0.000123393
)
;
    }
    ceiling
    {
        type            nutkWallFunction;
        Cmu             0.09;
        kappa           0.41;
        E               9.8;
        value           nonuniform List<scalar> 
43
(
0.000221866
0.00023372
0.000243064
0.000257284
0.000244852
0.000230548
0.000210771
0.000186411
0.000160929
0.000136011
9.8657e-05
8.26601e-05
7.23593e-05
6.26796e-05
5.55839e-05
5.15574e-05
5.12075e-05
5.26829e-05
5.49481e-05
5.75176e-05
6.02884e-05
6.32181e-05
6.629e-05
6.95025e-05
7.28642e-05
7.63933e-05
8.01202e-05
8.4093e-05
8.83905e-05
9.31449e-05
9.84362e-05
0.000104196
0.000110521
0.000117529
0.000125294
0.000134858
0.000138369
0.000135622
0.000127543
0.000118876
0.000335738
0.000400251
0.000252811
)
;
    }
    sWall
    {
        type            nutkWallFunction;
        Cmu             0.09;
        kappa           0.41;
        E               9.8;
        value           uniform 0.000221927;
    }
    nWall
    {
        type            nutkWallFunction;
        Cmu             0.09;
        kappa           0.41;
        E               9.8;
        value           nonuniform List<scalar> 6(9.60996e-05 9.95435e-05 0.000107369 0.000136116 0.000137987 0.000118882);
    }
    sideWalls
    {
        type            empty;
    }
    glass1
    {
        type            nutkWallFunction;
        Cmu             0.09;
        kappa           0.41;
        E               9.8;
        value           nonuniform List<scalar> 9(0.000105507 0.000148297 0.000184353 0.000219952 0.000256378 0.000294496 0.000332322 0.000341916 0.000336154);
    }
    glass2
    {
        type            nutkWallFunction;
        Cmu             0.09;
        kappa           0.41;
        E               9.8;
        value           nonuniform List<scalar> 2(0.00017319 0.000163132);
    }
    sun
    {
        type            nutkWallFunction;
        Cmu             0.09;
        kappa           0.41;
        E               9.8;
        value           nonuniform List<scalar> 
14
(
0.000105477
0.000112622
0.000113316
0.000117665
0.000121459
0.000124801
0.000127854
0.000130789
0.000133576
0.000135391
0.000135751
0.00013419
0.000130573
0.000125446
)
;
    }
    heatsource1
    {
        type            nutkWallFunction;
        Cmu             0.09;
        kappa           0.41;
        E               9.8;
        value           nonuniform List<scalar> 3(7.1649e-05 8.64972e-05 9.60991e-05);
    }
    heatsource2
    {
        type            nutkWallFunction;
        Cmu             0.09;
        kappa           0.41;
        E               9.8;
        value           nonuniform List<scalar> 4(0.000119345 8.14252e-05 8.14252e-05 0.000113304);
    }
    Table_master
    {
        type            nutkWallFunction;
        Cmu             0.09;
        kappa           0.41;
        E               9.8;
        value           nonuniform List<scalar> 9(6.36232e-05 5.81063e-05 5.34049e-05 4.94073e-05 4.59974e-05 4.3073e-05 4.05559e-05 3.83959e-05 3.65699e-05);
    }
    Table_slave
    {
        type            nutkWallFunction;
        Cmu             0.09;
        kappa           0.41;
        E               9.8;
        value           nonuniform List<scalar> 9(7.11576e-05 6.81066e-05 6.62646e-05 6.49191e-05 6.34586e-05 6.1648e-05 5.96947e-05 5.73577e-05 5.42566e-05);
    }
    inlet
    {
        type            calculated;
        value           uniform 0.000100623;
    }
    outlet
    {
        type            calculated;
        value           nonuniform List<scalar> 2(0.00189542 0.00200405);
    }
}


// ************************************************************************* //
