/*--------------------------------*- C++ -*----------------------------------*\
  =========                 |
  \\      /  F ield         | OpenFOAM: The Open Source CFD Toolbox
   \\    /   O peration     | Website:  https://openfoam.org
    \\  /    A nd           | Version:  6
     \\/     M anipulation  |
\*---------------------------------------------------------------------------*/
FoamFile
{
    version     2.0;
    format      ascii;
    class       volScalarField;
    location    "500";
    object      alphat;
}
// * * * * * * * * * * * * * * * * * * * * * * * * * * * * * * * * * * * * * //

dimensions      [1 -1 -1 0 0 0 0];

internalField   nonuniform List<scalar> 
459
(
0.0011762
0.00127737
0.00129395
0.00135286
0.00140676
0.00145631
0.00150363
0.00155145
0.00159117
0.00161455
0.00161552
0.00158919
0.00153461
0.00145905
0.00137659
0.000510444
0.000628703
0.000690144
0.000671933
0.00064246
0.000609382
0.000573289
0.000538889
0.000507741
0.000479896
0.000455029
0.000432856
0.000412994
0.000394925
0.000378066
0.000361582
0.000344199
0.000334461
0.000307683
0.00162692
0.00376463
0.00352887
0.00409456
0.00462593
0.00516825
0.00567566
0.00607407
0.00641283
0.00670259
0.00689686
0.00693259
0.00671086
0.00602488
0.00429205
0.00139433
0.000915255
0.000571098
0.00108856
0.00143696
0.00166782
0.00177439
0.00176236
0.0014929
0.00132107
0.00119219
0.00109005
0.00100663
0.000935312
0.000871009
0.000810909
0.000753565
0.000704075
0.00065814
0.000789062
0.000417995
0.00200685
0.00515447
0.00429343
0.00551582
0.00607306
0.00647699
0.00678428
0.00702307
0.0072629
0.00752592
0.0077824
0.00798389
0.00805764
0.00792798
0.00743406
0.00604417
0.00134697
0.0011648
0.00155743
0.00187887
0.00214119
0.00230594
0.00223502
0.000808404
0.000722277
0.000652657
0.000596041
0.000549549
0.000510973
0.000478712
0.000451717
0.000429508
0.000461869
0.000529677
0.000883426
0.000489873
0.00237597
0.00672381
0.00424704
0.00585813
0.00641536
0.00658241
0.00664202
0.00671397
0.00686349
0.00710331
0.00740343
0.00772241
0.00797331
0.00810475
0.00805053
0.00757441
0.0058825
0.00155577
0.00194361
0.00243177
0.00282561
0.00309768
0.00325292
0.00305422
0.000903406
0.000833693
0.000785814
0.000750509
0.000720291
0.000690195
0.000660973
0.000629528
0.000591806
0.000557349
0.000563884
0.00101725
0.000544718
0.00275312
0.00876677
0.00469865
0.00555326
0.00637831
0.00645927
0.00635142
0.00628836
0.00640675
0.00664364
0.00696865
0.00735163
0.00766731
0.00784297
0.00782714
0.00757122
0.00692899
0.00564955
0.00512344
0.00486189
0.00470547
0.00461281
0.00455669
0.00443704
0.00387059
0.00362633
0.00349645
0.00339135
0.00326408
0.003068
0.00275427
0.00235273
0.00189452
0.00141966
0.00104593
0.00103233
0.000724186
0.000681928
0.000822887
0.000921085
0.00315148
0.0109842
0.00666836
0.00533002
0.00595805
0.0062902
0.00626339
0.00611249
0.00623175
0.00645101
0.00677593
0.00716168
0.00750378
0.0076863
0.00763464
0.00734753
0.00689208
0.00637636
0.00602101
0.00576816
0.00556434
0.005408
0.00528371
0.00515158
0.00495134
0.00477818
0.00461966
0.00445629
0.00427691
0.0040722
0.00378352
0.00338226
0.00286739
0.0022667
0.00171013
0.00125349
0.000975328
0.000846316
0.00122175
0.000959462
0.00352319
0.0125946
0.00973603
0.00697129
0.00630347
0.00636397
0.00640907
0.00632877
0.0063252
0.00648
0.00680169
0.00721111
0.00757038
0.0077368
0.00762429
0.00725329
0.00676503
0.0063637
0.006146
0.00598895
0.00579612
0.00556151
0.00530647
0.00506578
0.00485769
0.00468719
0.00453093
0.00437573
0.00422033
0.00407046
0.00392697
0.00367564
0.00326984
0.00274811
0.00223184
0.00174856
0.0014145
0.0013179
0.00136187
0.0010784
0.00359904
0.0114704
0.0100221
0.00900438
0.00818105
0.00762762
0.00702893
0.0065822
0.00644505
0.00662533
0.00702961
0.00749932
0.00785425
0.00794106
0.00769099
0.00717056
0.00659201
0.00621631
0.00606213
0.00579548
0.00540563
0.00499273
0.00464128
0.00438412
0.00420524
0.0040709
0.0039556
0.00385276
0.00376789
0.00371257
0.00369985
0.00370643
0.00348012
0.00312284
0.00280069
0.0026379
0.00275781
0.00322921
0.00404203
0.0017038
0.00350544
0.0041826
0.00469838
0.00492029
0.00504214
0.00508598
0.00523281
0.00559202
0.0061677
0.00687996
0.00758203
0.00810959
0.00832435
0.00813632
0.00755891
0.00678943
0.00620287
0.00580391
0.00541176
0.0049028
0.00438285
0.00396901
0.00368626
0.00350209
0.00337464
0.00327301
0.00318039
0.00308963
0.00299703
0.00289887
0.00279131
0.00267489
0.00257639
0.00250393
0.00248386
0.00250895
0.00250987
0.00242045
0.00226726
0.00159987
0.00200895
0.00385116
0.00511628
0.00605424
0.00693813
0.00773688
0.00841772
0.00890793
0.00911607
0.00898775
0.00851183
0.00768802
0.00663129
0.00571134
0.00511328
0.0045972
0.00403957
0.00352349
0.00314548
0.00290157
0.0027482
0.00264666
0.00257287
0.00251422
0.00246526
0.00242453
0.00239275
0.00237232
0.00236739
0.00238678
0.00241499
0.00245145
0.00249005
0.00250351
0.00244553
0.00229859
0.00207753
0.00132214
0.00243213
0.00531917
0.00718979
0.0079394
0.00859425
0.00907098
0.00919805
0.00907076
0.00853521
0.00766258
0.00660147
0.00555552
0.00468946
0.00401839
0.00345452
0.0029659
0.00260899
0.00238039
0.00222884
0.00212796
0.002065
0.00202786
0.00201052
0.00201032
0.00202609
0.00205697
0.00210143
0.0021561
0.00222433
0.00230879
0.00240738
0.00251387
0.00261218
0.00268137
0.0026704
0.00270663
0.00270277
0.00134466
0.00210751
0.00223111
0.00232017
0.00244469
0.00231556
0.00217242
0.00204853
0.00192612
0.00180952
0.00167662
0.00152073
0.00133794
0.00114743
0.000971226
0.000830793
0.000734043
0.000675861
0.000645221
0.000632696
0.000631976
0.000639315
0.000652236
0.000668882
0.00068897
0.000712449
0.000739402
0.000770036
0.000804732
0.000844171
0.000889585
0.000941346
0.00099861
0.00106219
0.00113289
0.00121078
0.00130418
0.00133641
0.0013046
0.00122354
0.00113769
)
;

boundaryField
{
    floor
    {
        type            compressible::alphatWallFunction;
        Prt             0.85;
        value           nonuniform List<scalar> 
29
(
0.000194324
7.08449e-05
8.8667e-05
9.77596e-05
9.50751e-05
9.07117e-05
8.57852e-05
8.03722e-05
7.51735e-05
7.04307e-05
6.61599e-05
6.23193e-05
5.88723e-05
5.57655e-05
5.29224e-05
5.02546e-05
4.76313e-05
4.48478e-05
4.32806e-05
3.89398e-05
3.89392e-05
5.65493e-05
6.76933e-05
7.6057e-05
0.000194322
7.0844e-05
8.00426e-05
0.000165303
0.00021848
)
;
    }
    ceiling
    {
        type            compressible::alphatWallFunction;
        Prt             0.85;
        value           nonuniform List<scalar> 
43
(
0.00029099
0.000306946
0.000318388
0.000334417
0.000317952
0.000299557
0.000283525
0.000267578
0.000252283
0.000234712
0.0002139
0.000189188
0.000163017
0.000138363
0.000118338
0.000104309
9.57665e-05
9.12325e-05
8.9372e-05
8.92654e-05
9.03572e-05
9.22751e-05
9.47391e-05
9.77024e-05
0.000101153
0.000105097
0.000109558
0.000114585
0.000120268
0.000126773
0.00013414
0.000142235
0.000151158
0.00016101
0.000171782
0.000184596
0.000188993
0.000184654
0.00017354
0.000161681
0.000467247
0.000549622
0.00033257
)
;
    }
    sWall
    {
        type            compressible::alphatWallFunction;
        Prt             0.85;
        value           uniform 0.000289778;
    }
    nWall
    {
        type            compressible::alphatWallFunction;
        Prt             0.85;
        value           nonuniform List<scalar> 6(0.00013094 0.000136379 0.000153087 0.000186718 0.000189785 0.000161355);
    }
    sideWalls
    {
        type            empty;
    }
    glass1
    {
        type            compressible::alphatWallFunction;
        Prt             0.85;
        value           nonuniform List<scalar> 9(0.000162768 0.000223041 0.000272535 0.000319744 0.000367245 0.000416731 0.000462367 0.000471747 0.00046055);
    }
    glass2
    {
        type            compressible::alphatWallFunction;
        Prt             0.85;
        value           nonuniform List<scalar> 2(0.000236597 0.00022289);
    }
    sun
    {
        type            compressible::alphatWallFunction;
        Prt             0.85;
        value           nonuniform List<scalar> 
14
(
0.000166901
0.000180802
0.00018307
0.000191104
0.00019842
0.000205117
0.00021149
0.000217907
0.00022322
0.000226341
0.00022647
0.000222953
0.000215647
0.000205483
)
;
    }
    heatsource1
    {
        type            compressible::alphatWallFunction;
        Prt             0.85;
        value           nonuniform List<scalar> 3(9.66579e-05 0.000117196 0.000131253);
    }
    heatsource2
    {
        type            compressible::alphatWallFunction;
        Prt             0.85;
        value           nonuniform List<scalar> 4(0.000196852 0.000130423 0.000130421 0.000190417);
    }
    Table_master
    {
        type            compressible::alphatWallFunction;
        Prt             0.85;
        value           nonuniform List<scalar> 9(0.000115103 0.000102581 9.23281e-05 8.38915e-05 7.68893e-05 7.10234e-05 6.60751e-05 6.1902e-05 5.84449e-05);
    }
    Table_slave
    {
        type            compressible::alphatWallFunction;
        Prt             0.85;
        value           nonuniform List<scalar> 9(0.000128734 0.000118751 0.000111838 0.000106707 0.000102293 9.78749e-05 9.35622e-05 8.88955e-05 8.32588e-05);
    }
    inlet
    {
        type            fixedValue;
        value           uniform 1.94e-05;
    }
    outlet
    {
        type            zeroGradient;
    }
}


// ************************************************************************* //
