// -*- C++ -*-
// File generated by PyFoam - sorry for the ugliness

FoamFile
{
 version 2.0;
 format ascii;
 class volVectorField;
 location "700";
 object U;
}

dimensions [ 0 1 -1 0 0 0 0 ];

internalField nonuniform List<vector> 459
(
  (0.0543475 0.0307177 0)
  (-0.0877506 -0.00756991 0)
  (-0.0752004 -0.019641 0)
  (-0.0607502 -0.0174268 0)
  (-0.0433045 -0.00830876 0)
  (-0.0347488 -0.00436209 0)
  (-0.0295314 -0.00378865 0)
  (-0.0248347 -0.00433914 0)
  (-0.0197816 -0.00514025 0)
  (-0.0143297 -0.00582835 0)
  (-0.00867128 -0.00622646 0)
  (-0.00301662 -0.00612208 0)
  (0.00230023 -0.00548863 0)
  (-0.0242236 -0.00373013 0)
  (0.119819 0.00391453 0)
  (-0.111726 -0.00200834 0)
  (0.0345288 0.00770888 0)
  (-0.0133375 0.00478631 0)
  (-0.0186513 0.00211781 0)
  (-0.0206315 -0.000300909 0)
  (-0.0202399 -0.00271613 0)
  (-0.0162423 -0.00618448 0)
  (-0.008077 -0.0106622 0)
  (-0.000857195 -0.0155424 0)
  (0.0114502 -0.00951745 0)
  (0.0171693 -0.00632613 0)
  (0.021423 -0.00471486 0)
  (0.0255314 -0.00435467 0)
  (0.0294202 -0.00454992 0)
  (0.0336562 -0.00303141 0)
  (0.0310594 0.0022278 0)
  (0.0232516 0.00724938 0)
  (-0.0290717 0.0136933 0)
  (0.104963 -0.00373693 0)
  (0.206574 0.0381321 0)
  (0.0932495 0.0489483 0)
  (0.0112481 0.0247066 0)
  (-0.0349339 -0.0122514 0)
  (-0.0329142 -0.00852679 0)
  (-0.0331615 -0.0062263 0)
  (-0.0303195 -0.00625707 0)
  (-0.0263102 -0.00713017 0)
  (-0.0222931 -0.00800459 0)
  (-0.0187214 -0.00849591 0)
  (-0.015768 -0.00845052 0)
  (-0.0135628 -0.00786345 0)
  (-0.0130608 -0.00705579 0)
  (-0.0159641 -0.00888316 0)
  (0.0129025 -0.000555818 0)
  (0.00143741 0.0140022 0)
  (0.00280444 0.0257531 0)
  (-0.156374 0.00400528 0)
  (0.0377536 0.00665653 0)
  (0.00453637 0.00823751 0)
  (0.000508033 0.00580322 0)
  (-0.00227649 0.0039687 0)
  (-0.015419 0.00151965 0)
  (-0.0195421 -0.00837839 0)
  (-0.00638594 -0.0161356 0)
  (-0.0107763 -0.0207327 0)
  (0.00306831 -0.0111154 0)
  (0.00705345 -0.00693961 0)
  (0.00786705 -0.0050306 0)
  (0.00648114 -0.00392666 0)
  (0.00198771 -0.00154426 0)
  (-0.00531539 0.00766137 0)
  (-0.00528601 0.0141696 0)
  (-0.00871121 0.0151962 0)
  (-0.0511802 0.0150459 0)
  (0.166895 -0.00273222 0)
  (-0.181989 -0.0249849 0)
  (0.068057 0.0731053 0)
  (-0.0286769 0.037351 0)
  (-0.0425772 0.00735538 0)
  (-0.0436447 -0.00426485 0)
  (-0.041752 -0.0086895 0)
  (-0.0371437 -0.010534 0)
  (-0.0331088 -0.0110014 0)
  (-0.0308389 -0.0106255 0)
  (-0.0306217 -0.00943812 0)
  (-0.0326182 -0.00741649 0)
  (-0.0370002 -0.0049051 0)
  (-0.043749 -0.00286011 0)
  (-0.0511449 -0.00209559 0)
  (-0.0534814 -0.00208576 0)
  (-0.0546471 -0.00571258 0)
  (-0.0634857 -0.0176055 0)
  (-0.16473 0.0207358 0)
  (0.000597446 0.00317797 0)
  (-0.0139882 0.00301248 0)
  (-0.0095343 0.00243351 0)
  (-0.00159989 0.00287129 0)
  (-0.000650766 0.00352353 0)
  (0.0206972 0.00245362 0)
  (0.0118169 -0.0127898 0)
  (-0.026658 -0.0160853 0)
  (-0.0382825 -0.00802639 0)
  (-0.0458848 -0.0050139 0)
  (-0.0510644 -0.00352983 0)
  (-0.0551387 -0.00258226 0)
  (-0.0564228 -0.00215006 0)
  (-0.0490427 -0.00242284 0)
  (-0.034137 -0.00258757 0)
  (-0.0179812 0.00215119 0)
  (-0.0476969 0.00366296 0)
  (0.2006 -0.00129919 0)
  (-0.367661 -0.0181616 0)
  (0.127702 0.0938859 0)
  (-0.00122427 0.068648 0)
  (-0.043182 0.0189142 0)
  (-0.0548994 -0.00542539 0)
  (-0.0517108 -0.0152031 0)
  (-0.0461346 -0.0159421 0)
  (-0.0434859 -0.0134071 0)
  (-0.0443088 -0.00991842 0)
  (-0.0481641 -0.00580358 0)
  (-0.0545243 -0.00135287 0)
  (-0.0624126 0.00232487 0)
  (-0.0705528 0.00349548 0)
  (-0.0778642 0.000816414 0)
  (-0.083596 -0.00692114 0)
  (-0.0906332 -0.0231271 0)
  (-0.101841 -0.0524115 0)
  (-0.103041 -0.0870036 0)
  (-0.0952167 0.0059143 0)
  (-0.0708338 -0.00159325 0)
  (-0.0763592 0.000749658 0)
  (-0.0789781 0.00209299 0)
  (-0.0836617 0.00218796 0)
  (-0.0905801 0.000855753 0)
  (-0.0965452 0.000609089 0)
  (-0.0979925 -0.00108374 0)
  (-0.0979323 -0.00258851 0)
  (-0.0962549 -0.00392484 0)
  (-0.0931488 -0.00533709 0)
  (-0.0885656 -0.00700411 0)
  (-0.0819905 -0.00911681 0)
  (-0.0723239 -0.0119838 0)
  (-0.0590451 -0.0160787 0)
  (-0.0471331 -0.0211518 0)
  (-0.0393424 -0.0234205 0)
  (-0.0560236 -0.0230497 0)
  (0.233938 0.0100811 0)
  (-0.422412 -0.0574226 0)
  (0.163502 0.0831437 0)
  (0.0861546 0.107252 0)
  (0.0197744 0.0767093 0)
  (-0.0419829 0.00802031 0)
  (-0.0534009 -0.0195154 0)
  (-0.0518026 -0.0187871 0)
  (-0.0535293 -0.0121107 0)
  (-0.0583343 -0.00540942 0)
  (-0.064732 0.000736319 0)
  (-0.0709758 0.00591062 0)
  (-0.0762326 0.00961179 0)
  (-0.0806267 0.0114829 0)
  (-0.0842561 0.011112 0)
  (-0.0879442 0.00816605 0)
  (-0.0946679 0.00228673 0)
  (-0.106242 -0.00399273 0)
  (-0.112301 -0.00438902 0)
  (-0.111111 -0.000649661 0)
  (-0.108371 -0.00087312 0)
  (-0.108393 0.00190806 0)
  (-0.10739 0.00404631 0)
  (-0.106189 0.00518265 0)
  (-0.104872 0.00487394 0)
  (-0.103199 0.00347134 0)
  (-0.101256 0.00090091 0)
  (-0.0992113 -0.00130835 0)
  (-0.0967693 -0.00323751 0)
  (-0.0938291 -0.00510451 0)
  (-0.0903937 -0.00713824 0)
  (-0.0864267 -0.00957921 0)
  (-0.0819354 -0.0127956 0)
  (-0.0777003 -0.0173598 0)
  (-0.0762133 -0.0231204 0)
  (-0.0811999 -0.0257077 0)
  (-0.091211 -0.0230582 0)
  (-0.0896182 -0.00557986 0)
  (-0.140869 -0.0102018 0)
  (-0.121613 -0.0320166 0)
  (0.213851 -0.0948685 0)
  (-0.426514 -0.135364 0)
  (0.180044 0.0370276 0)
  (0.156963 0.125699 0)
  (0.0962761 0.139558 0)
  (0.0242465 0.0825826 0)
  (-0.0390035 -0.00717034 0)
  (-0.0508719 -0.0133488 0)
  (-0.0608205 -0.00531332 0)
  (-0.0702563 0.00207764 0)
  (-0.0776048 0.00722698 0)
  (-0.0826381 0.0107126 0)
  (-0.0857726 0.0128425 0)
  (-0.0875763 0.0134314 0)
  (-0.0887262 0.0119519 0)
  (-0.0903257 0.00783555 0)
  (-0.0941605 0.00130021 0)
  (-0.100694 -0.00444263 0)
  (-0.10619 -0.00458077 0)
  (-0.108148 -0.00264347 0)
  (-0.107877 -0.00165341 0)
  (-0.106756 -9.06231e-06 0)
  (-0.104413 0.00124391 0)
  (-0.101315 0.00174798 0)
  (-0.0978692 0.00123066 0)
  (-0.0944442 -0.000212228 0)
  (-0.0913546 -0.00233728 0)
  (-0.0886288 -0.00450097 0)
  (-0.0860028 -0.00657509 0)
  (-0.083351 -0.0086104 0)
  (-0.0806503 -0.0106939 0)
  (-0.0779553 -0.0128902 0)
  (-0.0754744 -0.0152509 0)
  (-0.0738514 -0.0177292 0)
  (-0.0741591 -0.0195613 0)
  (-0.0764222 -0.0184256 0)
  (-0.0770673 -0.0128767 0)
  (-0.0748869 -0.00244303 0)
  (-0.0932317 -0.00459363 0)
  (-0.144105 -0.0179134 0)
  (0.310717 -0.12204 0)
  (-0.411144 -0.213212 0)
  (0.175676 -0.0978895 0)
  (0.202657 0.0962085 0)
  (0.140335 0.19257 0)
  (0.0545397 0.153974 0)
  (-0.0157189 0.0519492 0)
  (-0.046541 0.0118932 0)
  (-0.0652418 0.00989715 0)
  (-0.0773154 0.0115405 0)
  (-0.0837123 0.0128046 0)
  (-0.0861802 0.0134778 0)
  (-0.0859821 0.0136542 0)
  (-0.0840847 0.0132284 0)
  (-0.0814709 0.0117716 0)
  (-0.0793087 0.00875748 0)
  (-0.0788269 0.00419386 0)
  (-0.080348 -0.000337352 0)
  (-0.0822313 -0.00248281 0)
  (-0.0829037 -0.00289454 0)
  (-0.0823082 -0.00289857 0)
  (-0.0808132 -0.00246279 0)
  (-0.0784436 -0.00210626 0)
  (-0.0754978 -0.0021143 0)
  (-0.0723054 -0.00270612 0)
  (-0.0692092 -0.00391443 0)
  (-0.0664378 -0.00560341 0)
  (-0.0640244 -0.00749775 0)
  (-0.0618517 -0.00946691 0)
  (-0.0598055 -0.0114933 0)
  (-0.0578049 -0.0136006 0)
  (-0.0557928 -0.0158056 0)
  (-0.0537451 -0.0180939 0)
  (-0.0517086 -0.0203116 0)
  (-0.0496078 -0.0218337 0)
  (-0.0462598 -0.0213871 0)
  (-0.0376382 -0.0181481 0)
  (-0.0205107 -0.0138347 0)
  (-0.0164024 -0.0159087 0)
  (-0.164634 -0.0272176 0)
  (0.467624 -0.132078 0)
  (-0.394066 -0.208841 0)
  (0.0549721 -0.174021 0)
  (0.143705 0.0260846 0)
  (0.113764 0.263525 0)
  (-0.00739428 0.208797 0)
  (-0.0502822 0.0824319 0)
  (-0.0599971 0.0381917 0)
  (-0.0725704 0.0247842 0)
  (-0.0783073 0.0186676 0)
  (-0.0782362 0.0149279 0)
  (-0.074569 0.0123458 0)
  (-0.068813 0.0103858 0)
  (-0.0618836 0.0088471 0)
  (-0.0546445 0.00728885 0)
  (-0.0481281 0.0052352 0)
  (-0.0431711 0.00251261 0)
  (-0.0399607 -0.000336439 0)
  (-0.0384636 -0.00235822 0)
  (-0.0374129 -0.00340512 0)
  (-0.0362727 -0.00395468 0)
  (-0.0348915 -0.00414756 0)
  (-0.0331619 -0.00427416 0)
  (-0.0311669 -0.00454626 0)
  (-0.0290781 -0.00512776 0)
  (-0.0271023 -0.00608577 0)
  (-0.0254018 -0.00738218 0)
  (-0.0240304 -0.00890695 0)
  (-0.0229416 -0.0105917 0)
  (-0.0220552 -0.0124221 0)
  (-0.0212797 -0.0144179 0)
  (-0.0205025 -0.0166165 0)
  (-0.0195652 -0.019068 0)
  (-0.0182149 -0.0217931 0)
  (-0.015923 -0.0246605 0)
  (-0.0112565 -0.0273971 0)
  (0.00011342 -0.0303436 0)
  (0.0246594 -0.0353995 0)
  (0.0520933 -0.0431374 0)
  (-0.079974 -0.0514766 0)
  (0.785543 -0.0873067 0)
  (-0.394853 -0.0941981 0)
  (-0.319089 -0.10698 0)
  (-0.574649 0.0157744 0)
  (0.0122039 0.311684 0)
  (-0.130255 0.213892 0)
  (-0.105848 0.0953497 0)
  (-0.0809976 0.0507852 0)
  (-0.0686924 0.033055 0)
  (-0.0570931 0.0228205 0)
  (-0.0442577 0.0159195 0)
  (-0.0304692 0.0113937 0)
  (-0.017852 0.00876091 0)
  (-0.00643668 0.00727619 0)
  (0.00385719 0.00627513 0)
  (0.0121299 0.00534476 0)
  (0.0185278 0.00428264 0)
  (0.022655 0.00308881 0)
  (0.0251033 0.00201342 0)
  (0.0265113 0.00119537 0)
  (0.0273581 0.000585973 0)
  (0.02795 0.000149776 0)
  (0.0284859 -0.00022282 0)
  (0.0290211 -0.000638804 0)
  (0.0295135 -0.00119172 0)
  (0.0298675 -0.0019387 0)
  (0.0299858 -0.00289288 0)
  (0.0298138 -0.00403628 0)
  (0.0293498 -0.00536177 0)
  (0.028625 -0.00688965 0)
  (0.0276925 -0.0086728 0)
  (0.026633 -0.0108044 0)
  (0.0255742 -0.0134369 0)
  (0.0247275 -0.0168102 0)
  (0.0244621 -0.0212938 0)
  (0.0255737 -0.0275539 0)
  (0.0305368 -0.0370094 0)
  (0.0432754 -0.0521258 0)
  (0.0583533 -0.0731568 0)
  (-0.075385 -0.0790345 0)
  (0.841701 -0.0301879 0)
  (-2.42259 0.0328938 0)
  (-0.0673139 0.17536 0)
  (-0.18711 0.130097 0)
  (-0.103729 0.0510368 0)
  (-0.0331367 0.0121671 0)
  (0.00845028 0.00112625 0)
  (0.0345516 -0.00309855 0)
  (0.0535692 -0.00436853 0)
  (0.0671841 -0.00330893 0)
  (0.0777096 -0.000773134 0)
  (0.0859131 0.0024847 0)
  (0.0922578 0.00590211 0)
  (0.0970082 0.00899008 0)
  (0.100364 0.0113787 0)
  (0.102383 0.0128635 0)
  (0.103256 0.0134815 0)
  (0.103257 0.0134181 0)
  (0.102669 0.0128808 0)
  (0.10172 0.0120587 0)
  (0.100574 0.0110665 0)
  (0.0993088 0.00995497 0)
  (0.0979328 0.00872545 0)
  (0.0964039 0.00735128 0)
  (0.0946596 0.00579398 0)
  (0.0926435 0.0040079 0)
  (0.0903186 0.00192921 0)
  (0.087665 -0.000533999 0)
  (0.0846737 -0.00351121 0)
  (0.0813412 -0.00718349 0)
  (0.0776629 -0.0118062 0)
  (0.0736171 -0.0177413 0)
  (0.0691172 -0.0255034 0)
  (0.063949 -0.0358362 0)
  (0.0581376 -0.0498282 0)
  (0.0510248 -0.0689154 0)
  (0.0326153 -0.0921946 0)
  (-0.116117 -0.0862551 0)
  (0.403845 0.072308 0)
  (-1.08246 0.0606345 0)
  (0.436384 -0.0756063 0)
  (0.188742 -0.103559 0)
  (0.169616 -0.135082 0)
  (0.186477 -0.14592 0)
  (0.200329 -0.148071 0)
  (0.20754 -0.149489 0)
  (0.210867 -0.152351 0)
  (0.211649 -0.156407 0)
  (0.210495 -0.160761 0)
  (0.207827 -0.164469 0)
  (0.204097 -0.166764 0)
  (0.1998 -0.167237 0)
  (0.195376 -0.165912 0)
  (0.191106 -0.163164 0)
  (0.187124 -0.159546 0)
  (0.18346 -0.155618 0)
  (0.180073 -0.151828 0)
  (0.17688 -0.148462 0)
  (0.173782 -0.145662 0)
  (0.170672 -0.143457 0)
  (0.167445 -0.141801 0)
  (0.164001 -0.140611 0)
  (0.160252 -0.139789 0)
  (0.156122 -0.139243 0)
  (0.151548 -0.138899 0)
  (0.146468 -0.138701 0)
  (0.140807 -0.13861 0)
  (0.134458 -0.1386 0)
  (0.127258 -0.138642 0)
  (0.118948 -0.138694 0)
  (0.109105 -0.138673 0)
  (0.09703 -0.138432 0)
  (0.0820582 -0.13769 0)
  (0.063863 -0.136057 0)
  (0.0416956 -0.137473 0)
  (-0.110841 -0.15457 0)
  (0.439321 -0.297227 0)
  (-0.959969 0.0108669 0)
  (0.696177 0.457761 0)
  (0.363642 0.381436 0)
  (0.595736 0.3035 0)
  (0.605749 0.292074 0)
  (0.558804 0.295438 0)
  (0.520479 0.301825 0)
  (0.490789 0.314471 0)
  (0.463272 0.333026 0)
  (0.436973 0.35524 0)
  (0.412847 0.378928 0)
  (0.391465 0.402022 0)
  (0.37294 0.422414 0)
  (0.357189 0.438267 0)
  (0.343988 0.44851 0)
  (0.332958 0.453135 0)
  (0.3236 0.453088 0)
  (0.315399 0.449831 0)
  (0.307907 0.44487 0)
  (0.300787 0.439435 0)
  (0.293811 0.434361 0)
  (0.286836 0.430102 0)
  (0.279776 0.426822 0)
  (0.272571 0.424489 0)
  (0.265171 0.422967 0)
  (0.257516 0.422076 0)
  (0.24953 0.421643 0)
  (0.241116 0.421522 0)
  (0.23214 0.421598 0)
  (0.222432 0.421791 0)
  (0.211766 0.422035 0)
  (0.199854 0.422263 0)
  (0.186331 0.422374 0)
  (0.170728 0.422177 0)
  (0.152411 0.42133 0)
  (0.130726 0.419176 0)
  (0.106261 0.413575 0)
  (0.0898767 0.400119 0)
  (-0.175112 0.462478 0)
  (0.625488 0.768677 0)
)
;

boundaryField
{
  floor
  {
    type noSlip;
  }
  ceiling
  {
    type noSlip;
  }
  sWall
  {
    type noSlip;
  }
  nWall
  {
    type noSlip;
  }
  sideWalls
  {
    type empty;
  }
  glass1
  {
    type noSlip;
  }
  glass2
  {
    type noSlip;
  }
  sun
  {
    type noSlip;
  }
  heatsource1
  {
    type noSlip;
  }
  heatsource2
  {
    type noSlip;
  }
  Table_master
  {
    type noSlip;
  }
  Table_slave
  {
    type noSlip;
  }
  inlet
  {
    type fixedValue;
    value uniform (0.1 0 0);
  }
  outlet
  {
    type zeroGradient;
  }
} 	// ************************************************************************* //

