// -*- C++ -*-
// File generated by PyFoam - sorry for the ugliness

FoamFile
{
 version 2.0;
 format ascii;
 class volScalarField;
 location "1200";
 object T;
}

dimensions [ 0 0 0 1 0 0 0 ];

internalField nonuniform List<scalar> 459
(
  303.81
  303.533
  303.525
  303.525
  303.524
  303.524
  303.523
  303.522
  303.521
  303.519
  303.514
  303.507
  303.498
  303.487
  303.474
  303.373
  303.362
  303.356
  303.35
  303.345
  303.341
  303.337
  303.334
  303.331
  303.328
  303.324
  303.32
  303.316
  303.31
  303.305
  303.298
  303.291
  303.282
  303.285
  304.016
  303.574
  303.557
  303.564
  303.571
  303.577
  303.581
  303.584
  303.585
  303.583
  303.575
  303.56
  303.537
  303.507
  303.472
  303.443
  303.419
  303.362
  303.346
  303.337
  303.33
  303.325
  303.32
  303.316
  303.311
  303.307
  303.302
  303.297
  303.291
  303.286
  303.28
  303.274
  303.269
  303.263
  303.256
  303.269
  304.22
  303.625
  303.59
  303.606
  303.623
  303.64
  303.654
  303.664
  303.67
  303.671
  303.662
  303.64
  303.605
  303.56
  303.509
  303.462
  303.425
  303.36
  303.34
  303.331
  303.327
  303.323
  303.319
  303.313
  303.306
  303.3
  303.294
  303.288
  303.281
  303.275
  303.268
  303.262
  303.258
  303.252
  303.246
  303.261
  304.415
  303.687
  303.622
  303.642
  303.67
  303.698
  303.723
  303.745
  303.759
  303.764
  303.755
  303.727
  303.682
  303.621
  303.553
  303.486
  303.426
  303.391
  303.361
  303.344
  303.336
  303.331
  303.328
  303.325
  303.321
  303.318
  303.316
  303.313
  303.31
  303.307
  303.303
  303.299
  303.294
  303.278
  303.262
  303.247
  303.258
  304.596
  303.764
  303.655
  303.668
  303.702
  303.739
  303.775
  303.809
  303.834
  303.846
  303.839
  303.81
  303.756
  303.686
  303.606
  303.526
  303.457
  303.405
  303.369
  303.349
  303.342
  303.338
  303.336
  303.334
  303.332
  303.33
  303.328
  303.325
  303.322
  303.318
  303.312
  303.306
  303.299
  303.286
  303.27
  303.252
  303.252
  303.296
  303.328
  303.338
  304.752
  303.862
  303.713
  303.694
  303.722
  303.76
  303.8
  303.841
  303.878
  303.902
  303.902
  303.871
  303.814
  303.737
  303.65
  303.562
  303.483
  303.42
  303.375
  303.353
  303.347
  303.346
  303.345
  303.344
  303.343
  303.341
  303.339
  303.336
  303.333
  303.327
  303.32
  303.312
  303.302
  303.291
  303.276
  303.258
  303.251
  303.267
  303.275
  303.305
  304.879
  304.022
  303.87
  303.792
  303.774
  303.787
  303.817
  303.854
  303.897
  303.933
  303.936
  303.903
  303.842
  303.763
  303.675
  303.585
  303.501
  303.43
  303.379
  303.355
  303.351
  303.352
  303.353
  303.353
  303.353
  303.352
  303.351
  303.348
  303.344
  303.338
  303.33
  303.318
  303.306
  303.295
  303.281
  303.266
  303.256
  303.259
  303.264
  303.289
  305.086
  304.448
  304.279
  304.125
  304.009
  303.945
  303.924
  303.929
  303.954
  303.97
  303.954
  303.907
  303.836
  303.754
  303.666
  303.58
  303.5
  303.432
  303.381
  303.356
  303.355
  303.359
  303.361
  303.363
  303.364
  303.364
  303.363
  303.36
  303.357
  303.352
  303.344
  303.334
  303.319
  303.307
  303.297
  303.288
  303.284
  303.294
  303.311
  303.438
  305.376
  305.097
  304.825
  304.597
  304.409
  304.27
  304.177
  304.12
  304.08
  304.023
  303.948
  303.865
  303.78
  303.697
  303.617
  303.542
  303.474
  303.416
  303.374
  303.356
  303.359
  303.364
  303.369
  303.372
  303.374
  303.376
  303.376
  303.376
  303.375
  303.373
  303.372
  303.373
  303.378
  303.386
  303.403
  303.427
  303.46
  303.491
  303.513
  303.566
  298.106
  301.766
  303.031
  303.467
  303.644
  303.712
  303.725
  303.719
  303.695
  303.66
  303.617
  303.571
  303.521
  303.471
  303.425
  303.387
  303.36
  303.355
  303.362
  303.37
  303.375
  303.38
  303.384
  303.388
  303.391
  303.394
  303.397
  303.4
  303.404
  303.408
  303.414
  303.423
  303.438
  303.457
  303.479
  303.499
  303.511
  303.523
  298.84
  301.638
  302.558
  303.04
  303.283
  303.397
  303.443
  303.458
  303.463
  303.461
  303.453
  303.438
  303.418
  303.391
  303.369
  303.353
  303.347
  303.354
  303.364
  303.372
  303.379
  303.385
  303.391
  303.396
  303.4
  303.405
  303.409
  303.413
  303.418
  303.422
  303.427
  303.435
  303.445
  303.459
  303.474
  303.488
  303.48
  303.506
  302.32
  300.918
  300.604
  302.219
  302.718
  303.018
  303.212
  303.279
  303.309
  303.321
  303.33
  303.336
  303.341
  303.343
  303.339
  303.329
  303.324
  303.33
  303.338
  303.347
  303.357
  303.365
  303.373
  303.38
  303.386
  303.392
  303.397
  303.402
  303.407
  303.412
  303.416
  303.421
  303.426
  303.431
  303.438
  303.45
  303.458
  303.462
  303.461
  303.496
)
;

boundaryField
{
  floor
  {
    type wallHeatTransfer;
    Tinf uniform 305.2;
    alphaWall uniform 0.24;
    value nonuniform List<scalar> 29
(
  303.689
  303.696
  303.708
  303.72
  303.727
  303.731
  303.736
  303.743
  303.752
  303.76
  303.768
  303.775
  303.783
  303.79
  303.797
  303.803
  303.81
  303.818
  303.815
  303.835
  303.835
  303.723
  303.67
  303.636
  303.689
  303.696
  303.649
  303.622
  303.611
)
;
  }
  ceiling
  {
    type wallHeatTransfer;
    Tinf uniform 303.2;
    alphaWall uniform 0.24;
    value nonuniform List<scalar> 43
(
  302.378
  301.057
  300.755
  302.273
  302.746
  303.029
  303.211
  303.273
  303.301
  303.311
  303.318
  303.323
  303.327
  303.327
  303.322
  303.311
  303.304
  303.307
  303.313
  303.32
  303.327
  303.335
  303.342
  303.348
  303.355
  303.361
  303.366
  303.372
  303.377
  303.382
  303.387
  303.393
  303.398
  303.405
  303.412
  303.424
  303.432
  303.435
  303.433
  303.463
  305.274
  305.02
  299.075
)
;
  }
  sWall
  {
    type wallHeatTransfer;
    Tinf uniform 315.2;
    alphaWall uniform 0.36;
    value uniform 303.56;
  }
  nWall
  {
    type wallHeatTransfer;
    Tinf uniform 307.2;
    alphaWall uniform 0.36;
    value nonuniform List<scalar> 6
(
  304.061
  304.016
  303.951
  304.056
  304.035
  304.094
)
;
  }
  sideWalls
  {
    type empty;
  }
  glass1
  {
    type wallHeatTransfer;
    Tinf uniform 315.2;
    alphaWall uniform 4.3;
    value nonuniform List<scalar> 9
(
  312.282
  311.542
  311.041
  310.637
  310.304
  310.018
  309.78
  309.824
  310.027
)
;
  }
  glass2
  {
    type wallHeatTransfer;
    Tinf uniform 307.2;
    alphaWall uniform 4.3;
    value nonuniform List<scalar> 2
(
  305.78
  305.872
)
;
  }
  sun
  {
    type wallHeatTransfer;
    Tinf uniform 305.2;
    alphaWall uniform 0.24;
    value nonuniform List<scalar> 14
(
  304
  303.753
  303.749
  303.744
  303.74
  303.736
  303.733
  303.73
  303.727
  303.723
  303.718
  303.712
  303.705
  303.697
)
;
  }
  heatsource1
  {
    type fixedGradient;
    gradient uniform 0;
  }
  heatsource2
  {
    type fixedGradient;
    gradient uniform 0;
  }
  Table_master
  {
    type zeroGradient;
  }
  Table_slave
  {
    type zeroGradient;
  }
  inlet
  {
    type fixedValue;
    value uniform 293.15;
  }
  outlet
  {
    type zeroGradient;
  }
} 	// ************************************************************************* //

