// -*- C++ -*-
// File generated by PyFoam - sorry for the ugliness

FoamFile
{
 version 2.0;
 format ascii;
 class volVectorField;
 location "1400";
 object U;
}

dimensions [ 0 1 -1 0 0 0 0 ];

internalField nonuniform List<vector> 459
(
  (-0.062605 0.0707108 0)
  (-0.158984 -0.0531131 0)
  (-0.0596685 -0.131902 0)
  (0.0724789 -0.107648 0)
  (0.15686 -0.0759605 0)
  (0.22823 -0.0512658 0)
  (0.275293 -0.0335394 0)
  (0.299777 -0.0208306 0)
  (0.307752 -0.0115236 0)
  (0.303777 -0.00394023 0)
  (0.290213 0.00309938 0)
  (0.267295 0.0107635 0)
  (0.233095 0.021282 0)
  (0.17983 0.041952 0)
  (0.136852 0.0994935 0)
  (-0.0631434 0.0213511 0)
  (-0.0665127 -0.00377048 0)
  (-0.0592099 -0.0244591 0)
  (-0.0283818 -0.0409339 0)
  (0.0195149 -0.0437055 0)
  (0.0583608 -0.0345262 0)
  (0.0872035 -0.0199331 0)
  (0.106109 -0.0119477 0)
  (0.116111 -0.00894617 0)
  (0.121347 -0.00766019 0)
  (0.124843 -0.00670986 0)
  (0.127381 -0.00581863 0)
  (0.128815 -0.00483582 0)
  (0.128473 -0.00337348 0)
  (0.1251 -0.000767778 0)
  (0.116394 0.00392074 0)
  (0.0994862 0.01058 0)
  (0.0693775 0.0207551 0)
  (0.0585396 0.0333607 0)
  (0.0986339 0.17765 0)
  (-0.0756804 -0.0770281 0)
  (0.0686882 -0.209128 0)
  (0.137247 -0.172926 0)
  (0.199642 -0.120327 0)
  (0.248562 -0.0760227 0)
  (0.279713 -0.0425216 0)
  (0.294786 -0.0176191 0)
  (0.297868 0.00129819 0)
  (0.291188 0.0162864 0)
  (0.276915 0.0294268 0)
  (0.256046 0.0427738 0)
  (0.22988 0.0590444 0)
  (0.201486 0.0827877 0)
  (0.183348 0.126288 0)
  (0.170452 0.114556 0)
  (0.106361 0.101679 0)
  (-0.060042 0.0544363 0)
  (-0.0221481 0.0221923 0)
  (0.0169757 -0.0384203 0)
  (0.0387174 -0.0615276 0)
  (0.0635386 -0.063913 0)
  (0.0881172 -0.0537413 0)
  (0.101338 -0.0260099 0)
  (0.105324 -0.00865924 0)
  (0.105952 -0.00234094 0)
  (0.106569 -0.000166524 0)
  (0.107449 0.0010611 0)
  (0.108119 0.00208983 0)
  (0.108482 0.00351006 0)
  (0.108226 0.00607568 0)
  (0.106393 0.0111207 0)
  (0.0993641 0.0222385 0)
  (0.0832708 0.0353677 0)
  (0.0517101 0.0522927 0)
  (0.0667678 0.0666541 0)
  (0.304577 0.262723 0)
  (0.0922634 -0.181448 0)
  (0.168651 -0.269686 0)
  (0.221356 -0.228705 0)
  (0.24814 -0.163987 0)
  (0.264418 -0.106761 0)
  (0.27304 -0.0619525 0)
  (0.274482 -0.0278609 0)
  (0.268933 -0.00108731 0)
  (0.257572 0.0215753 0)
  (0.242528 0.0416156 0)
  (0.225091 0.0607842 0)
  (0.206688 0.0811863 0)
  (0.188727 0.10482 0)
  (0.173971 0.132829 0)
  (0.149936 0.131399 0)
  (0.112624 0.165456 0)
  (-0.064072 0.0278233 0)
  (0.0505459 -0.0324184 0)
  (0.083327 -0.0676477 0)
  (0.0961152 -0.0832986 0)
  (0.107308 -0.0838545 0)
  (0.120189 -0.0776347 0)
  (0.122348 -0.0574015 0)
  (0.102009 -0.0365254 0)
  (0.0852784 -0.0248448 0)
  (0.0775044 -0.0181179 0)
  (0.0738235 -0.0136295 0)
  (0.0712297 -0.0104096 0)
  (0.0693925 -0.00770226 0)
  (0.0700615 -0.0041832 0)
  (0.0760793 0.00351097 0)
  (0.0773133 0.0298355 0)
  (0.0658943 0.0525571 0)
  (0.035237 0.0792482 0)
  (0.0807098 0.101377 0)
  (0.539721 0.267997 0)
  (0.256988 -0.200594 0)
  (0.269293 -0.278538 0)
  (0.288785 -0.233578 0)
  (0.269431 -0.165054 0)
  (0.246135 -0.10342 0)
  (0.22896 -0.0551804 0)
  (0.216007 -0.0180876 0)
  (0.200084 0.012556 0)
  (0.186712 0.0373605 0)
  (0.175832 0.0579569 0)
  (0.166849 0.0765886 0)
  (0.159567 0.0953438 0)
  (0.154218 0.115678 0)
  (0.154235 0.138493 0)
  (0.16121 0.152134 0)
  (0.175499 0.186745 0)
  (0.213597 0.136676 0)
  (0.145251 0.0549846 0)
  (0.154595 -0.0115166 0)
  (0.156337 -0.0596979 0)
  (0.148989 -0.081132 0)
  (0.138277 -0.0824297 0)
  (0.123795 -0.0718983 0)
  (0.120361 -0.0417928 0)
  (0.136541 -0.024483 0)
  (0.146331 -0.014866 0)
  (0.145604 -0.00861914 0)
  (0.138849 -0.00391669 0)
  (0.128885 -7.81301e-05 0)
  (0.116145 0.00340256 0)
  (0.0997488 0.00726408 0)
  (0.075916 0.0127695 0)
  (0.0569609 0.0400184 0)
  (0.0505834 0.0655573 0)
  (0.0249232 0.0973996 0)
  (0.0999235 0.135663 0)
  (0.918043 -0.271338 0)
  (0.280643 -0.333931 0)
  (0.268979 -0.280693 0)
  (0.260082 -0.201077 0)
  (0.197139 -0.127594 0)
  (0.144194 -0.0679637 0)
  (0.112157 -0.0244743 0)
  (0.0913745 0.00767196 0)
  (0.085842 0.0303015 0)
  (0.08704 0.0480965 0)
  (0.0903248 0.0641469 0)
  (0.0947338 0.0798845 0)
  (0.100424 0.0961031 0)
  (0.108241 0.113186 0)
  (0.1215 0.13096 0)
  (0.141129 0.141177 0)
  (0.167202 0.145123 0)
  (0.192395 0.0815126 0)
  (0.193798 0.0257099 0)
  (0.19552 -0.0233243 0)
  (0.18464 -0.0557063 0)
  (0.165515 -0.0688391 0)
  (0.144002 -0.0662856 0)
  (0.123602 -0.0518518 0)
  (0.111967 -0.0239767 0)
  (0.108684 -0.00522586 0)
  (0.103556 0.00499151 0)
  (0.0952997 0.0109313 0)
  (0.0856349 0.0151187 0)
  (0.0755827 0.0186166 0)
  (0.0651595 0.0221884 0)
  (0.0542032 0.0267731 0)
  (0.0418617 0.0338282 0)
  (0.0331281 0.0515136 0)
  (0.0374087 0.0710977 0)
  (0.0290381 0.0968591 0)
  (0.086433 0.13491 0)
  (0.0834375 0.0981987 0)
  (-0.00309464 0.0494802 0)
  (0.118351 0.0195187 0)
  (0.945448 -0.382988 0)
  (-0.170623 -0.303028 0)
  (0.078447 -0.200997 0)
  (0.0924418 -0.11426 0)
  (0.0192077 -0.0600535 0)
  (-0.0160904 -0.0229501 0)
  (-0.023494 -0.00330456 0)
  (-0.0188924 0.0111341 0)
  (-0.00934929 0.0243492 0)
  (0.00179128 0.0391815 0)
  (0.0138544 0.0547528 0)
  (0.0264829 0.0699668 0)
  (0.0403134 0.0848329 0)
  (0.0560745 0.0989479 0)
  (0.0757478 0.110923 0)
  (0.0989245 0.114079 0)
  (0.127935 0.105103 0)
  (0.15339 0.0609769 0)
  (0.165145 0.017833 0)
  (0.164086 -0.0169653 0)
  (0.15087 -0.03882 0)
  (0.130591 -0.0470274 0)
  (0.107986 -0.0437184 0)
  (0.0865483 -0.03173 0)
  (0.0700491 -0.0131178 0)
  (0.0583353 0.0022622 0)
  (0.0495444 0.011784 0)
  (0.0416501 0.0175261 0)
  (0.034072 0.0216995 0)
  (0.0268912 0.0254239 0)
  (0.0201141 0.0294297 0)
  (0.0140464 0.0344566 0)
  (0.00861643 0.0412715 0)
  (0.00698984 0.0527727 0)
  (0.0174547 0.0652932 0)
  (0.0163136 0.0795436 0)
  (0.0547704 0.104289 0)
  (0.0574876 0.064978 0)
  (0.000756567 0.0369373 0)
  (0.116714 0.0183976 0)
  (0.91941 -0.359494 0)
  (-0.380467 -0.257122 0)
  (-0.0183797 -0.204998 0)
  (-0.0376845 -0.0755816 0)
  (-0.0873976 -0.043039 0)
  (-0.0932824 -0.0262264 0)
  (-0.0906957 -0.0145558 0)
  (-0.0842826 -0.00297774 0)
  (-0.0739451 0.0100942 0)
  (-0.0626643 0.0242798 0)
  (-0.0494802 0.0389746 0)
  (-0.034642 0.0532279 0)
  (-0.0180682 0.0664467 0)
  (0.00132519 0.0782531 0)
  (0.0239813 0.0863362 0)
  (0.0482917 0.0859612 0)
  (0.0762903 0.0746611 0)
  (0.0973837 0.0445981 0)
  (0.105397 0.0140221 0)
  (0.101944 -0.00887304 0)
  (0.0888845 -0.0223041 0)
  (0.0700471 -0.026403 0)
  (0.04922 -0.0223703 0)
  (0.0294798 -0.0123567 0)
  (0.012653 0.0013109 0)
  (0.0017662 0.0126076 0)
  (-0.0046247 0.0196097 0)
  (-0.00951927 0.0239633 0)
  (-0.0137168 0.0273999 0)
  (-0.0172979 0.0306071 0)
  (-0.0200935 0.0339607 0)
  (-0.0216318 0.0377162 0)
  (-0.0216023 0.0419328 0)
  (-0.0181971 0.0471974 0)
  (-0.00717341 0.053205 0)
  (-0.00551167 0.0611492 0)
  (0.0262803 0.0826307 0)
  (0.0363779 0.0619604 0)
  (-0.0271203 0.0571979 0)
  (0.145313 0.0254261 0)
  (0.869222 -0.278134 0)
  (-0.391086 -0.214001 0)
  (-0.170558 -0.22659 0)
  (-0.117341 -0.0816738 0)
  (-0.146315 -0.0478752 0)
  (-0.137481 -0.0322734 0)
  (-0.131681 -0.0214704 0)
  (-0.126509 -0.0113377 0)
  (-0.119813 -0.000132503 0)
  (-0.111069 0.0122423 0)
  (-0.100173 0.0248074 0)
  (-0.0868341 0.0367981 0)
  (-0.0711503 0.0474839 0)
  (-0.0528543 0.0561855 0)
  (-0.0318411 0.0615646 0)
  (-0.00937146 0.0607604 0)
  (0.0144136 0.0512266 0)
  (0.0283345 0.0324851 0)
  (0.0316796 0.0140401 0)
  (0.0260582 0.000536646 0)
  (0.0151243 -0.00696383 0)
  (-0.00110294 -0.0078362 0)
  (-0.0186284 -0.00313868 0)
  (-0.0337932 0.00443041 0)
  (-0.0438366 0.012337 0)
  (-0.0492448 0.0187073 0)
  (-0.0520674 0.0232929 0)
  (-0.0536606 0.0267254 0)
  (-0.054455 0.0295546 0)
  (-0.0544263 0.0320035 0)
  (-0.0533159 0.0341452 0)
  (-0.0507335 0.0359539 0)
  (-0.0463976 0.0373837 0)
  (-0.0396062 0.0389527 0)
  (-0.0295967 0.0419021 0)
  (-0.0232388 0.0477498 0)
  (0.0037195 0.0667036 0)
  (0.026067 0.0627994 0)
  (-0.0575324 0.0699541 0)
  (0.263354 0.0445184 0)
  (0.727675 -0.233691 0)
  (-0.46361 -0.252002 0)
  (-0.377273 -0.289753 0)
  (-0.137884 -0.126101 0)
  (-0.173789 -0.0589882 0)
  (-0.163455 -0.035489 0)
  (-0.160658 -0.0234681 0)
  (-0.159259 -0.014199 0)
  (-0.156659 -0.0051323 0)
  (-0.151509 0.00453133 0)
  (-0.144001 0.0144634 0)
  (-0.133753 0.0238699 0)
  (-0.120993 0.0321062 0)
  (-0.105937 0.0385191 0)
  (-0.0890833 0.0421775 0)
  (-0.0718796 0.0417824 0)
  (-0.0564546 0.0368973 0)
  (-0.0477255 0.0277893 0)
  (-0.0465687 0.0182056 0)
  (-0.0517054 0.0109471 0)
  (-0.0605942 0.00737438 0)
  (-0.0707697 0.00746026 0)
  (-0.0798825 0.00986973 0)
  (-0.0865967 0.0133979 0)
  (-0.090371 0.0172723 0)
  (-0.0916 0.0208377 0)
  (-0.0911064 0.0238188 0)
  (-0.0894763 0.0262407 0)
  (-0.086907 0.0281669 0)
  (-0.0833511 0.0295901 0)
  (-0.0786507 0.0304801 0)
  (-0.0726574 0.030833 0)
  (-0.0653396 0.0308071 0)
  (-0.0566451 0.0310523 0)
  (-0.0467366 0.0326865 0)
  (-0.036727 0.0369425 0)
  (-0.0157377 0.0493554 0)
  (0.0130942 0.058356 0)
  (-0.0838163 0.0654298 0)
  (0.294818 0.058614 0)
  (-0.577759 -0.234288 0)
  (-0.0751689 -0.113673 0)
  (-0.156279 -0.0480998 0)
  (-0.178583 -0.0235214 0)
  (-0.187284 -0.0114177 0)
  (-0.191491 -0.00265843 0)
  (-0.192739 0.00515426 0)
  (-0.191013 0.0124381 0)
  (-0.186556 0.0186298 0)
  (-0.179663 0.0242509 0)
  (-0.170527 0.0291808 0)
  (-0.159555 0.0330866 0)
  (-0.14748 0.0355277 0)
  (-0.13557 0.0360448 0)
  (-0.125522 0.0345717 0)
  (-0.119375 0.0313846 0)
  (-0.117558 0.0278651 0)
  (-0.119175 0.0252926 0)
  (-0.122607 0.0244253 0)
  (-0.126166 0.025351 0)
  (-0.128595 0.0274739 0)
  (-0.129313 0.0301377 0)
  (-0.128213 0.0329159 0)
  (-0.125505 0.0355165 0)
  (-0.121505 0.0377311 0)
  (-0.116462 0.0394127 0)
  (-0.110526 0.0404551 0)
  (-0.1038 0.0407842 0)
  (-0.0963834 0.0403844 0)
  (-0.0884102 0.03933 0)
  (-0.080055 0.0378396 0)
  (-0.0714676 0.036348 0)
  (-0.062686 0.0355419 0)
  (-0.0529539 0.0368387 0)
  (-0.0382122 0.0440263 0)
  (-0.0263294 0.0551737 0)
  (-0.0871465 0.0539538 0)
  (0.197924 0.0726375 0)
  (-0.183981 -0.0612338 0)
  (-0.124895 -0.095642 0)
  (-0.178383 -0.0929012 0)
  (-0.204837 -0.0901374 0)
  (-0.219061 -0.087671 0)
  (-0.227884 -0.0844872 0)
  (-0.233025 -0.0801784 0)
  (-0.234762 -0.0743239 0)
  (-0.233258 -0.0663314 0)
  (-0.229099 -0.0584285 0)
  (-0.222515 -0.0517247 0)
  (-0.213934 -0.0464786 0)
  (-0.203998 -0.0429966 0)
  (-0.193608 -0.0416714 0)
  (-0.18386 -0.0428219 0)
  (-0.175848 -0.0465474 0)
  (-0.170052 -0.0522517 0)
  (-0.166257 -0.0589767 0)
  (-0.16376 -0.0656572 0)
  (-0.161685 -0.0714467 0)
  (-0.159296 -0.0759931 0)
  (-0.156133 -0.079316 0)
  (-0.151975 -0.0816405 0)
  (-0.146776 -0.083312 0)
  (-0.140599 -0.0846836 0)
  (-0.133572 -0.0860345 0)
  (-0.125871 -0.0875669 0)
  (-0.117722 -0.0894415 0)
  (-0.109406 -0.0917762 0)
  (-0.101253 -0.0945828 0)
  (-0.0936115 -0.0976234 0)
  (-0.0866705 -0.10018 0)
  (-0.0799539 -0.100688 0)
  (-0.071632 -0.0962404 0)
  (-0.0599088 -0.0839587 0)
  (-0.0519381 -0.0703855 0)
  (-0.0665655 -0.0796137 0)
  (0.147557 -0.0853108 0)
  (-0.0170451 0.335713 0)
  (-0.0128929 -0.528761 0)
  (-0.294474 0.250263 0)
  (-0.239379 0.243131 0)
  (-0.244466 0.233544 0)
  (-0.25291 0.230606 0)
  (-0.262166 0.227689 0)
  (-0.270699 0.224843 0)
  (-0.277629 0.221913 0)
  (-0.282314 0.218344 0)
  (-0.284007 0.213596 0)
  (-0.282532 0.209803 0)
  (-0.278067 0.207935 0)
  (-0.270906 0.208056 0)
  (-0.261489 0.210269 0)
  (-0.250419 0.214706 0)
  (-0.238478 0.221457 0)
  (-0.226548 0.23042 0)
  (-0.215341 0.241132 0)
  (-0.205232 0.252788 0)
  (-0.196234 0.264402 0)
  (-0.188085 0.275142 0)
  (-0.180413 0.284578 0)
  (-0.17286 0.292674 0)
  (-0.165145 0.299642 0)
  (-0.157107 0.305782 0)
  (-0.148714 0.311348 0)
  (-0.140054 0.316512 0)
  (-0.131295 0.321403 0)
  (-0.122654 0.326166 0)
  (-0.114359 0.330992 0)
  (-0.106635 0.336083 0)
  (-0.0996559 0.341524 0)
  (-0.0933226 0.347025 0)
  (-0.0868171 0.351506 0)
  (-0.0788384 0.3531 0)
  (-0.0706994 0.351777 0)
  (-0.0700142 0.356145 0)
  (-0.0675579 0.388046 0)
  (0.171695 0.455681 0)
)
;

boundaryField
{
  floor
  {
    type noSlip;
  }
  ceiling
  {
    type noSlip;
  }
  sWall
  {
    type noSlip;
  }
  nWall
  {
    type noSlip;
  }
  sideWalls
  {
    type empty;
  }
  glass1
  {
    type noSlip;
  }
  glass2
  {
    type noSlip;
  }
  sun
  {
    type noSlip;
  }
  heatsource1
  {
    type noSlip;
  }
  heatsource2
  {
    type noSlip;
  }
  Table_master
  {
    type noSlip;
  }
  Table_slave
  {
    type noSlip;
  }
  inlet
  {
    type fixedValue;
    value uniform (0.277164 -0.114805 0);
  }
  outlet
  {
    type zeroGradient;
  }
} 	// ************************************************************************* //

