/*--------------------------------*- C++ -*----------------------------------*\
  =========                 |
  \\      /  F ield         | OpenFOAM: The Open Source CFD Toolbox
   \\    /   O peration     | Website:  https://openfoam.org
    \\  /    A nd           | Version:  6
     \\/     M anipulation  |
\*---------------------------------------------------------------------------*/
FoamFile
{
    version     2.0;
    format      ascii;
    class       volScalarField;
    location    "900";
    object      alphat;
}
// * * * * * * * * * * * * * * * * * * * * * * * * * * * * * * * * * * * * * //

dimensions      [1 -1 -1 0 0 0 0];

internalField   nonuniform List<scalar> 
459
(
0.00125397
0.00137146
0.00139726
0.00146455
0.00152686
0.00158521
0.00164246
0.00169828
0.00173761
0.00175406
0.00174178
0.00169718
0.00162006
0.00151687
0.00140351
0.000551578
0.000674865
0.000759132
0.000754086
0.000727852
0.000693513
0.000650625
0.000608205
0.000569724
0.00053556
0.000505306
0.000478422
0.000454505
0.000433029
0.000413226
0.000394098
0.000374173
0.000359673
0.000327314
0.00170725
0.00418426
0.00401108
0.00467101
0.00531913
0.0059665
0.00653631
0.00696486
0.0073511
0.00766375
0.00785911
0.00788782
0.00767416
0.00702782
0.00525776
0.00143202
0.000842389
0.000596406
0.00125349
0.00173056
0.00207074
0.00225003
0.00224078
0.00180195
0.00155497
0.0013782
0.00124241
0.00113433
0.00104631
0.000970453
0.000899562
0.00083062
0.000769231
0.000715811
0.000835292
0.000426582
0.00208356
0.00571361
0.00498184
0.00625368
0.00688878
0.00735857
0.00772173
0.00801012
0.00832186
0.00864655
0.00894548
0.00916402
0.00924111
0.00908663
0.00846064
0.00652321
0.00142546
0.00118997
0.00170968
0.00218981
0.00261543
0.00290146
0.00281831
0.000931615
0.000822466
0.000734813
0.000664108
0.000606519
0.000559112
0.000519781
0.000487186
0.000460766
0.000496734
0.000574731
0.000938159
0.000492652
0.00244406
0.00729613
0.00499696
0.00662419
0.00718612
0.00737618
0.00749689
0.00764199
0.00788855
0.00822101
0.00859795
0.0089514
0.00921748
0.00932459
0.00919016
0.00852186
0.00622953
0.00170555
0.00211423
0.00272843
0.00331872
0.00378217
0.00406079
0.00379729
0.00105097
0.000956326
0.000888386
0.000836509
0.000792475
0.000752317
0.000713814
0.000673526
0.000626948
0.000588226
0.000601695
0.00106885
0.000543891
0.00281128
0.00932668
0.00549009
0.00637822
0.00712493
0.00717776
0.00711232
0.00718621
0.00740291
0.0077415
0.00816464
0.0085793
0.0088971
0.00904744
0.00900527
0.00872216
0.00800309
0.0066233
0.00615137
0.00599652
0.00594391
0.0059098
0.00584392
0.00561372
0.00473156
0.00430685
0.00405901
0.00386767
0.00366724
0.00338003
0.00299511
0.0025288
0.00201076
0.00148816
0.0010967
0.0010993
0.000729052
0.000670017
0.000811765
0.000911105
0.0032004
0.0115371
0.00754742
0.00634705
0.00691113
0.00716545
0.00700045
0.00706127
0.00722487
0.00752819
0.00795626
0.00841092
0.00876083
0.00890493
0.00882011
0.00856155
0.00821971
0.0078677
0.00767331
0.00753129
0.00736905
0.00718115
0.00696672
0.00669452
0.00629173
0.00593039
0.00560996
0.00530388
0.00499386
0.00465804
0.00423889
0.00372021
0.00310139
0.00241692
0.00181175
0.00135595
0.00101916
0.000864613
0.00123226
0.000950539
0.0035538
0.0130789
0.0105587
0.00817134
0.00774004
0.00763912
0.00737572
0.00721147
0.00726504
0.00756326
0.00803919
0.00854693
0.00891564
0.00902671
0.00886878
0.00855582
0.00828879
0.00820274
0.0082229
0.00815777
0.00795133
0.00764138
0.00726426
0.00684129
0.0063944
0.00597936
0.00559971
0.00524711
0.00492192
0.00463158
0.00437589
0.00402858
0.00354511
0.00295659
0.002391
0.00188485
0.00151184
0.00139526
0.00142118
0.00108223
0.00361978
0.0116159
0.0103314
0.00955103
0.00884444
0.00803237
0.00740572
0.00716388
0.00732857
0.00781139
0.00844736
0.00902664
0.00935488
0.00934073
0.00903174
0.00862383
0.00838295
0.0083918
0.00841337
0.00816966
0.00772798
0.00717555
0.00658597
0.00602258
0.00552789
0.00511196
0.00475979
0.00446285
0.00422455
0.00405375
0.00395878
0.00390984
0.00366498
0.00328676
0.00295386
0.00278176
0.00288343
0.00331679
0.00407451
0.0016898
0.00351993
0.00417686
0.00463843
0.00475209
0.00485494
0.00513517
0.00569263
0.00653507
0.00756332
0.00859903
0.00945054
0.00993805
0.00994768
0.00954065
0.00893465
0.00852156
0.00829695
0.00810558
0.00777152
0.00722596
0.00654879
0.00584611
0.00520728
0.00467775
0.00425808
0.00392381
0.00364965
0.00342027
0.00322587
0.00305661
0.00290206
0.00276094
0.00264948
0.00256726
0.00253559
0.00254624
0.00253227
0.0024321
0.00227416
0.00158979
0.00175322
0.00359801
0.00586761
0.00774593
0.00920361
0.0103085
0.0109987
0.0112634
0.0111427
0.0106287
0.00983925
0.00887279
0.00805953
0.00755804
0.00715104
0.00664634
0.00602441
0.00535691
0.00472143
0.00417101
0.00373443
0.0033967
0.00313239
0.00292168
0.00275346
0.00262237
0.00252586
0.0024627
0.00243486
0.002439
0.00245917
0.00249076
0.00252481
0.00253363
0.00247249
0.00232669
0.00210719
0.00132339
0.00234755
0.00604459
0.00899177
0.0101233
0.0106837
0.0108503
0.0105983
0.0100018
0.00918217
0.00825929
0.00739191
0.00662511
0.00600866
0.0054815
0.00494773
0.00442139
0.00395409
0.00357301
0.00327679
0.00304885
0.00286272
0.00270444
0.00256805
0.00245623
0.00237307
0.00231812
0.00228991
0.00228705
0.0023146
0.00236939
0.00244735
0.00253989
0.00262819
0.00268909
0.00266853
0.0026986
0.00274444
0.00134974
0.00208365
0.00220851
0.00229644
0.0024593
0.00237403
0.00227694
0.00221377
0.00212391
0.00199504
0.00183513
0.00165547
0.0014689
0.00128824
0.0011338
0.00101737
0.000934635
0.000875817
0.000833149
0.000801914
0.000779415
0.000763976
0.000754586
0.000750584
0.000752218
0.000760029
0.000773893
0.000793508
0.000819284
0.000851889
0.000892106
0.000938949
0.000992494
0.00105332
0.00112194
0.0011978
0.00128767
0.00131733
0.00128373
0.00120625
0.00112423
)
;

boundaryField
{
    floor
    {
        type            compressible::alphatWallFunction;
        Prt             0.85;
        value           nonuniform List<scalar> 
29
(
0.000197977
7.71009e-05
9.55124e-05
0.000107858
0.000107123
0.000103296
9.82599e-05
9.19276e-05
8.56142e-05
7.984e-05
7.46732e-05
7.00633e-05
6.59379e-05
6.22431e-05
5.89045e-05
5.5807e-05
5.27971e-05
4.96417e-05
4.73319e-05
4.21324e-05
4.21318e-05
5.78983e-05
6.81254e-05
7.59374e-05
0.000197975
7.71e-05
8.38482e-05
0.000168784
0.00023844
)
;
    }
    ceiling
    {
        type            compressible::alphatWallFunction;
        Prt             0.85;
        value           nonuniform List<scalar> 
43
(
0.000287898
0.000304036
0.000315346
0.000336292
0.000325459
0.000313038
0.000304924
0.000293329
0.000276601
0.000255674
0.000231919
0.000206944
0.000182418
0.00016114
0.00014488
0.000133193
0.000124812
0.00011869
0.000114185
0.000110927
0.000108685
0.000107319
0.000106736
0.000106974
0.000108111
0.000110127
0.00011297
0.000116694
0.000121385
0.000127141
0.000133808
0.000141381
0.000149926
0.000159498
0.000170001
0.000182346
0.0001864
0.000181809
0.000171168
0.00015982
0.000469026
0.00054893
0.000321727
)
;
    }
    sWall
    {
        type            compressible::alphatWallFunction;
        Prt             0.85;
        value           uniform 0.000286689;
    }
    nWall
    {
        type            compressible::alphatWallFunction;
        Prt             0.85;
        value           nonuniform List<scalar> 6(0.000129531 0.000135126 0.000153631 0.000186901 0.000190488 0.000159499);
    }
    sideWalls
    {
        type            empty;
    }
    glass1
    {
        type            compressible::alphatWallFunction;
        Prt             0.85;
        value           nonuniform List<scalar> 9(0.000173311 0.000233578 0.00028239 0.000328349 0.000374493 0.000422748 0.000466095 0.000474268 0.000462318);
    }
    glass2
    {
        type            compressible::alphatWallFunction;
        Prt             0.85;
        value           nonuniform List<scalar> 2(0.000234806 0.000221607);
    }
    sun
    {
        type            compressible::alphatWallFunction;
        Prt             0.85;
        value           nonuniform List<scalar> 
14
(
0.000177612
0.000193635
0.000197135
0.000206231
0.000214613
0.000222427
0.000230063
0.00023748
0.000242688
0.000244864
0.000243239
0.000237331
0.000227075
0.000213268
)
;
    }
    heatsource1
    {
        type            compressible::alphatWallFunction;
        Prt             0.85;
        value           nonuniform List<scalar> 3(9.48997e-05 0.000115592 0.000129832);
    }
    heatsource2
    {
        type            compressible::alphatWallFunction;
        Prt             0.85;
        value           nonuniform List<scalar> 4(0.000201955 0.000120003 0.000120001 0.000201066);
    }
    Table_master
    {
        type            compressible::alphatWallFunction;
        Prt             0.85;
        value           nonuniform List<scalar> 9(0.000132746 0.000117133 0.000104416 9.4024e-05 8.54605e-05 7.83359e-05 7.2368e-05 6.73791e-05 6.33046e-05);
    }
    Table_slave
    {
        type            compressible::alphatWallFunction;
        Prt             0.85;
        value           nonuniform List<scalar> 9(0.000149578 0.000136253 0.000126592 0.000119157 0.000112803 0.000106971 0.000101345 9.54179e-05 8.85114e-05);
    }
    inlet
    {
        type            fixedValue;
        value           uniform 1.94e-05;
    }
    outlet
    {
        type            zeroGradient;
    }
}


// ************************************************************************* //
