/*--------------------------------*- C++ -*----------------------------------*\
  =========                 |
  \\      /  F ield         | OpenFOAM: The Open Source CFD Toolbox
   \\    /   O peration     | Website:  https://openfoam.org
    \\  /    A nd           | Version:  6
     \\/     M anipulation  |
\*---------------------------------------------------------------------------*/
FoamFile
{
    version     2.0;
    format      ascii;
    class       volScalarField;
    location    "900";
    object      epsilon;
}
// * * * * * * * * * * * * * * * * * * * * * * * * * * * * * * * * * * * * * //

dimensions      [0 2 -3 0 0 0 0];

internalField   nonuniform List<scalar> 
459
(
0.00044688
0.000583144
0.000616597
0.000710008
0.000804514
0.000900282
0.00100134
0.00110688
0.00118547
0.00121934
0.00119376
0.00110426
0.000960391
0.000788286
0.000624439
3.79368e-05
6.94701e-05
9.88703e-05
9.69138e-05
8.71504e-05
7.53912e-05
6.22537e-05
5.08558e-05
4.18024e-05
3.47255e-05
2.91679e-05
2.47566e-05
2.1227e-05
1.83587e-05
1.5954e-05
1.384e-05
1.18457e-05
1.05219e-05
7.93118e-06
0.00112979
0.00162009
0.000552435
0.000536406
0.000562645
0.000604767
0.000666088
0.000747101
0.000824157
0.000873579
0.000876012
0.000824928
0.000726957
0.000605497
0.000521763
0.000663184
0.000134998
4.79618e-05
0.000118281
0.000123567
0.00011138
9.41995e-05
7.84228e-05
7.0091e-05
5.67064e-05
4.49573e-05
3.56593e-05
2.84895e-05
2.29823e-05
1.87532e-05
1.55148e-05
1.31374e-05
1.17008e-05
1.10746e-05
2.4874e-05
1.75557e-05
0.00205747
0.00395773
0.000688994
0.000514481
0.000539579
0.000606368
0.000704421
0.000827111
0.000940329
0.00101093
0.00102087
0.000970263
0.000869327
0.000740649
0.000628286
0.000567928
0.000654156
0.000380763
0.000268268
0.000201013
0.000154499
0.000121152
0.000101317
0.000182767
0.000125761
8.9686e-05
6.6208e-05
5.04348e-05
3.95091e-05
3.17443e-05
2.6139e-05
2.21133e-05
1.67669e-05
1.39258e-05
4.40451e-05
2.70415e-05
0.00332711
0.00819686
0.00110293
0.000528731
0.000533924
0.000630104
0.000783453
0.000971277
0.00111939
0.00119493
0.00119375
0.00112716
0.00100683
0.000854435
0.000715067
0.000614141
0.000586362
0.00112073
0.000620478
0.000371731
0.00024858
0.000178728
0.000135704
0.000115635
0.000262502
0.000197798
0.000158578
0.000132398
0.000112577
9.632e-05
8.22784e-05
6.91205e-05
5.57499e-05
3.27814e-05
2.1252e-05
6.83221e-05
3.63891e-05
0.00507272
0.0145745
0.00220103
0.000653122
0.000567208
0.000696556
0.000973587
0.00125073
0.00140664
0.00145504
0.00141926
0.00131734
0.00116122
0.00097131
0.000778077
0.00060782
0.000479982
0.000419131
0.000337116
0.000263801
0.000205485
0.000161156
0.000128488
0.000107108
0.000103109
9.54456e-05
8.78064e-05
8.03775e-05
7.2755e-05
6.48828e-05
5.7168e-05
4.99138e-05
4.32677e-05
3.42655e-05
2.59673e-05
5.07719e-05
4.01061e-05
6.80801e-05
0.000121131
0.000171275
0.00749651
0.0215991
0.00495384
0.00131452
0.000906128
0.00105783
0.00156116
0.00180636
0.00187003
0.00183494
0.00173772
0.00158293
0.00137204
0.0011219
0.000865003
0.000636608
0.000464049
0.00035514
0.000284273
0.000229304
0.000183443
0.000147018
0.000120033
0.000102286
9.36041e-05
8.94778e-05
8.66808e-05
8.3469e-05
7.88193e-05
7.19109e-05
6.28111e-05
5.34292e-05
4.48575e-05
3.71696e-05
3.20017e-05
4.0166e-05
4.16232e-05
5.20032e-05
0.000223076
0.000194429
0.0102799
0.0257917
0.0101288
0.00427171
0.00298148
0.00293901
0.00294209
0.00279385
0.00259397
0.00239171
0.0021823
0.00193795
0.00164116
0.00130602
0.000970942
0.000679681
0.000466923
0.000334669
0.000255405
0.000201591
0.000160633
0.000130388
0.000110076
9.86686e-05
9.46958e-05
9.51347e-05
9.70903e-05
9.90749e-05
0.000100051
9.85156e-05
9.14441e-05
8.08534e-05
7.03418e-05
6.13195e-05
5.75824e-05
6.34997e-05
7.99396e-05
0.000126875
0.000294245
0.000286913
0.0108868
0.0279031
0.01563
0.0107662
0.00818238
0.00636315
0.00502405
0.0041181
0.00352236
0.003107
0.00275615
0.00238398
0.00195393
0.00149213
0.00105142
0.00068255
0.000433398
0.000290239
0.0002098
0.000164102
0.000133353
0.000113306
0.000102004
9.78117e-05
9.9113e-05
0.000104146
0.000111653
0.000121331
0.000133313
0.000147532
0.000163001
0.000172465
0.000181123
0.00019962
0.000238441
0.000355211
0.000651257
0.00123049
0.00364995
0.00109386
0.0100414
0.0167324
0.0133214
0.0101189
0.00781974
0.00629234
0.00531471
0.0047016
0.00428165
0.00390061
0.00345081
0.00288044
0.00220785
0.00154606
0.000976392
0.00053042
0.000316528
0.000215161
0.000161634
0.00013033
0.000110985
9.99803e-05
9.53408e-05
9.56788e-05
9.99891e-05
0.000107658
0.000118651
0.000133642
0.000153938
0.000181408
0.000218535
0.00026906
0.000338761
0.00044413
0.00059983
0.000812858
0.0010598
0.00127937
0.00144895
0.000912192
0.0036285
0.00558967
0.00654129
0.00667836
0.00652296
0.00615863
0.00554478
0.00470226
0.00371299
0.00262104
0.00152694
0.000871798
0.000493385
0.000288066
0.00019097
0.000143194
0.000117571
0.000102739
9.39724e-05
8.93967e-05
8.7769e-05
8.84209e-05
9.11158e-05
9.60385e-05
0.000103742
0.000115155
0.000131687
0.000155385
0.000189199
0.000237383
0.000304922
0.000398594
0.000522119
0.0006654
0.000792686
0.000854362
0.000818107
0.000526125
0.00274739
0.00637452
0.00709949
0.00593518
0.00530487
0.00459853
0.00367172
0.00271445
0.00188108
0.00123055
0.000736755
0.000437844
0.000275363
0.000194202
0.000156786
0.000139645
0.000131543
0.000127331
0.000124689
0.000122649
0.000120966
0.000119707
0.000119341
0.000120617
0.000124323
0.000131299
0.000142769
0.000160549
0.000187306
0.000226419
0.000282343
0.000359623
0.000458897
0.000572413
0.000658261
0.000751253
0.000757357
0.000558122
0.00197467
0.00234953
0.00264136
0.00330421
0.00299637
0.00265383
0.00244452
0.00216236
0.00179444
0.00139797
0.00102701
0.000717827
0.000484401
0.000330321
0.000238696
0.000185089
0.00015231
0.000131123
0.000116925
0.00010736
0.000101108
9.74279e-05
9.58879e-05
9.65175e-05
9.95577e-05
0.000105108
0.000113307
0.000124714
0.000140206
0.000161019
0.000187742
0.000221733
0.000265058
0.000320321
0.000389805
0.000484334
0.000518628
0.000479977
0.000398218
0.000322512
)
;

boundaryField
{
    floor
    {
        Cmu             0.09;
        kappa           0.41;
        E               9.8;
        type            epsilonWallFunction;
        value           nonuniform List<scalar> 
29
(
0.000624439
3.79368e-05
6.94701e-05
9.88703e-05
9.69138e-05
8.71504e-05
7.53912e-05
6.22537e-05
5.08558e-05
4.18024e-05
3.47255e-05
2.91679e-05
2.47566e-05
2.1227e-05
1.83587e-05
1.5954e-05
1.384e-05
1.18457e-05
1.05219e-05
7.93118e-06
7.93118e-06
1.75557e-05
2.70415e-05
3.63891e-05
0.000624439
3.79368e-05
4.79618e-05
0.000380763
0.00112073
)
;
    }
    ceiling
    {
        Cmu             0.09;
        kappa           0.41;
        E               9.8;
        type            epsilonWallFunction;
        value           nonuniform List<scalar> 
43
(
0.00197467
0.00234953
0.00264136
0.00330421
0.00299637
0.00265383
0.00244452
0.00216236
0.00179444
0.00139797
0.00102701
0.000717827
0.000484401
0.000330321
0.000238696
0.000185089
0.00015231
0.000131123
0.000116925
0.00010736
0.000101108
9.74279e-05
9.58879e-05
9.65175e-05
9.95577e-05
0.000105108
0.000113307
0.000124714
0.000140206
0.000161019
0.000187742
0.000221733
0.000265058
0.000320321
0.000389805
0.000484334
0.000518628
0.000479977
0.000398218
0.000322512
0.0100414
0.0167324
0.00274739
)
;
    }
    sWall
    {
        Cmu             0.09;
        kappa           0.41;
        E               9.8;
        type            epsilonWallFunction;
        value           uniform 0.00197467;
    }
    nWall
    {
        Cmu             0.09;
        kappa           0.41;
        E               9.8;
        type            epsilonWallFunction;
        value           nonuniform List<scalar> 6(0.000171275 0.000194429 0.000286913 0.000526125 0.000558122 0.000322512);
    }
    sideWalls
    {
        type            empty;
    }
    glass1
    {
        Cmu             0.09;
        kappa           0.41;
        E               9.8;
        type            epsilonWallFunction;
        value           nonuniform List<scalar> 9(0.00044688 0.00112979 0.00205747 0.00332711 0.00507272 0.00749651 0.0102799 0.0108868 0.0100414);
    }
    glass2
    {
        Cmu             0.09;
        kappa           0.41;
        E               9.8;
        type            epsilonWallFunction;
        value           nonuniform List<scalar> 2(0.00109386 0.000912192);
    }
    sun
    {
        Cmu             0.09;
        kappa           0.41;
        E               9.8;
        type            epsilonWallFunction;
        value           nonuniform List<scalar> 
14
(
0.00044688
0.000583144
0.000616597
0.000710008
0.000804514
0.000900282
0.00100134
0.00110688
0.00118547
0.00121934
0.00119376
0.00110426
0.000960391
0.000788286
)
;
    }
    heatsource1
    {
        Cmu             0.09;
        kappa           0.41;
        E               9.8;
        type            epsilonWallFunction;
        value           nonuniform List<scalar> 3(6.80801e-05 0.000121131 0.000171275);
    }
    heatsource2
    {
        Cmu             0.09;
        kappa           0.41;
        E               9.8;
        type            epsilonWallFunction;
        value           nonuniform List<scalar> 4(0.000663184 0.000134998 0.000134998 0.000654156);
    }
    Table_master
    {
        Cmu             0.09;
        kappa           0.41;
        E               9.8;
        type            epsilonWallFunction;
        value           nonuniform List<scalar> 9(0.000182767 0.000125761 8.9686e-05 6.6208e-05 5.04348e-05 3.95091e-05 3.17443e-05 2.6139e-05 2.21133e-05);
    }
    Table_slave
    {
        Cmu             0.09;
        kappa           0.41;
        E               9.8;
        type            epsilonWallFunction;
        value           nonuniform List<scalar> 9(0.000262502 0.000197798 0.000158578 0.000132398 0.000112577 9.632e-05 8.22784e-05 6.91205e-05 5.57499e-05);
    }
    inlet
    {
        type            turbulentMixingLengthDissipationRateInlet;
        mixingLength    0.01;
        phi             phi;
        k               k;
        value           uniform 0.000101881;
    }
    outlet
    {
        type            zeroGradient;
    }
}


// ************************************************************************* //
