// -*- C++ -*-
// File generated by PyFoam - sorry for the ugliness

FoamFile
{
 version 2.0;
 format ascii;
 class volScalarField;
 location "200";
 object T;
}

dimensions [ 0 0 0 1 0 0 0 ];

internalField nonuniform List<scalar> 459
(
  302.957
  302.697
  302.687
  302.687
  302.686
  302.685
  302.681
  302.675
  302.667
  302.661
  302.658
  302.66
  302.664
  302.666
  302.676
  302.881
  302.855
  302.846
  302.857
  302.871
  302.884
  302.894
  302.903
  302.912
  302.92
  302.929
  302.938
  302.948
  302.957
  302.968
  302.979
  302.992
  303.01
  303.046
  303.128
  302.735
  302.714
  302.718
  302.723
  302.724
  302.719
  302.703
  302.682
  302.665
  302.657
  302.66
  302.666
  302.667
  302.667
  302.661
  302.65
  302.886
  302.824
  302.823
  302.84
  302.862
  302.881
  302.889
  302.895
  302.901
  302.907
  302.913
  302.919
  302.927
  302.934
  302.944
  302.955
  302.97
  302.991
  303.037
  303.308
  302.784
  302.748
  302.762
  302.778
  302.786
  302.778
  302.747
  302.705
  302.672
  302.658
  302.663
  302.674
  302.679
  302.677
  302.672
  302.661
  302.832
  302.806
  302.814
  302.843
  302.879
  302.908
  302.909
  302.91
  302.913
  302.917
  302.921
  302.927
  302.933
  302.94
  302.948
  302.96
  302.974
  302.993
  303.038
  303.494
  302.846
  302.789
  302.813
  302.847
  302.871
  302.857
  302.799
  302.729
  302.677
  302.657
  302.665
  302.684
  302.698
  302.701
  302.696
  302.685
  302.694
  302.718
  302.761
  302.816
  302.875
  302.93
  302.974
  303.011
  303.04
  303.065
  303.087
  303.107
  303.126
  303.143
  303.159
  303.171
  303.1
  303.045
  303.022
  303.048
  303.677
  302.926
  302.836
  302.865
  302.921
  302.967
  302.937
  302.841
  302.742
  302.676
  302.653
  302.666
  302.697
  302.726
  302.74
  302.741
  302.742
  302.76
  302.796
  302.848
  302.91
  302.973
  303.031
  303.081
  303.126
  303.161
  303.189
  303.212
  303.229
  303.24
  303.246
  303.245
  303.235
  303.184
  303.111
  303.06
  303.06
  303.249
  303.32
  303.312
  303.845
  303.032
  302.915
  302.932
  303.014
  303.05
  302.979
  302.856
  302.737
  302.662
  302.642
  302.668
  302.72
  302.769
  302.801
  302.819
  302.835
  302.866
  302.914
  302.973
  303.038
  303.1
  303.156
  303.203
  303.243
  303.274
  303.298
  303.316
  303.326
  303.33
  303.326
  303.315
  303.294
  303.248
  303.177
  303.111
  303.086
  303.165
  303.205
  303.254
  304.006
  303.202
  303.086
  303.098
  303.164
  303.117
  302.979
  302.814
  302.683
  302.618
  302.622
  302.679
  302.762
  302.841
  302.898
  302.937
  302.968
  303.011
  303.065
  303.124
  303.184
  303.239
  303.286
  303.325
  303.355
  303.379
  303.396
  303.407
  303.41
  303.405
  303.393
  303.375
  303.348
  303.305
  303.245
  303.18
  303.142
  303.162
  303.185
  303.224
  304.233
  303.635
  303.507
  303.474
  303.344
  303.116
  302.864
  302.664
  302.554
  302.545
  302.608
  302.719
  302.853
  302.963
  303.044
  303.09
  303.127
  303.174
  303.229
  303.282
  303.33
  303.373
  303.406
  303.432
  303.451
  303.464
  303.471
  303.473
  303.469
  303.459
  303.443
  303.423
  303.397
  303.357
  303.312
  303.264
  303.239
  303.259
  303.282
  303.397
  304.561
  304.274
  304.04
  303.709
  303.153
  302.682
  302.396
  302.296
  302.343
  302.492
  302.667
  302.849
  303.044
  303.155
  303.211
  303.251
  303.29
  303.334
  303.381
  303.423
  303.458
  303.485
  303.505
  303.517
  303.523
  303.524
  303.519
  303.51
  303.498
  303.484
  303.47
  303.458
  303.447
  303.442
  303.446
  303.461
  303.491
  303.523
  303.543
  303.6
  295.776
  296.756
  298.551
  299.992
  301.03
  301.782
  302.339
  302.797
  303.03
  303.169
  303.261
  303.322
  303.365
  303.401
  303.437
  303.473
  303.508
  303.536
  303.557
  303.57
  303.576
  303.577
  303.572
  303.564
  303.554
  303.543
  303.531
  303.519
  303.509
  303.501
  303.495
  303.495
  303.502
  303.518
  303.544
  303.578
  303.62
  303.679
  296.635
  298.573
  300.589
  301.651
  302.299
  302.719
  302.996
  303.181
  303.299
  303.376
  303.43
  303.47
  303.502
  303.531
  303.559
  303.583
  303.604
  303.618
  303.626
  303.628
  303.625
  303.619
  303.611
  303.6
  303.59
  303.578
  303.567
  303.556
  303.546
  303.538
  303.532
  303.529
  303.532
  303.541
  303.558
  303.589
  303.61
  303.659
  300.075
  299.998
  299.989
  301.929
  302.711
  303.027
  303.2
  303.323
  303.413
  303.479
  303.528
  303.564
  303.592
  303.614
  303.632
  303.647
  303.659
  303.668
  303.673
  303.675
  303.673
  303.668
  303.661
  303.653
  303.644
  303.635
  303.625
  303.615
  303.605
  303.594
  303.584
  303.575
  303.567
  303.56
  303.557
  303.561
  303.57
  303.583
  303.597
  303.652
)
;

boundaryField
{
  floor
  {
    type wallHeatTransfer;
    Tinf uniform 305.2;
    alphaWall uniform 0.24;
    value nonuniform List<scalar> 29
(
  302.975
  303.284
  303.219
  303.175
  303.168
  303.181
  303.198
  303.222
  303.247
  303.271
  303.295
  303.319
  303.342
  303.364
  303.385
  303.407
  303.43
  303.455
  303.483
  303.541
  303.541
  303.484
  303.455
  303.443
  302.975
  303.284
  303.293
  303.146
  302.917
)
;
  }
  ceiling
  {
    type wallHeatTransfer;
    Tinf uniform 303.2;
    alphaWall uniform 0.24;
    value nonuniform List<scalar> 43
(
  300.292
  300.21
  300.195
  302.006
  302.743
  303.038
  303.201
  303.314
  303.396
  303.455
  303.497
  303.528
  303.551
  303.569
  303.584
  303.596
  303.605
  303.611
  303.614
  303.613
  303.609
  303.604
  303.596
  303.589
  303.58
  303.572
  303.564
  303.556
  303.548
  303.541
  303.534
  303.528
  303.523
  303.52
  303.518
  303.524
  303.533
  303.544
  303.555
  303.6
  304.499
  304.231
  297.05
)
;
  }
  sWall
  {
    type wallHeatTransfer;
    Tinf uniform 315.2;
    alphaWall uniform 0.36;
    value uniform 301.601;
  }
  nWall
  {
    type wallHeatTransfer;
    Tinf uniform 307.2;
    alphaWall uniform 0.36;
    value nonuniform List<scalar> 6
(
  304.034
  303.963
  303.863
  304.181
  304.157
  304.226
)
;
  }
  sideWalls
  {
    type empty;
  }
  glass1
  {
    type wallHeatTransfer;
    Tinf uniform 315.2;
    alphaWall uniform 4.3;
    value nonuniform List<scalar> 9
(
  311.1
  310.474
  310.084
  309.792
  309.549
  309.33
  309.178
  309.263
  309.506
)
;
  }
  glass2
  {
    type wallHeatTransfer;
    Tinf uniform 307.2;
    alphaWall uniform 4.3;
    value nonuniform List<scalar> 2
(
  305.741
  305.873
)
;
  }
  sun
  {
    type wallHeatTransfer;
    Tinf uniform 305.2;
    alphaWall uniform 0.24;
    value nonuniform List<scalar> 14
(
  303.176
  302.924
  302.911
  302.902
  302.893
  302.884
  302.875
  302.865
  302.857
  302.852
  302.855
  302.868
  302.895
  302.929
)
;
  }
  heatsource1
  {
    type fixedGradient;
    gradient uniform 0;
  }
  heatsource2
  {
    type fixedGradient;
    gradient uniform 0;
  }
  Table_master
  {
    type zeroGradient;
  }
  Table_slave
  {
    type zeroGradient;
  }
  inlet
  {
    type fixedValue;
    value uniform 293.15;
  }
  outlet
  {
    type zeroGradient;
  }
} 	// ************************************************************************* //

