/*--------------------------------*- C++ -*----------------------------------*\
  =========                 |
  \\      /  F ield         | OpenFOAM: The Open Source CFD Toolbox
   \\    /   O peration     | Website:  https://openfoam.org
    \\  /    A nd           | Version:  6
     \\/     M anipulation  |
\*---------------------------------------------------------------------------*/
FoamFile
{
    version     2.0;
    format      ascii;
    class       volScalarField;
    location    "430";
    object      epsilon;
}
// * * * * * * * * * * * * * * * * * * * * * * * * * * * * * * * * * * * * * //

dimensions      [0 2 -3 0 0 0 0];

internalField   nonuniform List<scalar> 
459
(
0.000289884
0.000377417
0.000400545
0.000463006
0.000526918
0.000592814
0.000663968
0.000738787
0.000798973
0.000831711
0.000824524
0.000770069
0.000668075
0.000519047
0.000323418
7.4479e-05
0.000165241
0.000145014
0.000127187
0.000112798
9.88143e-05
8.22482e-05
6.73616e-05
5.53738e-05
4.59241e-05
3.85188e-05
3.26264e-05
2.78496e-05
2.38847e-05
2.04813e-05
1.74046e-05
1.46587e-05
1.16692e-05
1.63707e-05
0.000730917
0.00105348
0.000350626
0.000339916
0.000355521
0.000382231
0.00042328
0.000478845
0.000534544
0.000573819
0.000581833
0.000551743
0.000487674
0.000402142
0.000308342
0.000371441
9.03031e-05
0.000197984
0.000385099
0.000192758
0.000134771
0.000105613
8.79643e-05
8.16815e-05
6.67739e-05
5.33985e-05
4.26944e-05
3.43646e-05
2.79404e-05
2.29574e-05
1.91139e-05
1.64366e-05
1.52224e-05
1.94274e-05
2.27153e-05
3.21244e-05
0.00133461
0.00256911
0.000427573
0.000318157
0.000329985
0.000367738
0.000426409
0.0005032
0.000578723
0.000631503
0.000648607
0.000625672
0.000568153
0.000489147
0.000403527
0.000352451
0.000418277
0.00033948
0.000263731
0.000187746
0.000144311
0.000116135
0.000103578
0.00021505
0.000144173
0.000100914
7.36284e-05
5.57628e-05
4.36757e-05
3.52699e-05
2.93667e-05
2.53968e-05
2.01844e-05
2.16778e-05
3.1505e-05
4.23164e-05
0.00216456
0.00529983
0.000663736
0.000316809
0.000315672
0.000365864
0.00044935
0.000560102
0.000655153
0.000713288
0.000731168
0.000707486
0.000646959
0.000561168
0.000475807
0.000406675
0.000368781
0.000752232
0.000460553
0.000296167
0.000209809
0.00015913
0.000127908
0.000117151
0.000288752
0.000218219
0.000179375
0.000155905
0.000139773
0.000126239
0.000111947
9.85108e-05
8.41033e-05
5.11739e-05
3.64676e-05
5.39938e-05
6.01719e-05
0.00330619
0.00942324
0.00127807
0.000361813
0.000310772
0.000374023
0.000515757
0.000686079
0.000791921
0.000841082
0.000847193
0.000809627
0.000731186
0.000624039
0.00051015
0.000409326
0.000333761
0.000305743
0.000265415
0.000225537
0.000189568
0.000159407
0.000135906
0.000120166
0.000120626
0.000115111
0.000109821
0.000104868
9.94706e-05
9.27303e-05
8.40258e-05
7.44828e-05
6.53143e-05
5.38473e-05
4.31589e-05
5.71102e-05
6.30282e-05
8.68086e-05
8.17068e-05
7.03911e-05
0.00489144
0.0140177
0.00282988
0.000639282
0.000408067
0.000453188
0.000749924
0.000951918
0.00102668
0.00104079
0.00101924
0.000958979
0.000852731
0.00070987
0.00055747
0.000424872
0.000331145
0.00027923
0.000247343
0.000220862
0.00019639
0.000174269
0.00015582
0.000142455
0.000136491
0.000134911
0.000134399
0.000132459
0.000127924
0.000120367
0.00010969
9.55694e-05
8.09215e-05
6.76889e-05
5.62238e-05
5.63306e-05
6.40518e-05
7.13166e-05
0.000172612
0.00013229
0.00680855
0.016878
0.00608614
0.0020752
0.00125225
0.00115093
0.00139512
0.00144328
0.00140349
0.001342
0.00127159
0.00117178
0.00102281
0.000832603
0.000636386
0.000471643
0.000361188
0.000301879
0.000270337
0.000247816
0.000228204
0.000211243
0.00019832
0.000190836
0.000189513
0.000191899
0.000193299
0.000190462
0.000182565
0.000170887
0.000157637
0.000143944
0.000126246
0.000110895
0.000100022
9.4512e-05
9.61984e-05
0.000103878
0.000276616
0.000216804
0.00733511
0.0202505
0.0106382
0.00656506
0.00441779
0.00338843
0.0026995
0.00224246
0.00194594
0.00175767
0.00161845
0.00146265
0.00125043
0.000993551
0.000744205
0.000546387
0.000423264
0.000361954
0.000332895
0.000315212
0.000303137
0.000295201
0.000292017
0.0002939
0.000299358
0.000304568
0.00030422
0.000294391
0.000274832
0.000250441
0.000229926
0.00022038
0.000223281
0.000228971
0.000252465
0.000291501
0.000353574
0.000430672
0.00158608
0.000420582
0.00685053
0.0117976
0.00976623
0.00728594
0.00546578
0.00422334
0.00337095
0.00280113
0.00244896
0.0022391
0.00207168
0.00185114
0.00154106
0.00118652
0.000884887
0.000672138
0.000566751
0.000523989
0.000508276
0.000504403
0.000507498
0.000513825
0.000522728
0.000534696
0.000546849
0.000553364
0.000546298
0.000518343
0.000467357
0.000401768
0.000341356
0.000305382
0.000302929
0.000332483
0.000389685
0.000481663
0.000610032
0.00077324
0.000953076
0.000521495
0.00453105
0.00616403
0.00499384
0.00416343
0.00358589
0.0032338
0.00305926
0.00294592
0.00276059
0.00241976
0.00195289
0.00147904
0.0012297
0.0011204
0.00108993
0.00109099
0.00110422
0.00112404
0.00115
0.00117126
0.00118742
0.00120575
0.00122394
0.00123351
0.00121969
0.0011635
0.00104939
0.000879987
0.000692834
0.000542002
0.000447579
0.000405019
0.000418632
0.000486055
0.000597017
0.000728523
0.000885321
0.000895712
0.00283172
0.00423847
0.00426399
0.00435495
0.00446611
0.00468954
0.00495117
0.00510181
0.00496944
0.00450967
0.00390456
0.00337716
0.00307035
0.0029239
0.00288975
0.00292012
0.00297758
0.00303936
0.00308874
0.00312099
0.00313942
0.00317082
0.00321978
0.00327807
0.00331969
0.00329842
0.00315926
0.00287162
0.00247546
0.00202955
0.00159646
0.00123475
0.000975179
0.000824475
0.000759917
0.000761284
0.00189651
0.00132682
0.00114805
0.0014774
0.00189397
0.00202524
0.00179066
0.00181842
0.00200223
0.00222943
0.0024348
0.0025666
0.00257844
0.00246373
0.00231019
0.00215518
0.00203483
0.00196253
0.00192385
0.00190267
0.001888
0.00187324
0.00185655
0.00183997
0.00183174
0.00182547
0.00181743
0.00179853
0.0017559
0.00167808
0.00156419
0.00143284
0.0012952
0.0011629
0.0010468
0.000951975
0.000881794
0.000834559
0.000799943
0.000762761
0.000840207
0.000764633
)
;

boundaryField
{
    floor
    {
        Cmu             0.09;
        kappa           0.41;
        E               9.8;
        type            epsilonWallFunction;
        value           nonuniform List<scalar> 
29
(
0.000323418
7.4479e-05
0.000165241
0.000145014
0.000127187
0.000112798
9.88143e-05
8.22482e-05
6.73616e-05
5.53738e-05
4.59241e-05
3.85188e-05
3.26264e-05
2.78496e-05
2.38847e-05
2.04813e-05
1.74046e-05
1.46587e-05
1.16692e-05
1.63707e-05
1.63707e-05
3.21244e-05
4.23164e-05
6.01719e-05
0.000323418
7.4479e-05
0.000197984
0.00033948
0.000752232
)
;
    }
    ceiling
    {
        Cmu             0.09;
        kappa           0.41;
        E               9.8;
        type            epsilonWallFunction;
        value           nonuniform List<scalar> 
43
(
0.00114805
0.0014774
0.00189397
0.00202524
0.00179066
0.00181842
0.00200223
0.00222943
0.0024348
0.0025666
0.00257844
0.00246373
0.00231019
0.00215518
0.00203483
0.00196253
0.00192385
0.00190267
0.001888
0.00187324
0.00185655
0.00183997
0.00183174
0.00182547
0.00181743
0.00179853
0.0017559
0.00167808
0.00156419
0.00143284
0.0012952
0.0011629
0.0010468
0.000951975
0.000881794
0.000834559
0.000799943
0.000762761
0.000840207
0.000764633
0.00685053
0.0117976
0.00283172
)
;
    }
    sWall
    {
        Cmu             0.09;
        kappa           0.41;
        E               9.8;
        type            epsilonWallFunction;
        value           uniform 0.00114805;
    }
    nWall
    {
        Cmu             0.09;
        kappa           0.41;
        E               9.8;
        type            epsilonWallFunction;
        value           nonuniform List<scalar> 6(7.03911e-05 0.00013229 0.000216804 0.000895712 0.00132682 0.000764633);
    }
    sideWalls
    {
        type            empty;
    }
    glass1
    {
        Cmu             0.09;
        kappa           0.41;
        E               9.8;
        type            epsilonWallFunction;
        value           nonuniform List<scalar> 9(0.000289884 0.000730917 0.00133461 0.00216456 0.00330619 0.00489144 0.00680855 0.00733511 0.00685053);
    }
    glass2
    {
        Cmu             0.09;
        kappa           0.41;
        E               9.8;
        type            epsilonWallFunction;
        value           nonuniform List<scalar> 2(0.000420582 0.000521495);
    }
    sun
    {
        Cmu             0.09;
        kappa           0.41;
        E               9.8;
        type            epsilonWallFunction;
        value           nonuniform List<scalar> 
14
(
0.000289884
0.000377417
0.000400545
0.000463006
0.000526918
0.000592814
0.000663968
0.000738787
0.000798973
0.000831711
0.000824524
0.000770069
0.000668075
0.000519047
)
;
    }
    heatsource1
    {
        Cmu             0.09;
        kappa           0.41;
        E               9.8;
        type            epsilonWallFunction;
        value           nonuniform List<scalar> 3(8.68086e-05 8.17068e-05 7.03911e-05);
    }
    heatsource2
    {
        Cmu             0.09;
        kappa           0.41;
        E               9.8;
        type            epsilonWallFunction;
        value           nonuniform List<scalar> 4(0.000371441 9.03031e-05 9.03031e-05 0.000418277);
    }
    Table_master
    {
        Cmu             0.09;
        kappa           0.41;
        E               9.8;
        type            epsilonWallFunction;
        value           nonuniform List<scalar> 9(0.00021505 0.000144173 0.000100914 7.36284e-05 5.57628e-05 4.36757e-05 3.52699e-05 2.93667e-05 2.53968e-05);
    }
    Table_slave
    {
        Cmu             0.09;
        kappa           0.41;
        E               9.8;
        type            epsilonWallFunction;
        value           nonuniform List<scalar> 9(0.000288752 0.000218219 0.000179375 0.000155905 0.000139773 0.000126239 0.000111947 9.85108e-05 8.41033e-05);
    }
    inlet
    {
        type            turbulentMixingLengthDissipationRateInlet;
        mixingLength    0.01;
        phi             phi;
        k               k;
        value           uniform 3.01869e-05;
    }
    outlet
    {
        type            zeroGradient;
    }
}


// ************************************************************************* //
