// -*- C++ -*-
// File generated by PyFoam - sorry for the ugliness

FoamFile
{
 version 2.0;
 format ascii;
 class volScalarField;
 location "100";
 object T;
}

dimensions [ 0 0 0 1 0 0 0 ];

internalField nonuniform List<scalar> 459
(
  302.635
  302.326
  302.32
  302.322
  302.323
  302.324
  302.325
  302.325
  302.324
  302.323
  302.321
  302.317
  302.311
  302.304
  302.298
  302.302
  302.283
  302.269
  302.257
  302.246
  302.235
  302.225
  302.215
  302.206
  302.197
  302.189
  302.182
  302.176
  302.171
  302.167
  302.163
  302.161
  302.16
  302.178
  302.864
  302.355
  302.337
  302.345
  302.352
  302.358
  302.362
  302.366
  302.367
  302.367
  302.362
  302.351
  302.334
  302.314
  302.293
  302.279
  302.273
  302.304
  302.286
  302.271
  302.257
  302.244
  302.231
  302.216
  302.201
  302.186
  302.172
  302.159
  302.147
  302.137
  302.128
  302.122
  302.119
  302.119
  302.123
  302.158
  303.093
  302.398
  302.361
  302.377
  302.393
  302.408
  302.421
  302.432
  302.438
  302.44
  302.432
  302.413
  302.383
  302.347
  302.312
  302.289
  302.283
  302.308
  302.295
  302.283
  302.271
  302.26
  302.248
  302.229
  302.208
  302.188
  302.17
  302.153
  302.138
  302.125
  302.115
  302.107
  302.104
  302.104
  302.109
  302.149
  303.312
  302.457
  302.386
  302.406
  302.433
  302.459
  302.484
  302.504
  302.518
  302.524
  302.515
  302.487
  302.443
  302.388
  302.333
  302.295
  302.287
  302.301
  302.308
  302.307
  302.299
  302.289
  302.279
  302.269
  302.261
  302.253
  302.247
  302.241
  302.235
  302.228
  302.221
  302.212
  302.202
  302.162
  302.129
  302.114
  302.149
  303.516
  302.533
  302.412
  302.428
  302.462
  302.498
  302.534
  302.567
  302.592
  302.605
  302.598
  302.565
  302.508
  302.434
  302.357
  302.298
  302.283
  302.299
  302.317
  302.32
  302.315
  302.307
  302.299
  302.291
  302.285
  302.28
  302.276
  302.271
  302.265
  302.258
  302.248
  302.236
  302.22
  302.191
  302.154
  302.125
  302.142
  302.223
  302.264
  302.273
  303.691
  302.632
  302.458
  302.444
  302.476
  302.516
  302.558
  302.6
  302.64
  302.666
  302.666
  302.631
  302.565
  302.477
  302.383
  302.302
  302.279
  302.302
  302.325
  302.333
  302.33
  302.324
  302.318
  302.312
  302.307
  302.303
  302.3
  302.295
  302.289
  302.281
  302.269
  302.254
  302.235
  302.209
  302.175
  302.143
  302.14
  302.173
  302.189
  302.229
  303.826
  302.798
  302.604
  302.515
  302.505
  302.529
  302.564
  302.605
  302.656
  302.703
  302.709
  302.671
  302.599
  302.505
  302.401
  302.303
  302.274
  302.303
  302.334
  302.344
  302.344
  302.34
  302.335
  302.331
  302.328
  302.325
  302.321
  302.317
  302.31
  302.301
  302.288
  302.27
  302.249
  302.224
  302.195
  302.164
  302.152
  302.161
  302.172
  302.206
  304.056
  303.289
  303.065
  302.862
  302.729
  302.666
  302.651
  302.666
  302.711
  302.744
  302.733
  302.681
  302.6
  302.502
  302.397
  302.298
  302.27
  302.304
  302.342
  302.356
  302.357
  302.354
  302.352
  302.349
  302.346
  302.344
  302.34
  302.336
  302.33
  302.322
  302.311
  302.295
  302.272
  302.25
  302.228
  302.207
  302.203
  302.225
  302.254
  302.421
  304.378
  304.048
  303.774
  303.503
  303.271
  303.1
  302.99
  302.929
  302.889
  302.824
  302.741
  302.648
  302.552
  302.456
  302.359
  302.269
  302.261
  302.309
  302.353
  302.367
  302.37
  302.369
  302.367
  302.365
  302.364
  302.362
  302.36
  302.357
  302.354
  302.35
  302.348
  302.348
  302.353
  302.363
  302.384
  302.418
  302.464
  302.508
  302.536
  302.604
  298.015
  300.681
  301.895
  302.324
  302.485
  302.54
  302.542
  302.528
  302.496
  302.452
  302.4
  302.343
  302.279
  302.218
  302.255
  302.324
  302.368
  302.381
  302.383
  302.383
  302.383
  302.382
  302.382
  302.383
  302.384
  302.385
  302.386
  302.389
  302.392
  302.396
  302.403
  302.415
  302.435
  302.462
  302.494
  302.523
  302.54
  302.558
  298.474
  300.628
  301.488
  301.912
  302.118
  302.209
  302.24
  302.248
  302.247
  302.239
  302.226
  302.207
  302.184
  302.162
  302.266
  302.365
  302.388
  302.397
  302.4
  302.4
  302.4
  302.401
  302.401
  302.402
  302.404
  302.406
  302.408
  302.411
  302.414
  302.418
  302.424
  302.434
  302.448
  302.467
  302.489
  302.512
  302.507
  302.539
  299.747
  299.695
  299.693
  301.004
  301.522
  301.876
  301.992
  302.046
  302.071
  302.081
  302.089
  302.095
  302.101
  302.105
  302.108
  302.121
  302.314
  302.419
  302.428
  302.431
  302.432
  302.433
  302.433
  302.434
  302.434
  302.435
  302.435
  302.435
  302.435
  302.436
  302.436
  302.437
  302.439
  302.443
  302.45
  302.465
  302.477
  302.485
  302.488
  302.526
)
;

boundaryField
{
  floor
  {
    type wallHeatTransfer;
    Tinf uniform 305.2;
    alphaWall uniform 0.24;
    value nonuniform List<scalar> 29
(
  302.652
  302.754
  302.757
  302.762
  302.763
  302.763
  302.764
  302.769
  302.775
  302.781
  302.788
  302.795
  302.802
  302.81
  302.819
  302.828
  302.838
  302.85
  302.857
  302.901
  302.901
  302.781
  302.715
  302.676
  302.652
  302.754
  302.698
  302.666
  302.625
)
;
  }
  ceiling
  {
    type wallHeatTransfer;
    Tinf uniform 303.2;
    alphaWall uniform 0.24;
    value nonuniform List<scalar> 43
(
  299.967
  299.909
  299.9
  301.127
  301.621
  301.96
  302.074
  302.129
  302.157
  302.172
  302.184
  302.196
  302.206
  302.216
  302.227
  302.246
  302.431
  302.523
  302.529
  302.532
  302.534
  302.534
  302.534
  302.534
  302.534
  302.533
  302.532
  302.531
  302.529
  302.526
  302.524
  302.521
  302.52
  302.519
  302.522
  302.532
  302.541
  302.55
  302.556
  302.595
  304.323
  304.014
  298.743
)
;
  }
  sWall
  {
    type wallHeatTransfer;
    Tinf uniform 315.2;
    alphaWall uniform 0.36;
    value uniform 301.18;
  }
  nWall
  {
    type wallHeatTransfer;
    Tinf uniform 307.2;
    alphaWall uniform 0.36;
    value nonuniform List<scalar> 6
(
  303.124
  303.058
  302.952
  303.196
  303.173
  303.205
)
;
  }
  sideWalls
  {
    type empty;
  }
  glass1
  {
    type wallHeatTransfer;
    Tinf uniform 315.2;
    alphaWall uniform 4.3;
    value nonuniform List<scalar> 9
(
  311.991
  311.182
  310.63
  310.179
  309.807
  309.49
  309.21
  309.248
  309.46
)
;
  }
  glass2
  {
    type wallHeatTransfer;
    Tinf uniform 307.2;
    alphaWall uniform 4.3;
    value nonuniform List<scalar> 2
(
  305.271
  305.429
)
;
  }
  sun
  {
    type wallHeatTransfer;
    Tinf uniform 305.2;
    alphaWall uniform 0.24;
    value nonuniform List<scalar> 14
(
  302.987
  302.707
  302.705
  302.698
  302.692
  302.688
  302.683
  302.68
  302.676
  302.672
  302.668
  302.664
  302.659
  302.655
)
;
  }
  heatsource1
  {
    type fixedGradient;
    gradient uniform 0;
  }
  heatsource2
  {
    type fixedGradient;
    gradient uniform 0;
  }
  Table_master
  {
    type zeroGradient;
  }
  Table_slave
  {
    type zeroGradient;
  }
  inlet
  {
    type fixedValue;
    value uniform 293.15;
  }
  outlet
  {
    type zeroGradient;
  }
} 	// ************************************************************************* //

