// -*- C++ -*-
// File generated by PyFoam - sorry for the ugliness

FoamFile
{
 version 2.0;
 format ascii;
 class volVectorField;
 location "100";
 object U;
}

dimensions [ 0 1 -1 0 0 0 0 ];

internalField nonuniform List<vector> 459
(
  (0.0698963 0.0792455 0)
  (-0.155582 0.0144121 0)
  (-0.163166 0.0145133 0)
  (-0.191101 0.0119548 0)
  (-0.215254 0.00848612 0)
  (-0.235056 0.00464453 0)
  (-0.249781 0.00043288 0)
  (-0.258643 -0.00426656 0)
  (-0.260615 -0.00961512 0)
  (-0.254453 -0.0159135 0)
  (-0.238835 -0.0235377 0)
  (-0.211497 -0.0328149 0)
  (-0.171383 -0.0453934 0)
  (-0.12784 -0.0648388 0)
  (-0.114911 -0.0917747 0)
  (0.0808336 -0.0254697 0)
  (0.0350289 -0.0173689 0)
  (0.0480973 -0.0110489 0)
  (0.0636788 -0.0076064 0)
  (0.072126 -0.00559141 0)
  (0.0763011 -0.00383631 0)
  (0.0782143 -0.00205208 0)
  (0.0782059 -0.00103354 0)
  (0.0771505 -0.000656189 0)
  (0.0759186 -0.000540122 0)
  (0.0748148 -0.000488217 0)
  (0.0737978 -0.000439733 0)
  (0.0727289 -0.000330668 0)
  (0.0713423 -6.19013e-06 0)
  (0.0690189 0.00090333 0)
  (0.0645076 0.00292165 0)
  (0.0564556 0.00518853 0)
  (0.0487931 0.00739584 0)
  (-0.0128055 0.0246188 0)
  (0.273833 0.168095 0)
  (-0.164443 0.0447454 0)
  (-0.137898 0.0454673 0)
  (-0.169877 0.0407505 0)
  (-0.194492 0.0348984 0)
  (-0.214607 0.0282995 0)
  (-0.229801 0.0207104 0)
  (-0.239449 0.0117774 0)
  (-0.242591 0.00114776 0)
  (-0.238048 -0.0113321 0)
  (-0.225633 -0.0248515 0)
  (-0.204773 -0.0388893 0)
  (-0.177035 -0.0545029 0)
  (-0.149067 -0.0738637 0)
  (-0.128299 -0.0897977 0)
  (-0.0961564 -0.0698874 0)
  (-0.0492974 -0.0556985 0)
  (0.0948408 -0.053331 0)
  (0.0358829 -0.0293073 0)
  (0.0428263 -0.0159889 0)
  (0.0550779 -0.0105244 0)
  (0.0622827 -0.00774677 0)
  (0.0666255 -0.0046998 0)
  (0.0692241 -7.67977e-05 0)
  (0.0694356 0.00238198 0)
  (0.0690573 0.00309387 0)
  (0.0689536 0.00314512 0)
  (0.0690526 0.00305384 0)
  (0.0691609 0.0029984 0)
  (0.0692093 0.00314787 0)
  (0.0691374 0.00385205 0)
  (0.0683943 0.00599635 0)
  (0.0645656 0.0121228 0)
  (0.0547935 0.0175911 0)
  (0.0511208 0.0217747 0)
  (-0.0582205 0.0516031 0)
  (0.455165 0.25498 0)
  (-0.204383 0.0790134 0)
  (-0.106414 0.0763211 0)
  (-0.142719 0.0649416 0)
  (-0.164798 0.0540106 0)
  (-0.183341 0.0421848 0)
  (-0.197775 0.0287737 0)
  (-0.207456 0.0133126 0)
  (-0.21127 -0.00438306 0)
  (-0.207557 -0.0240325 0)
  (-0.196779 -0.0448715 0)
  (-0.17937 -0.0653887 0)
  (-0.157638 -0.0850078 0)
  (-0.135118 -0.102737 0)
  (-0.111794 -0.111915 0)
  (-0.0816622 -0.102501 0)
  (-0.0555442 -0.0961209 0)
  (0.0701452 -0.070102 0)
  (0.0185472 -0.0395862 0)
  (0.0280173 -0.024063 0)
  (0.0395594 -0.0179875 0)
  (0.0474283 -0.0144948 0)
  (0.0530973 -0.0115669 0)
  (0.0574926 -0.00781903 0)
  (0.056977 -0.00498462 0)
  (0.0565078 -0.00371068 0)
  (0.0572238 -0.00318103 0)
  (0.0583559 -0.00294024 0)
  (0.0594229 -0.00280574 0)
  (0.0604878 -0.00261094 0)
  (0.0620924 -0.00200569 0)
  (0.0655212 0.00100346 0)
  (0.0640067 0.0178043 0)
  (0.0507512 0.0298055 0)
  (0.0574196 0.0381168 0)
  (-0.0998459 0.0788867 0)
  (0.610476 0.326768 0)
  (-0.256987 0.114402 0)
  (-0.0697753 0.103877 0)
  (-0.112386 0.086796 0)
  (-0.129378 0.0730819 0)
  (-0.144763 0.0583924 0)
  (-0.157518 0.0414628 0)
  (-0.166822 0.0214228 0)
  (-0.171148 -0.00223495 0)
  (-0.167842 -0.0289697 0)
  (-0.158407 -0.0565691 0)
  (-0.144151 -0.082389 0)
  (-0.127598 -0.104927 0)
  (-0.110945 -0.122712 0)
  (-0.0939769 -0.132279 0)
  (-0.0753359 -0.129949 0)
  (-0.0578646 -0.106739 0)
  (-0.0261846 -0.0196373 0)
  (0.0156741 -0.0660134 0)
  (0.0125965 -0.0480501 0)
  (0.0188421 -0.0333618 0)
  (0.0268361 -0.0256689 0)
  (0.0331299 -0.020575 0)
  (0.0376536 -0.0154471 0)
  (0.0437231 -0.0109316 0)
  (0.0542551 -0.00951512 0)
  (0.0638487 -0.00853067 0)
  (0.0719444 -0.00754862 0)
  (0.0784457 -0.00620105 0)
  (0.0826369 -0.00423332 0)
  (0.0830892 -0.0015019 0)
  (0.0781658 0.00229062 0)
  (0.0654228 0.00758143 0)
  (0.0528735 0.0281028 0)
  (0.039427 0.0455622 0)
  (0.0626746 0.0590602 0)
  (-0.14733 0.10159 0)
  (0.738855 0.384902 0)
  (-0.309079 0.148413 0)
  (-0.0306678 0.121806 0)
  (-0.0795727 0.102032 0)
  (-0.0901261 0.0872254 0)
  (-0.100829 0.0708272 0)
  (-0.110413 0.0513157 0)
  (-0.118093 0.0274687 0)
  (-0.121842 -0.00152877 0)
  (-0.117594 -0.0344697 0)
  (-0.108758 -0.0673682 0)
  (-0.0974201 -0.096159 0)
  (-0.0858085 -0.119261 0)
  (-0.0753278 -0.136331 0)
  (-0.0657428 -0.146825 0)
  (-0.0544213 -0.149247 0)
  (-0.0390782 -0.134144 0)
  (-0.0167646 -0.0906927 0)
  (0.00275709 -0.0737865 0)
  (0.00609747 -0.0541468 0)
  (0.0100627 -0.0401081 0)
  (0.0152762 -0.0316877 0)
  (0.0203352 -0.0259064 0)
  (0.0254327 -0.0208397 0)
  (0.0320125 -0.0161035 0)
  (0.0401677 -0.0137189 0)
  (0.0480168 -0.012322 0)
  (0.0552614 -0.0106749 0)
  (0.0617058 -0.00790911 0)
  (0.0667202 -0.00332372 0)
  (0.0693758 0.00327983 0)
  (0.0681171 0.0115172 0)
  (0.0625667 0.0216681 0)
  (0.0546785 0.0382445 0)
  (0.0418818 0.0579685 0)
  (0.0711483 0.0800448 0)
  (-0.0400123 0.11395 0)
  (0.0487914 0.0257102 0)
  (-0.0713543 -0.0386582 0)
  (-0.293317 -0.0627534 0)
  (0.827539 0.435909 0)
  (-0.35359 0.176627 0)
  (0.001596 0.123241 0)
  (-0.0432987 0.110656 0)
  (-0.0480158 0.0962491 0)
  (-0.0536412 0.0787853 0)
  (-0.0586879 0.0580033 0)
  (-0.0630497 0.0321834 0)
  (-0.0637056 -0.000888638 0)
  (-0.0559836 -0.040166 0)
  (-0.0477641 -0.0768297 0)
  (-0.0403304 -0.1062 0)
  (-0.0346664 -0.127856 0)
  (-0.0313127 -0.142974 0)
  (-0.0300109 -0.152965 0)
  (-0.0269666 -0.15775 0)
  (-0.0202132 -0.145626 0)
  (-0.00924794 -0.105771 0)
  (-0.00244379 -0.0763323 0)
  (-0.000706251 -0.0564075 0)
  (0.000863907 -0.0436246 0)
  (0.00347627 -0.035659 0)
  (0.00666869 -0.0301598 0)
  (0.0105941 -0.0257942 0)
  (0.0156064 -0.0224405 0)
  (0.0215056 -0.0207012 0)
  (0.0276694 -0.0195339 0)
  (0.0339362 -0.0178482 0)
  (0.0402482 -0.0146378 0)
  (0.0463335 -0.00883901 0)
  (0.0519406 0.000370326 0)
  (0.0551942 0.012032 0)
  (0.055708 0.0252925 0)
  (0.0555883 0.0416485 0)
  (0.0523153 0.061211 0)
  (0.0798313 0.0867647 0)
  (0.0494075 0.106774 0)
  (0.100601 0.0703789 0)
  (0.125632 0.0459367 0)
  (-0.140894 -0.00985145 0)
  (0.854356 0.481814 0)
  (-0.375077 0.168824 0)
  (0.0227892 0.0815134 0)
  (0.0075991 0.111003 0)
  (0.002852 0.106776 0)
  (-0.00121774 0.0845121 0)
  (-0.00186159 0.0601137 0)
  (-0.00212421 0.0321746 0)
  (0.00625836 -0.00626167 0)
  (0.0189758 -0.0497932 0)
  (0.0243902 -0.0847847 0)
  (0.0253842 -0.110713 0)
  (0.0228836 -0.128846 0)
  (0.0173842 -0.141125 0)
  (0.00921485 -0.149973 0)
  (0.00268081 -0.157583 0)
  (-0.000802387 -0.150987 0)
  (5.459e-05 -0.110544 0)
  (-0.00350985 -0.0752963 0)
  (-0.00632027 -0.0553519 0)
  (-0.00838326 -0.0439589 0)
  (-0.00906193 -0.0369448 0)
  (-0.00871458 -0.0322472 0)
  (-0.00741357 -0.0289244 0)
  (-0.00514408 -0.0267467 0)
  (-0.00211278 -0.0256574 0)
  (0.00151866 -0.0249646 0)
  (0.00562146 -0.0238215 0)
  (0.0104166 -0.0212526 0)
  (0.0161626 -0.0160168 0)
  (0.0232399 -0.00662051 0)
  (0.0328028 0.00723349 0)
  (0.0397255 0.0218443 0)
  (0.0470456 0.0372516 0)
  (0.0539278 0.0536956 0)
  (0.0791416 0.074546 0)
  (0.0910754 0.0818661 0)
  (0.129248 0.0520057 0)
  (0.173007 0.0426357 0)
  (-0.0298055 0.098712 0)
  (0.953743 0.497416 0)
  (-0.126235 0.15246 0)
  (0.0876097 0.0168878 0)
  (0.126131 0.0511214 0)
  (0.102695 0.0744671 0)
  (0.0849814 0.0615918 0)
  (0.0818245 0.0359304 0)
  (0.0846374 0.00468996 0)
  (0.10008 -0.0298119 0)
  (0.109082 -0.0600125 0)
  (0.106913 -0.0854248 0)
  (0.0975101 -0.105038 0)
  (0.0834453 -0.11908 0)
  (0.0663502 -0.128925 0)
  (0.0471319 -0.137128 0)
  (0.0307306 -0.147096 0)
  (0.0174112 -0.146219 0)
  (0.00997025 -0.106227 0)
  (-0.0040121 -0.0685148 0)
  (-0.0124805 -0.0502963 0)
  (-0.018526 -0.0410396 0)
  (-0.0227403 -0.0353679 0)
  (-0.0257115 -0.0316102 0)
  (-0.0277573 -0.0291579 0)
  (-0.0290667 -0.0277779 0)
  (-0.0298643 -0.0272388 0)
  (-0.0303045 -0.0270701 0)
  (-0.030365 -0.0266986 0)
  (-0.0298072 -0.0255046 0)
  (-0.0281611 -0.0227799 0)
  (-0.0245001 -0.0176909 0)
  (-0.0160136 -0.00924557 0)
  (-0.00126668 0.00301802 0)
  (0.0103824 0.0155676 0)
  (0.0217889 0.0249237 0)
  (0.043131 0.0347775 0)
  (0.0612406 0.0269494 0)
  (0.0792583 -0.00510881 0)
  (0.142632 0.0492834 0)
  (-0.479635 0.231084 0)
  (1.08459 0.454031 0)
  (0.526383 0.302474 0)
  (0.525053 0.239497 0)
  (0.489506 0.200696 0)
  (0.404044 0.172188 0)
  (0.331453 0.131609 0)
  (0.290279 0.0865584 0)
  (0.269436 0.0436619 0)
  (0.251235 0.00345927 0)
  (0.226192 -0.0324878 0)
  (0.198294 -0.0609583 0)
  (0.168934 -0.0813158 0)
  (0.138528 -0.0949443 0)
  (0.107545 -0.10427 0)
  (0.0762775 -0.112859 0)
  (0.0512928 -0.126062 0)
  (0.0297153 -0.131642 0)
  (0.0175775 -0.0906421 0)
  (-0.00678404 -0.0547248 0)
  (-0.0207194 -0.0417987 0)
  (-0.0300386 -0.0360108 0)
  (-0.0372327 -0.0321551 0)
  (-0.0433709 -0.0293831 0)
  (-0.04892 -0.0274843 0)
  (-0.0542191 -0.0263187 0)
  (-0.0595946 -0.0256624 0)
  (-0.0653347 -0.0251098 0)
  (-0.0716884 -0.0240997 0)
  (-0.0789334 -0.0219393 0)
  (-0.0874903 -0.0178041 0)
  (-0.0980348 -0.0107087 0)
  (-0.1112 0.000335248 0)
  (-0.125176 0.0152546 0)
  (-0.142026 0.0331057 0)
  (-0.170138 0.0531135 0)
  (-0.211655 0.0730342 0)
  (-0.270606 0.0871996 0)
  (-0.336787 0.0925165 0)
  (-0.409874 0.0901079 0)
  (-0.682038 0.080071 0)
  (-0.217303 0.116192 0)
  (0.178705 0.184641 0)
  (0.265206 0.173678 0)
  (0.261819 0.138162 0)
  (0.261945 0.0944234 0)
  (0.262994 0.0510969 0)
  (0.257561 0.0137641 0)
  (0.243062 -0.0157127 0)
  (0.220125 -0.0368795 0)
  (0.191548 -0.0512829 0)
  (0.159275 -0.0606562 0)
  (0.124672 -0.0670008 0)
  (0.0885514 -0.0738771 0)
  (0.0606328 -0.0900245 0)
  (0.02937 -0.104763 0)
  (0.0151795 -0.0565533 0)
  (-0.0158254 -0.0291237 0)
  (-0.0326679 -0.0246855 0)
  (-0.043223 -0.0234235 0)
  (-0.0516722 -0.0225822 0)
  (-0.0595439 -0.0221132 0)
  (-0.0671907 -0.0219575 0)
  (-0.0749487 -0.0219902 0)
  (-0.0831545 -0.0220001 0)
  (-0.0920282 -0.021619 0)
  (-0.101591 -0.0202843 0)
  (-0.111588 -0.0172406 0)
  (-0.121377 -0.0116168 0)
  (-0.129938 -0.00252579 0)
  (-0.1362 0.0103255 0)
  (-0.140528 0.0272916 0)
  (-0.143927 0.0489329 0)
  (-0.148205 0.0736148 0)
  (-0.154239 0.0959376 0)
  (-0.15849 0.103829 0)
  (-0.140797 0.0750125 0)
  (-0.0835795 -0.0334781 0)
  (-0.291331 -0.237928 0)
  (-0.113615 0.266207 0)
  (0.0849863 0.193024 0)
  (0.10646 0.141113 0)
  (0.139381 0.112574 0)
  (0.173113 0.080882 0)
  (0.197164 0.0512389 0)
  (0.207023 0.0293959 0)
  (0.204343 0.0162293 0)
  (0.192148 0.00637744 0)
  (0.173139 -0.0011383 0)
  (0.149339 -0.00673104 0)
  (0.121899 -0.0114773 0)
  (0.0912142 -0.0207929 0)
  (0.0655346 -0.0532068 0)
  (0.0117443 -0.086404 0)
  (-0.0143577 0.0125104 0)
  (-0.0359269 0.0385957 0)
  (-0.0507019 0.0302379 0)
  (-0.0604791 0.0294497 0)
  (-0.0688003 0.0325563 0)
  (-0.076315 0.0355122 0)
  (-0.0831334 0.0377406 0)
  (-0.0894443 0.0392723 0)
  (-0.0954331 0.0400978 0)
  (-0.101203 0.0402224 0)
  (-0.106748 0.0396787 0)
  (-0.111948 0.0384711 0)
  (-0.116459 0.0364435 0)
  (-0.119326 0.034067 0)
  (-0.118808 0.0346939 0)
  (-0.112832 0.0407072 0)
  (-0.100198 0.0534631 0)
  (-0.0816074 0.0725839 0)
  (-0.0586198 0.0922582 0)
  (-0.0344567 0.103332 0)
  (0.00989754 0.0854427 0)
  (0.143773 0.00644591 0)
  (-0.204527 -0.152272 0)
  (-0.186492 -0.383172 0)
  (-0.463697 -0.10221 0)
  (-0.333975 0.163253 0)
  (-0.176269 0.0641775 0)
  (-0.0814299 0.0333081 0)
  (0.0268132 0.0222126 0)
  (0.0901344 -0.00286139 0)
  (0.136094 -0.0274485 0)
  (0.162859 -0.0500045 0)
  (0.172364 -0.0710276 0)
  (0.169657 -0.0879431 0)
  (0.158164 -0.102417 0)
  (0.140885 -0.116232 0)
  (0.119773 -0.131097 0)
  (0.0949857 -0.149834 0)
  (0.0691225 -0.178184 0)
  (-0.0242308 -0.19397 0)
  (-0.0621346 -0.176999 0)
  (-0.0588174 -0.170803 0)
  (-0.0643672 -0.170126 0)
  (-0.074027 -0.168242 0)
  (-0.083421 -0.165819 0)
  (-0.0918084 -0.163328 0)
  (-0.0992895 -0.160532 0)
  (-0.105961 -0.157055 0)
  (-0.111835 -0.152531 0)
  (-0.116816 -0.146609 0)
  (-0.120667 -0.138917 0)
  (-0.122996 -0.128975 0)
  (-0.123262 -0.116089 0)
  (-0.12058 -0.100152 0)
  (-0.112913 -0.0828427 0)
  (-0.096848 -0.0638728 0)
  (-0.0698804 -0.0425301 0)
  (-0.0339327 -0.0180971 0)
  (0.0301529 0.0129366 0)
  (0.0831507 0.0128044 0)
  (0.134592 -0.0125191 0)
  (0.184746 -0.0596412 0)
  (-0.155947 -0.133183 0)
)
;

boundaryField
{
  floor
  {
    type noSlip;
  }
  ceiling
  {
    type noSlip;
  }
  sWall
  {
    type noSlip;
  }
  nWall
  {
    type noSlip;
  }
  sideWalls
  {
    type empty;
  }
  glass1
  {
    type noSlip;
  }
  glass2
  {
    type noSlip;
  }
  sun
  {
    type noSlip;
  }
  heatsource1
  {
    type noSlip;
  }
  heatsource2
  {
    type noSlip;
  }
  Table_master
  {
    type noSlip;
  }
  Table_slave
  {
    type noSlip;
  }
  inlet
  {
    type fixedValue;
    value uniform (0.277164 -0.114805 0);
  }
  outlet
  {
    type zeroGradient;
  }
} 	// ************************************************************************* //

