/*--------------------------------*- C++ -*----------------------------------*\
  =========                 |
  \\      /  F ield         | OpenFOAM: The Open Source CFD Toolbox
   \\    /   O peration     | Website:  https://openfoam.org
    \\  /    A nd           | Version:  6
     \\/     M anipulation  |
\*---------------------------------------------------------------------------*/
FoamFile
{
    version     2.0;
    format      ascii;
    class       surfaceScalarField;
    location    "900";
    object      phi;
}
// * * * * * * * * * * * * * * * * * * * * * * * * * * * * * * * * * * * * * //

dimensions      [1 0 -1 0 0 0 0];

internalField   nonuniform List<scalar> 
852
(
-0.00293741
0.00299358
-0.00397855
0.00104114
-0.00476881
0.000790259
-0.00538614
0.00061733
-0.00580141
0.000415261
-0.005992
0.000190596
-0.00593619
-5.58209e-05
-0.00561675
-0.000319433
-0.00504666
-0.000570092
-0.0042784
-0.000768266
-0.0033931
-0.000885301
-0.00247971
-0.000913399
-0.00161321
-0.000866496
-0.000816443
-0.000796771
-0.000815015
-0.000676396
0.000679053
-0.000347059
-0.000329339
0.000261694
-0.000608755
0.000737012
-0.00047532
0.00105288
-0.000315866
0.00124941
-0.000196532
0.00135635
-0.000106949
0.00140958
-5.3229e-05
0.00143971
-3.0135e-05
0.00145821
-1.85005e-05
0.00146859
-1.03797e-05
0.00147194
-3.35221e-06
0.00146627
5.66379e-06
0.00144312
2.31559e-05
0.00137985
6.32601e-05
0.00123844
0.000141415
0.00100368
0.000234755
0.000708109
0.000295569
0.000711681
-0.00209516
0.00524
-0.00310134
0.00204732
-0.00390758
0.0015965
-0.00451135
0.0012211
-0.00491667
0.000820577
-0.00510985
0.000383775
-0.0050657
-9.99721e-05
-0.00477016
-0.000614977
-0.0042473
-0.00109295
-0.003559
-0.00145657
-0.00278779
-0.00165651
-0.00201409
-0.0016871
-0.00131002
-0.00157057
-0.000763022
-0.00134378
-0.000559259
-0.00101878
-7.09208e-05
-0.000488392
-7.09743e-05
0.000374088
0.000312535
0.000801295
-0.000756548
0.00105255
-0.000860013
0.00126285
-0.000685626
0.0014192
-0.000472214
0.00151067
-0.000288001
0.00152487
-0.000121156
0.00152874
-5.70969e-05
0.00153337
-3.47683e-05
0.00153724
-2.23747e-05
0.00153984
-1.29755e-05
0.00154113
-4.6428e-06
0.00154023
6.55638e-06
0.00153355
2.98325e-05
0.00149221
0.0001046
0.00131679
0.000316837
0.00101331
0.000538228
0.000629669
0.000679209
0.00135056
-0.00146597
0.00693732
-0.00232918
0.00291052
-0.00303756
0.00230488
-0.00354821
0.00173174
-0.00389657
0.00116894
-0.00406445
0.000551656
-0.00400702
-0.000157407
-0.00370305
-0.000918952
-0.00319852
-0.00159748
-0.0025695
-0.00208559
-0.00189802
-0.00232799
-0.00124769
-0.00233743
-0.000669122
-0.00214914
-0.000212887
-0.00180001
9.04424e-05
-0.00132211
0.000287383
-0.000685334
0.000216407
0.00148725
-0.00116677
0.00170187
-0.000971165
0.00168224
-0.000840389
0.00168342
-0.000686808
0.00170536
-0.000494155
0.00171709
-0.00029973
0.00159608
0.00153914
0.00150452
0.0014823
0.00146947
0.00146498
0.00147169
0.00150167
0.00160642
0.00132636
0.000596902
0.000985457
0.000879125
0.000550876
0.00111379
0.00191551
-0.0010235
0.00826037
-0.00170461
0.00359163
-0.00216537
0.00276564
-0.00249168
0.00205805
-0.00271344
0.0013907
-0.00279807
0.000636287
-0.00267072
-0.00028476
-0.00232116
-0.00126852
-0.00183399
-0.00208465
-0.00129208
-0.0026275
-0.000762636
-0.00285744
-0.00028025
-0.00281981
0.000137401
-0.00256679
0.000485457
-0.00214807
0.000791882
-0.00162854
0.00115984
-0.00105329
0.0019241
-0.000547856
0.00245515
-0.000523847
0.00205539
-0.00076701
0.00192759
-0.00084336
0.00181635
-0.000729158
0.00172169
-0.000592151
0.00166992
-0.000442385
0.00164829
-0.0002781
0.00176189
-0.000113752
0.00183311
-7.13809e-05
0.0018903
-5.73381e-05
0.001934
-4.38591e-05
0.00195053
-1.66864e-05
0.00191917
3.12101e-05
0.00181545
0.000103569
0.00160714
0.000208156
0.00124014
0.000366842
0.00111111
0.000725927
0.000826743
0.00116349
0.000392254
0.00154827
0.00232622
-0.000717454
0.00933531
-0.00123263
0.00410681
-0.00131851
0.00285151
-0.00136894
0.00210847
-0.00138769
0.00140944
-0.00129327
0.000541873
-0.00100688
-0.000571157
-0.000594529
-0.00168087
-0.000161838
-0.00251735
0.000225501
-0.00301485
0.000541924
-0.00317387
0.000785531
-0.00306342
0.000969979
-0.00275124
0.00112325
-0.00230134
0.00127635
-0.00178164
0.00148073
-0.00125767
0.00176704
-0.000834165
0.00190401
-0.000660817
0.00180624
-0.000669243
0.00163094
-0.000668067
0.00148302
-0.00058124
0.00136211
-0.000471238
0.0012791
-0.000359374
0.00124701
-0.00024601
0.00128726
-0.00015401
0.00133359
-0.000117712
0.00138468
-0.000108422
0.00143721
-9.63966e-05
0.00148081
-6.02842e-05
0.00149622
1.57936e-05
0.00146326
0.000136533
0.00136996
0.000301447
0.0012168
0.000520005
0.00108392
0.000858808
0.000941857
0.00130555
0.000626661
0.00186347
0.000559453
0.00239343
-0.000966275
0.00152552
-0.00142965
0.000463171
-0.00138281
-0.00062603
0.0103677
-0.000977847
0.00445863
-0.000549435
0.0024231
-0.000181039
0.00174008
0.000103607
0.0011248
0.000501627
0.000143851
0.00100636
-0.00107589
0.00142781
-0.00210232
0.00171163
-0.00280117
0.00185542
-0.00315863
0.00189027
-0.00320873
0.00184422
-0.00301737
0.00174801
-0.00265504
0.00163785
-0.00219119
0.0015469
-0.00169069
0.00150064
-0.00121142
0.00149294
-0.000826467
0.00143876
-0.000606638
0.00129454
-0.000525024
0.00110392
-0.000477442
0.000935951
-0.000413278
0.000807685
-0.000342973
0.000725145
-0.000276836
0.000695846
-0.000216712
0.000716939
-0.000175105
0.000764086
-0.00016486
0.000826425
-0.000170762
0.00089935
-0.000169323
0.000977394
-0.000138329
0.00104853
-5.5343e-05
0.00109538
8.96794e-05
0.00111408
0.000282743
0.00111237
0.000521721
0.00113748
0.000833698
0.001237
0.00120603
0.00142411
0.00167635
0.00186713
0.0019504
0.00212768
0.00126498
0.00173846
0.000852386
0.00041206
-0.000679383
0.0114977
-0.000556372
0.00433561
0.000583032
0.00128369
0.00138507
0.000938031
0.00208161
0.000428257
0.00279126
-0.000565795
0.00333259
-0.00161722
0.00361451
-0.00238425
0.00364363
-0.0028303
0.00346615
-0.00298115
0.00314482
-0.0028874
0.00274075
-0.0026133
0.00230731
-0.00222161
0.00189121
-0.00177509
0.00152774
-0.00132722
0.0012327
-0.000916376
0.00100435
-0.000598126
0.000806882
-0.000409167
0.000607533
-0.000325677
0.00041757
-0.000287479
0.000262036
-0.000257746
0.000150767
-0.000231705
8.49501e-05
-0.00021102
6.49766e-05
-0.00019674
8.43722e-05
-0.000194501
0.000128177
-0.000208665
0.000186977
-0.000229563
0.0002597
-0.000242047
0.000350438
-0.000229069
0.000464067
-0.000168973
0.00058811
-3.43645e-05
0.000712383
0.000158469
0.000848175
0.000385928
0.00103305
0.000648818
0.00131525
0.000923833
0.00175583
0.00123577
0.00242191
0.00128432
0.00296227
0.000724618
0.0029857
0.000828946
0.00345884
0.00259731
0.00940455
0.00330427
0.00362865
0.00371357
0.000874388
0.0044195
0.0002321
0.00524737
-0.000399609
0.00587194
-0.00119037
0.00608424
-0.00182952
0.00591712
-0.00221713
0.00544873
-0.00236191
0.00477176
-0.00230419
0.00398172
-0.00209736
0.00316228
-0.00179387
0.00237502
-0.00143434
0.00166865
-0.00106872
0.00107563
-0.000734203
0.00060193
-0.000442674
0.000252999
-0.000249196
-3.33937e-07
-0.000155836
-0.000195155
-0.000130857
-0.000348298
-0.000134338
-0.000464364
-0.000141681
-0.00054546
-0.000150611
-0.000594941
-0.00016154
-0.000616189
-0.000175493
-0.000615753
-0.000194939
-0.000603742
-0.000220678
-0.000586013
-0.000247293
-0.000561717
-0.000266343
-0.000522595
-0.000268192
-0.000450023
-0.000241545
-0.000315415
-0.000168974
-0.00013505
-2.18968e-05
7.70619e-05
0.000173815
0.000345331
0.000380548
0.000681524
0.000587639
0.00112662
0.000790672
0.00161903
0.000791915
0.00183105
0.000512592
0.00109124
0.00156876
0.00479861
0.0099575
0.013578
0.0124567
0.00199572
0.011757
0.000931802
0.0111
0.000257438
0.010212
-0.000302419
0.00906012
-0.000677653
0.00774939
-0.000906404
0.00637373
-0.000986252
0.00500699
-0.000937452
0.00371635
-0.000806721
0.00255374
-0.000631268
0.0015409
-0.000421502
0.000701524
-0.000229348
4.18627e-05
-7.45428e-05
-0.000421379
2.05669e-05
-0.00070609
3.55134e-05
-0.000882206
2.02796e-05
-0.00100717
-5.8933e-06
-0.00110787
-3.36448e-05
-0.00119039
-5.91611e-05
-0.00125714
-8.38614e-05
-0.00131153
-0.000107152
-0.00135759
-0.000129435
-0.00140178
-0.000150742
-0.00145265
-0.00016981
-0.00151779
-0.000182154
-0.00160443
-0.000179705
-0.00172124
-0.000151383
-0.00187843
-8.43538e-05
-0.00208149
3.40822e-05
-0.00231732
0.000213927
-0.00261288
0.000469376
-0.00304947
0.000817142
-0.00371782
0.00125599
-0.00468514
0.00175799
-0.0060683
0.00217507
-0.00775098
0.00219527
-0.00728557
0.00110335
-0.00221208
0.00467244
0.0035032
0.00376958
0.00183466
0.00414142
-0.000114408
0.00414742
-0.00030843
0.00374244
-0.000272675
0.0031103
-0.000274261
0.00235844
-0.000234391
0.00155432
-0.000133328
0.000740738
6.8562e-06
-2.71679e-05
0.000136639
-0.000659215
0.000210545
-0.00110416
0.000215596
-0.00138552
0.000206813
-0.00154535
0.000180398
-0.00164643
0.00013659
-0.0017193
9.31515e-05
-0.00178037
5.51724e-05
-0.00183808
2.40705e-05
-0.00189707
-1.76014e-07
-0.00195901
-2.19213e-05
-0.00202451
-4.16483e-05
-0.00209533
-5.86165e-05
-0.00217458
-7.14964e-05
-0.00226521
-7.91848e-05
-0.00236815
-7.92081e-05
-0.00248241
-6.54457e-05
-0.00260419
-2.96078e-05
-0.00272562
3.70774e-05
-0.0028348
0.000143254
-0.0029286
0.000307728
-0.00301453
0.000555306
-0.00309779
0.000900399
-0.00317391
0.00133211
-0.00319804
0.00178211
-0.00311888
0.00209591
-0.00275819
0.00183459
-0.00149675
-0.000158098
-0.0036371
-0.000528212
0.00409652
0.000306228
0.00100021
-8.6171e-05
0.000277989
-0.00047609
8.14878e-05
-0.000817177
6.84126e-05
-0.00118244
9.10002e-05
-0.00154812
0.000131288
-0.00186247
0.000181028
-0.00208137
0.000225759
-0.00220192
0.00025718
-0.00225585
0.000264482
-0.00227852
0.000238265
-0.00227482
0.000203106
-0.00226159
0.000167168
-0.00225754
0.000132537
-0.00226734
0.000102959
-0.00229061
7.84322e-05
-0.00232487
5.83341e-05
-0.0023668
4.17524e-05
-0.00241766
2.89374e-05
-0.00247646
1.71563e-05
-0.00254118
6.09559e-06
-0.00260899
-3.6842e-06
-0.00267718
-1.09919e-05
-0.00274206
-1.43309e-05
-0.00279679
-1.07233e-05
-0.00283062
4.22211e-06
-0.00283396
4.04206e-05
-0.00279653
0.000105818
-0.00269682
0.000208022
-0.00250382
0.000362301
-0.00219076
0.00058734
-0.00173805
0.000879405
-0.0011171
0.00116115
-0.000157707
0.00113652
0.0011403
0.000536583
0.00158378
-0.000601584
-0.00197476
-0.00721299
-0.0101159
-0.00597663
-0.00495662
-0.00466763
-0.00457941
-0.0045069
-0.00441377
-0.00428198
-0.00410182
-0.00387816
-0.00362425
-0.00336418
-0.00313138
-0.00293464
-0.00277456
-0.00264968
-0.00255482
-0.00248482
-0.00243518
-0.00240231
-0.00238241
-0.00237438
-0.00237746
-0.0023903
-0.00241039
-0.0024337
-0.00245324
-0.00245762
-0.00242556
-0.00232782
-0.00212759
-0.00177278
-0.00119264
-0.000320167
0.000834279
0.00196407
0.00249368
0.00188471
)
;

boundaryField
{
    floor
    {
        type            calculated;
        value           nonuniform List<scalar> 
29
(
0
0
0
0
0
0
0
0
0
0
0
0
0
0
0
0
0
0
0
0
-3.57306e-06
-9.21689e-06
-1.40678e-05
-1.84623e-05
-1.42962e-06
-2.65899e-06
-7.57254e-06
-7.94951e-06
-7.20981e-06
)
;
    }
    ceiling
    {
        type            calculated;
        value           nonuniform List<scalar> 
43
(
-4.54069e-05
-4.40923e-05
-4.27863e-05
-1.98061e-05
-1.09972e-05
-6.72752e-06
-4.10507e-06
-2.12227e-06
-5.08872e-07
8.67204e-07
2.10333e-06
3.26947e-06
4.4076e-06
5.46417e-06
6.3668e-06
7.09059e-06
7.65478e-06
8.09218e-06
8.43122e-06
8.69225e-06
8.88974e-06
9.03281e-06
9.12743e-06
9.17095e-06
9.15844e-06
9.09183e-06
8.97715e-06
8.8155e-06
8.60779e-06
8.35635e-06
8.07945e-06
7.78791e-06
7.49043e-06
7.19828e-06
6.93176e-06
6.7044e-06
6.73016e-06
6.97297e-06
7.37733e-06
8.62287e-06
1.11643e-05
8.1078e-06
-6.51132e-05
)
;
    }
    sWall
    {
        type            calculated;
        value           uniform -0.000275229;
    }
    nWall
    {
        type            calculated;
        value           nonuniform List<scalar> 6(-4.70475e-05 -5.64109e-05 -6.10744e-05 -7.17274e-05 -7.8554e-05 -9.86727e-05);
    }
    sideWalls
    {
        type            empty;
        value           nonuniform 0();
    }
    glass1
    {
        type            calculated;
        value           nonuniform List<scalar> 9(-5.61748e-05 -0.000151263 -0.000231353 -0.000299563 -0.000357491 -0.000406354 -0.000450599 -0.000504183 -0.000564114);
    }
    glass2
    {
        type            calculated;
        value           nonuniform List<scalar> 2(-0.000248536 -0.000274889);
    }
    sun
    {
        type            calculated;
        value           uniform 0;
    }
    heatsource1
    {
        type            calculated;
        value           nonuniform List<scalar> 3(2.03936e-07 2.03895e-07 2.03912e-07);
    }
    heatsource2
    {
        type            calculated;
        value           nonuniform List<scalar> 4(5.10956e-08 5.12165e-08 0 0);
    }
    Table_master
    {
        type            calculated;
        value           nonuniform List<scalar> 9(-1.52952e-07 -1.53034e-07 -1.53063e-07 -1.53083e-07 -1.53096e-07 -1.53106e-07 -1.53109e-07 -1.53103e-07 -1.5307e-07);
    }
    Table_slave
    {
        type            calculated;
        value           nonuniform List<scalar> 9(1.5283e-07 1.52856e-07 1.5284e-07 1.52826e-07 1.52822e-07 1.52825e-07 1.52842e-07 1.52884e-07 1.52964e-07);
    }
    inlet
    {
        type            calculated;
        value           uniform -0.00617993;
    }
    outlet
    {
        type            calculated;
        value           nonuniform List<scalar> 2(0.00753362 0.00294705);
    }
}


// ************************************************************************* //
