/*--------------------------------*- C++ -*----------------------------------*\
  =========                 |
  \\      /  F ield         | OpenFOAM: The Open Source CFD Toolbox
   \\    /   O peration     | Website:  https://openfoam.org
    \\  /    A nd           | Version:  6
     \\/     M anipulation  |
\*---------------------------------------------------------------------------*/
FoamFile
{
    version     2.0;
    format      ascii;
    class       volScalarField;
    location    "800";
    object      alphat;
}
// * * * * * * * * * * * * * * * * * * * * * * * * * * * * * * * * * * * * * //

dimensions      [1 -1 -1 0 0 0 0];

internalField   nonuniform List<scalar> 
459
(
0.0014964
0.00127492
0.00106518
0.000963145
0.000883693
0.00084186
0.000811449
0.000784759
0.000759995
0.000733401
0.000702937
0.000671397
0.000642212
0.000636563
0.00071423
0.00083586
0.000872356
0.000629654
0.000520253
0.000444694
0.000397812
0.000369556
0.000376486
0.000400928
0.000437661
0.000484788
0.000541097
0.00059046
0.000591524
0.00060903
0.000665618
0.000748088
0.000949988
0.000825482
0.00220831
0.00444316
0.00466969
0.00396902
0.00429866
0.00481133
0.00505073
0.00499298
0.00476444
0.00445764
0.00407985
0.00364119
0.00317364
0.00262066
0.00244871
0.00092917
0.000724676
0.00119423
0.00344012
0.00270204
0.00190716
0.00115695
0.000761768
0.000663923
0.000768004
0.000954456
0.00119575
0.00146958
0.00174361
0.00195654
0.00204327
0.00221639
0.0029381
0.00312567
0.00388399
0.00131096
0.00303666
0.00807103
0.00689164
0.00521419
0.00539577
0.00632204
0.00686987
0.0068607
0.00658479
0.00617339
0.00562077
0.0049327
0.00414465
0.00329144
0.00258018
0.00178423
0.00107325
0.00155687
0.00437015
0.00359423
0.00264075
0.0017942
0.00112842
0.000639303
0.000701637
0.000779906
0.000864987
0.000960858
0.00107265
0.00120858
0.00138551
0.00164678
0.00450999
0.00496657
0.00605832
0.00180087
0.00394152
0.011993
0.00922761
0.00640871
0.00606354
0.00727816
0.00809512
0.00810011
0.00773318
0.00715622
0.00641424
0.00558803
0.00476601
0.00400539
0.00333338
0.00271671
0.00217766
0.00163021
0.00384637
0.00461326
0.00375598
0.00295087
0.00233337
0.00185051
0.00149684
0.00152943
0.00155972
0.00159177
0.00163158
0.00168561
0.00176259
0.00187727
0.00205942
0.00538319
0.00559589
0.00586898
0.00213671
0.00488424
0.0160823
0.0118906
0.00797038
0.00671746
0.00809929
0.00920476
0.00927792
0.0089745
0.00857955
0.00821751
0.00796729
0.00787213
0.00793265
0.00809911
0.00826646
0.008249
0.00814756
0.00832032
0.00835626
0.00820134
0.00813554
0.00816717
0.00822355
0.00822084
0.00816081
0.00804164
0.00787288
0.00766611
0.00743377
0.00718952
0.00694858
0.00672113
0.00649596
0.00586125
0.00509795
0.00425277
0.00309758
0.00331925
0.0034478
0.00575682
0.0196785
0.0142888
0.0101085
0.00763901
0.00862668
0.00979994
0.00986597
0.00972036
0.00966226
0.00973729
0.00994879
0.0102798
0.0106916
0.0111259
0.0115149
0.0117923
0.0119208
0.0119746
0.0120278
0.0120771
0.0121492
0.0122244
0.0122566
0.0121885
0.0120436
0.0118372
0.0115763
0.0112675
0.0109172
0.0105298
0.0101097
0.00966649
0.0092244
0.00884412
0.00868766
0.00891433
0.00965802
0.0105729
0.0043977
0.00637196
0.0195783
0.015039
0.011396
0.00819336
0.0087628
0.00970054
0.00974946
0.00987113
0.0101943
0.0106567
0.0112095
0.0118186
0.0124513
0.0130695
0.0136354
0.0141121
0.0144557
0.014676
0.0148146
0.0148951
0.0149318
0.0149196
0.0148421
0.014701
0.0144972
0.0142329
0.0139113
0.0135398
0.0131297
0.0126965
0.0122599
0.0118452
0.0114789
0.0111822
0.0109907
0.0110553
0.0121607
0.0151676
0.00528177
0.00695853
0.0133105
0.0139909
0.0106123
0.00848507
0.00892772
0.00920119
0.00951921
0.0101606
0.0109474
0.0117685
0.01257
0.013339
0.0140779
0.0147647
0.0153628
0.0158722
0.0162667
0.0165383
0.0167009
0.0167742
0.0167752
0.0167161
0.016602
0.0164335
0.0162063
0.0159154
0.0155576
0.0151335
0.0146491
0.0141163
0.0135564
0.0130037
0.0125085
0.0121384
0.0119585
0.0118727
0.0121842
0.0168819
0.00624337
0.00833515
0.0117477
0.02459
0.010215
0.00780397
0.00870069
0.0095332
0.0106634
0.0118448
0.0129206
0.0138489
0.0145947
0.015178
0.015683
0.0161256
0.0165114
0.0168594
0.0171464
0.0173657
0.0175108
0.0175843
0.0175936
0.0175477
0.0174524
0.0173077
0.0171088
0.0168487
0.0165201
0.0161176
0.0156387
0.0150853
0.0144661
0.0138017
0.0131315
0.0125301
0.0121342
0.0120846
0.0124616
0.0158772
0.00613371
0.0335301
0.0213609
0.0101274
0.0120568
0.0135999
0.0146872
0.0154978
0.0160337
0.0163923
0.0166023
0.0167043
0.0167626
0.0168084
0.0168625
0.0169394
0.0170408
0.0171537
0.0172615
0.0173492
0.0174063
0.0174261
0.0174043
0.0173368
0.0172187
0.017044
0.0168061
0.0164989
0.0161168
0.0156569
0.0151201
0.0145162
0.0138697
0.0132337
0.0127148
0.0124999
0.0128017
0.0125115
0.00415949
0.0141199
0.0235005
0.0198945
0.0184788
0.0176678
0.0171289
0.0167138
0.0163607
0.0160397
0.0157505
0.0154983
0.0152896
0.0151324
0.0150356
0.015005
0.0150413
0.0151373
0.0152799
0.0154517
0.0156341
0.0158093
0.0159618
0.0160787
0.0161498
0.0161677
0.0161268
0.0160236
0.0158561
0.0156241
0.0153304
0.0149829
0.0145972
0.0142007
0.0138374
0.0135621
0.0135856
0.0115098
0.00346022
0.00356583
0.00437907
0.00745571
0.007531
0.00731394
0.00702597
0.00672471
0.00642923
0.00614621
0.00587836
0.00562649
0.00539089
0.00517165
0.0049688
0.00478238
0.00461256
0.00445955
0.00432358
0.00420467
0.00410254
0.00401648
0.00394532
0.00388744
0.00384087
0.00380336
0.00377259
0.00374624
0.00372215
0.00369843
0.00367349
0.00364612
0.00361555
0.00358157
0.00354485
0.00350743
0.00347401
0.0034572
0.00351154
0.00336618
0.00310354
)
;

boundaryField
{
    floor
    {
        type            compressible::alphatWallFunction;
        Prt             0.85;
        value           nonuniform List<scalar> 
29
(
0.000101854
0.000119467
0.000124692
8.92598e-05
7.27695e-05
6.11368e-05
5.37887e-05
4.93032e-05
5.04041e-05
5.42714e-05
6.00286e-05
6.7327e-05
7.59344e-05
8.33936e-05
8.35534e-05
8.61764e-05
9.46005e-05
0.000106724
0.000135759
0.000117989
0.000117987
0.000186083
0.000251956
0.000296089
0.000101853
0.000119466
0.000169988
0.000219413
0.000229419
)
;
    }
    ceiling
    {
        type            compressible::alphatWallFunction;
        Prt             0.85;
        value           nonuniform List<scalar> 
43
(
0.000476485
0.000575177
0.000934417
0.000942965
0.00091818
0.000885203
0.000850572
0.000816462
0.000783647
0.000752458
0.000723003
0.000695334
0.00066948
0.000645462
0.000623304
0.000603042
0.000584724
0.000568391
0.000554064
0.000541726
0.000531304
0.000522668
0.00051563
0.000509957
0.00050538
0.000501618
0.000498391
0.000495438
0.000492526
0.000489464
0.000486101
0.000482343
0.000478166
0.000473648
0.000469039
0.000464916
0.00046283
0.000469482
0.00045156
0.000418983
0.00103383
0.00141214
0.00166996
)
;
    }
    sWall
    {
        type            compressible::alphatWallFunction;
        Prt             0.85;
        value           uniform 0.000476394;
    }
    nWall
    {
        type            compressible::alphatWallFunction;
        Prt             0.85;
        value           nonuniform List<scalar> 6(0.000461852 0.000577264 0.000682418 0.000548663 0.000463427 0.000419352);
    }
    sideWalls
    {
        type            empty;
    }
    glass1
    {
        type            compressible::alphatWallFunction;
        Prt             0.85;
        value           nonuniform List<scalar> 9(0.00021233 0.000307119 0.000413691 0.000527111 0.000642869 0.000748383 0.000822257 0.000891309 0.00104901);
    }
    glass2
    {
        type            compressible::alphatWallFunction;
        Prt             0.85;
        value           nonuniform List<scalar> 2(0.000809792 0.000797148);
    }
    sun
    {
        type            compressible::alphatWallFunction;
        Prt             0.85;
        value           nonuniform List<scalar> 
14
(
0.0002114
0.000181188
0.000152113
0.000137764
0.000126469
0.000120472
0.000116086
0.000112215
0.000108607
0.000104718
0.000100242
9.55816e-05
9.12463e-05
9.03995e-05
)
;
    }
    heatsource1
    {
        type            compressible::alphatWallFunction;
        Prt             0.85;
        value           nonuniform List<scalar> 3(0.000416649 0.000444125 0.000459976);
    }
    heatsource2
    {
        type            compressible::alphatWallFunction;
        Prt             0.85;
        value           nonuniform List<scalar> 4(0.000132376 0.000102917 0.000102916 0.000152676);
    }
    Table_master
    {
        type            compressible::alphatWallFunction;
        Prt             0.85;
        value           nonuniform List<scalar> 9(9.03162e-05 9.95225e-05 0.000110945 0.000123207 0.000136854 0.000152568 0.000171425 0.000195609 0.000230705);
    }
    Table_slave
    {
        type            compressible::alphatWallFunction;
        Prt             0.85;
        value           nonuniform List<scalar> 9(0.000210645 0.000215024 0.000219084 0.000223371 0.000228683 0.000235868 0.000246061 0.000261158 0.000284933);
    }
    inlet
    {
        type            fixedValue;
        value           uniform 1.94e-05;
    }
    outlet
    {
        type            zeroGradient;
    }
}


// ************************************************************************* //
