// -*- C++ -*-
// File generated by PyFoam - sorry for the ugliness

FoamFile
{
 version 2.0;
 format ascii;
 class volVectorField;
 location "600";
 object U;
}

dimensions [ 0 1 -1 0 0 0 0 ];

internalField nonuniform List<vector> 459
(
  (0.038474 0.0845843 0)
  (-0.164301 0.0241707 0)
  (-0.186162 0.0173805 0)
  (-0.21611 0.0125292 0)
  (-0.238681 0.00705436 0)
  (-0.253102 0.00126574 0)
  (-0.258181 -0.00490073 0)
  (-0.25237 -0.0114552 0)
  (-0.235975 -0.0182118 0)
  (-0.209836 -0.024235 0)
  (-0.176331 -0.028691 0)
  (-0.138377 -0.0312794 0)
  (-0.0988655 -0.0326797 0)
  (-0.0630197 -0.0349025 0)
  (-0.0471022 -0.0395082 0)
  (0.00609832 0.00645563 0)
  (-0.0196704 -0.0182197 0)
  (0.00435665 -0.024938 0)
  (0.0230863 -0.0174748 0)
  (0.0370425 -0.0111942 0)
  (0.0464567 -0.00683395 0)
  (0.0514662 -0.00399567 0)
  (0.0536224 -0.00253328 0)
  (0.0543708 -0.00187229 0)
  (0.0545776 -0.00154294 0)
  (0.0545457 -0.00133767 0)
  (0.0543175 -0.00117385 0)
  (0.0538455 -0.000979009 0)
  (0.052964 -0.000606769 0)
  (0.0511953 0.000301744 0)
  (0.0474981 0.0022302 0)
  (0.0408209 0.00379324 0)
  (0.0382 0.00376805 0)
  (-0.0235682 0.0182414 0)
  (0.214328 0.17333 0)
  (-0.15496 0.0638763 0)
  (-0.150073 0.0505368 0)
  (-0.181033 0.0403832 0)
  (-0.20317 0.0288594 0)
  (-0.217564 0.0160796 0)
  (-0.223106 0.0017132 0)
  (-0.218034 -0.0141796 0)
  (-0.202947 -0.0299979 0)
  (-0.1791 -0.0433197 0)
  (-0.14921 -0.0521902 0)
  (-0.116526 -0.0557967 0)
  (-0.0843406 -0.054784 0)
  (-0.0568592 -0.0509337 0)
  (-0.0396268 -0.044606 0)
  (-0.0252596 -0.0240675 0)
  (-0.00926607 0.00423009 0)
  (0.0795182 0.0261692 0)
  (0.0352174 -0.0166494 0)
  (0.0382394 -0.0264102 0)
  (0.0478152 -0.021633 0)
  (0.0548342 -0.0140581 0)
  (0.0589245 -0.00746244 0)
  (0.0602743 -0.00260498 0)
  (0.06028 1.60073e-05 0)
  (0.0601141 0.00119492 0)
  (0.060128 0.00179107 0)
  (0.0602096 0.00217388 0)
  (0.0602509 0.00247773 0)
  (0.0602297 0.00286104 0)
  (0.0601049 0.00362703 0)
  (0.0593591 0.00560903 0)
  (0.0556386 0.0113864 0)
  (0.0462386 0.0151894 0)
  (0.0455952 0.0155982 0)
  (-0.0616876 0.040295 0)
  (0.374613 0.259425 0)
  (-0.173409 0.102447 0)
  (-0.11299 0.0819634 0)
  (-0.143107 0.0634002 0)
  (-0.162523 0.044379 0)
  (-0.175665 0.0236898 0)
  (-0.180892 0.00034596 0)
  (-0.175217 -0.0252035 0)
  (-0.159988 -0.0501142 0)
  (-0.137216 -0.0701834 0)
  (-0.110063 -0.0825842 0)
  (-0.0817231 -0.0864656 0)
  (-0.05484 -0.0828393 0)
  (-0.0318429 -0.0733017 0)
  (-0.014869 -0.0583817 0)
  (-0.00129866 -0.034856 0)
  (0.0109226 -0.00430257 0)
  (0.106481 -0.0462747 0)
  (0.0663252 -0.0428447 0)
  (0.0615618 -0.0356012 0)
  (0.0641031 -0.0268392 0)
  (0.0656609 -0.0179913 0)
  (0.066174 -0.0108104 0)
  (0.0647322 -0.00904876 0)
  (0.0620893 -0.00666814 0)
  (0.0605357 -0.00541776 0)
  (0.060092 -0.00472831 0)
  (0.0601537 -0.00430286 0)
  (0.0604324 -0.0039917 0)
  (0.0609631 -0.00366755 0)
  (0.0621559 -0.00304906 0)
  (0.0650656 -0.000285538 0)
  (0.0627163 0.0163576 0)
  (0.0485141 0.0265431 0)
  (0.054379 0.0307431 0)
  (-0.094039 0.0632653 0)
  (0.517754 0.328762 0)
  (-0.208778 0.137251 0)
  (-0.0738495 0.108604 0)
  (-0.102552 0.0826953 0)
  (-0.116356 0.0583975 0)
  (-0.126004 0.0316349 0)
  (-0.129013 -0.000150561 0)
  (-0.120214 -0.0358392 0)
  (-0.10367 -0.0695635 0)
  (-0.0823171 -0.0951601 0)
  (-0.0592751 -0.109652 0)
  (-0.0371275 -0.112775 0)
  (-0.0172974 -0.106484 0)
  (-0.000252053 -0.0925343 0)
  (0.0136783 -0.0726233 0)
  (0.0272808 -0.0485528 0)
  (0.0477992 -0.0244492 0)
  (0.0760052 -0.00113731 0)
  (0.0847207 -0.0337651 0)
  (0.0714681 -0.0362138 0)
  (0.0646959 -0.0300451 0)
  (0.0626345 -0.0234761 0)
  (0.0617229 -0.0166078 0)
  (0.0621559 -0.00884221 0)
  (0.0651122 -0.00562174 0)
  (0.0699548 -0.00524841 0)
  (0.0745636 -0.00507441 0)
  (0.078654 -0.00480129 0)
  (0.0820269 -0.00412834 0)
  (0.0839345 -0.00280161 0)
  (0.0827518 -0.000595677 0)
  (0.0770211 0.00274115 0)
  (0.0640911 0.00771489 0)
  (0.0516942 0.0275474 0)
  (0.0384932 0.0425383 0)
  (0.0585748 0.0519821 0)
  (-0.135435 0.0834748 0)
  (0.639986 0.382761 0)
  (-0.250452 0.166296 0)
  (-0.0352835 0.123753 0)
  (-0.0597987 0.0935134 0)
  (-0.0653601 0.0663856 0)
  (-0.0686005 0.0360556 0)
  (-0.0646061 -0.00269116 0)
  (-0.0502631 -0.0481987 0)
  (-0.0325056 -0.0883995 0)
  (-0.0147322 -0.116206 0)
  (0.0013685 -0.129933 0)
  (0.0143979 -0.130289 0)
  (0.0244046 -0.120838 0)
  (0.0320324 -0.104516 0)
  (0.0382156 -0.0837832 0)
  (0.0447532 -0.0612927 0)
  (0.0539907 -0.0415504 0)
  (0.0636127 -0.032738 0)
  (0.0656413 -0.0364524 0)
  (0.0599543 -0.0331229 0)
  (0.0532192 -0.0267709 0)
  (0.0487657 -0.0208562 0)
  (0.0462145 -0.0155262 0)
  (0.0457056 -0.0105963 0)
  (0.0473483 -0.00717171 0)
  (0.0508685 -0.00603501 0)
  (0.0548211 -0.00585811 0)
  (0.0589393 -0.00544209 0)
  (0.0629419 -0.00389475 0)
  (0.0661356 -0.00048428 0)
  (0.0674757 0.00490028 0)
  (0.0656856 0.0121239 0)
  (0.0602549 0.0215466 0)
  (0.05298 0.0372086 0)
  (0.0415501 0.0544104 0)
  (0.0659692 0.0721615 0)
  (-0.0305967 0.0951897 0)
  (0.0458739 0.024898 0)
  (-0.0623383 -0.0335007 0)
  (-0.275085 -0.0567401 0)
  (0.727178 0.428078 0)
  (-0.289961 0.186299 0)
  (-0.00641893 0.119529 0)
  (-0.01553 0.0936633 0)
  (-0.0101075 0.0679478 0)
  (-0.00493312 0.0345355 0)
  (0.0145004 -0.0134572 0)
  (0.0349139 -0.0649202 0)
  (0.0507716 -0.10479 0)
  (0.0613782 -0.129342 0)
  (0.0668607 -0.13909 0)
  (0.0680266 -0.136344 0)
  (0.0661342 -0.124378 0)
  (0.0623732 -0.106381 0)
  (0.0580442 -0.0852905 0)
  (0.0544993 -0.0638664 0)
  (0.0527495 -0.0453357 0)
  (0.0515639 -0.0336377 0)
  (0.0476096 -0.0291236 0)
  (0.0404997 -0.0253492 0)
  (0.0331485 -0.0207842 0)
  (0.0278218 -0.016676 0)
  (0.024766 -0.0133439 0)
  (0.0240182 -0.010666 0)
  (0.0253623 -0.00920064 0)
  (0.0282961 -0.00942025 0)
  (0.0320337 -0.0101644 0)
  (0.0363131 -0.01027 0)
  (0.0409601 -0.00873694 0)
  (0.0456276 -0.0045522 0)
  (0.0501795 0.00294047 0)
  (0.0525677 0.0129244 0)
  (0.0530814 0.0249024 0)
  (0.0534369 0.0399218 0)
  (0.0515367 0.0569821 0)
  (0.0749667 0.0780015 0)
  (0.051735 0.0908081 0)
  (0.0941316 0.0631345 0)
  (0.116996 0.0429615 0)
  (-0.128784 -0.00639925 0)
  (0.777457 0.469462 0)
  (-0.308643 0.172809 0)
  (0.0199016 0.0694534 0)
  (0.0434127 0.0693256 0)
  (0.0593828 0.0560874 0)
  (0.0760404 0.0200603 0)
  (0.109967 -0.0353094 0)
  (0.131244 -0.082582 0)
  (0.140784 -0.115181 0)
  (0.14041 -0.132536 0)
  (0.132263 -0.136321 0)
  (0.118765 -0.129335 0)
  (0.102338 -0.11483 0)
  (0.0850246 -0.0958759 0)
  (0.0685243 -0.0753079 0)
  (0.0540345 -0.0554396 0)
  (0.0422442 -0.0385788 0)
  (0.0326973 -0.0270031 0)
  (0.0237636 -0.0208411 0)
  (0.0151619 -0.0172777 0)
  (0.00791576 -0.0144811 0)
  (0.00290957 -0.0124835 0)
  (0.000111784 -0.0113023 0)
  (-0.000647718 -0.010807 0)
  (0.000291205 -0.0112154 0)
  (0.00240116 -0.0125884 0)
  (0.00515373 -0.0141151 0)
  (0.00843076 -0.0149076 0)
  (0.0123416 -0.0140538 0)
  (0.0170912 -0.0104103 0)
  (0.0232642 -0.00268299 0)
  (0.0311549 0.00882006 0)
  (0.0375915 0.0214735 0)
  (0.0451012 0.0351247 0)
  (0.0530016 0.0491819 0)
  (0.0757247 0.0659493 0)
  (0.0888725 0.0696707 0)
  (0.121348 0.0466881 0)
  (0.160537 0.0415784 0)
  (-0.0307029 0.0941365 0)
  (0.882168 0.472728 0)
  (-0.0708813 0.152566 0)
  (0.10614 -0.00744566 0)
  (0.173163 -0.0225633 0)
  (0.186289 -0.0278227 0)
  (0.214007 -0.0534916 0)
  (0.237044 -0.0813774 0)
  (0.244133 -0.103727 0)
  (0.235411 -0.117454 0)
  (0.214712 -0.12174 0)
  (0.186273 -0.117314 0)
  (0.153956 -0.106082 0)
  (0.120969 -0.0903304 0)
  (0.0896429 -0.0721985 0)
  (0.0617116 -0.0539262 0)
  (0.037952 -0.0371466 0)
  (0.0190148 -0.0235495 0)
  (0.00481349 -0.0148088 0)
  (-0.00605666 -0.0107379 0)
  (-0.0137917 -0.00936668 0)
  (-0.0195371 -0.00889065 0)
  (-0.0234577 -0.00901365 0)
  (-0.0258913 -0.00966155 0)
  (-0.0271231 -0.0107814 0)
  (-0.0274754 -0.0124063 0)
  (-0.0273633 -0.0144214 0)
  (-0.0271023 -0.0163979 0)
  (-0.0267258 -0.0178197 0)
  (-0.0260139 -0.0181201 0)
  (-0.0244933 -0.0166404 0)
  (-0.0211643 -0.0126366 0)
  (-0.0127211 -0.00532486 0)
  (-0.000805298 0.00487442 0)
  (0.0107495 0.0146357 0)
  (0.0228888 0.0213607 0)
  (0.0425119 0.0273567 0)
  (0.0590711 0.0181126 0)
  (0.0755442 -0.00787059 0)
  (0.133322 0.0432063 0)
  (-0.426971 0.212407 0)
  (1.02869 0.425579 0)
  (0.49035 0.281096 0)
  (0.502797 0.189956 0)
  (0.519542 0.124746 0)
  (0.494611 0.078668 0)
  (0.45718 0.0331315 0)
  (0.413459 -0.0102664 0)
  (0.364375 -0.0441904 0)
  (0.310393 -0.0651427 0)
  (0.254213 -0.0734197 0)
  (0.199019 -0.0716402 0)
  (0.147386 -0.0632695 0)
  (0.100947 -0.0512355 0)
  (0.0605675 -0.0374995 0)
  (0.0273092 -0.0241026 0)
  (0.000170001 -0.012452 0)
  (-0.0187518 -0.00527488 0)
  (-0.029925 -0.00279525 0)
  (-0.037212 -0.00271858 0)
  (-0.0425082 -0.00360032 0)
  (-0.0466513 -0.00476936 0)
  (-0.0499671 -0.00614109 0)
  (-0.0527315 -0.00771019 0)
  (-0.0551995 -0.00945841 0)
  (-0.0576607 -0.0113506 0)
  (-0.0604582 -0.0132457 0)
  (-0.0639057 -0.0148319 0)
  (-0.0682602 -0.0156662 0)
  (-0.0737961 -0.0151637 0)
  (-0.0809001 -0.0125791 0)
  (-0.0900641 -0.00705557 0)
  (-0.101562 0.00214199 0)
  (-0.11333 0.0144175 0)
  (-0.128846 0.0292165 0)
  (-0.154224 0.0461683 0)
  (-0.19191 0.0639549 0)
  (-0.244763 0.0784566 0)
  (-0.302846 0.0870346 0)
  (-0.370005 0.0900201 0)
  (-0.628652 0.0888004 0)
  (-0.172396 0.0193022 0)
  (0.133586 0.0347121 0)
  (0.221706 0.00478267 0)
  (0.20982 -0.0181378 0)
  (0.194955 -0.0288265 0)
  (0.174643 -0.0331912 0)
  (0.146263 -0.033519 0)
  (0.112686 -0.030416 0)
  (0.0772997 -0.0246425 0)
  (0.0428754 -0.0170838 0)
  (0.0096032 -0.00823364 0)
  (-0.0207787 9.23653e-05 0)
  (-0.0403672 0.00441864 0)
  (-0.0529591 0.00598788 0)
  (-0.059754 0.00537738 0)
  (-0.0636527 0.00382781 0)
  (-0.0665624 0.00212657 0)
  (-0.0691105 0.000433465 0)
  (-0.0717274 -0.00117812 0)
  (-0.0745152 -0.00274689 0)
  (-0.0775016 -0.00426511 0)
  (-0.0808243 -0.00569117 0)
  (-0.0846446 -0.00695285 0)
  (-0.0891242 -0.00789489 0)
  (-0.0943593 -0.0082461 0)
  (-0.100332 -0.00763333 0)
  (-0.106885 -0.00560786 0)
  (-0.113687 -0.00168821 0)
  (-0.120105 0.00460476 0)
  (-0.125076 0.0137592 0)
  (-0.128902 0.0268541 0)
  (-0.132017 0.0441278 0)
  (-0.135646 0.0641383 0)
  (-0.140417 0.0826748 0)
  (-0.142846 0.0899651 0)
  (-0.123735 0.0660698 0)
  (-0.068659 -0.0293947 0)
  (-0.28212 -0.211002 0)
  (-0.0154636 0.210907 0)
  (0.0453348 0.0907981 0)
  (0.010785 0.0207889 0)
  (0.00147717 0.00906758 0)
  (-0.00198151 0.00693645 0)
  (-0.0100398 0.00319753 0)
  (-0.0246012 0.00176086 0)
  (-0.0422095 0.0034451 0)
  (-0.0593447 0.00679727 0)
  (-0.0731631 0.0102144 0)
  (-0.0816092 0.0121482 0)
  (-0.0859805 0.0119527 0)
  (-0.0876412 0.0100461 0)
  (-0.0877369 0.00766717 0)
  (-0.0871998 0.00513292 0)
  (-0.0868751 0.00276484 0)
  (-0.0870346 0.000772412 0)
  (-0.0876324 -0.000824042 0)
  (-0.088578 -0.00207882 0)
  (-0.0898787 -0.00310281 0)
  (-0.0916618 -0.00397158 0)
  (-0.093969 -0.00474297 0)
  (-0.096815 -0.00538873 0)
  (-0.100156 -0.00582812 0)
  (-0.103858 -0.00590998 0)
  (-0.107662 -0.00540298 0)
  (-0.111159 -0.00398479 0)
  (-0.11375 -0.0012143 0)
  (-0.114609 0.00349413 0)
  (-0.112623 0.0109135 0)
  (-0.106247 0.02202 0)
  (-0.0943484 0.0375515 0)
  (-0.0770984 0.0567047 0)
  (-0.0554742 0.0742506 0)
  (-0.0331239 0.0832178 0)
  (0.0100735 0.0647408 0)
  (0.141262 -0.00539847 0)
  (-0.207453 -0.121291 0)
  (0.935555 0.0215214 0)
  (-0.484435 -0.468045 0)
  (-0.330977 0.0693419 0)
  (-0.240788 -0.0217087 0)
  (-0.193039 -0.0384174 0)
  (-0.173474 -0.0318391 0)
  (-0.164891 -0.0248577 0)
  (-0.161073 -0.0189199 0)
  (-0.158402 -0.0131104 0)
  (-0.154846 -0.00775169 0)
  (-0.149491 -0.00309757 0)
  (-0.142154 0.000817148 0)
  (-0.13321 0.00388903 0)
  (-0.123639 0.00594636 0)
  (-0.114547 0.00713481 0)
  (-0.106699 0.00796853 0)
  (-0.100428 0.00853952 0)
  (-0.0957162 0.00888057 0)
  (-0.0923676 0.00896402 0)
  (-0.0902004 0.00874872 0)
  (-0.0890751 0.00826633 0)
  (-0.0888695 0.00759768 0)
  (-0.0894755 0.00685394 0)
  (-0.0907844 0.00617798 0)
  (-0.0926915 0.00561925 0)
  (-0.0950569 0.00522763 0)
  (-0.0976647 0.00506972 0)
  (-0.100182 0.00523432 0)
  (-0.102117 0.00583681 0)
  (-0.10273 0.0070352 0)
  (-0.100777 0.00914008 0)
  (-0.0941121 0.0127482 0)
  (-0.0801039 0.0186038 0)
  (-0.0571968 0.0276134 0)
  (-0.0274655 0.040121 0)
  (0.0263516 0.0561786 0)
  (0.068888 0.0552904 0)
  (0.111653 0.0387112 0)
  (0.166763 0.00753463 0)
  (-0.201484 -0.0507278 0)
)
;

boundaryField
{
  floor
  {
    type noSlip;
  }
  ceiling
  {
    type noSlip;
  }
  sWall
  {
    type noSlip;
  }
  nWall
  {
    type noSlip;
  }
  sideWalls
  {
    type empty;
  }
  glass1
  {
    type noSlip;
  }
  glass2
  {
    type noSlip;
  }
  sun
  {
    type noSlip;
  }
  heatsource1
  {
    type noSlip;
  }
  heatsource2
  {
    type noSlip;
  }
  Table_master
  {
    type noSlip;
  }
  Table_slave
  {
    type noSlip;
  }
  inlet
  {
    type fixedValue;
    value uniform (0.277164 -0.114805 0);
  }
  outlet
  {
    type zeroGradient;
  }
} 	// ************************************************************************* //

