// -*- C++ -*-
// File generated by PyFoam - sorry for the ugliness

FoamFile
{
 version 2.0;
 format ascii;
 class volScalarField;
 location "1000";
 object T;
}

dimensions [ 0 0 0 1 0 0 0 ];

internalField nonuniform List<scalar> 459
(
  303.566
  303.307
  303.294
  303.29
  303.287
  303.283
  303.278
  303.272
  303.264
  303.253
  303.241
  303.23
  303.221
  303.217
  303.219
  303.311
  303.29
  303.282
  303.284
  303.288
  303.292
  303.296
  303.3
  303.304
  303.308
  303.311
  303.315
  303.319
  303.323
  303.326
  303.33
  303.335
  303.34
  303.359
  303.74
  303.35
  303.327
  303.329
  303.332
  303.333
  303.33
  303.324
  303.309
  303.286
  303.26
  303.236
  303.218
  303.207
  303.203
  303.2
  303.199
  303.311
  303.274
  303.268
  303.271
  303.275
  303.279
  303.282
  303.284
  303.285
  303.287
  303.288
  303.29
  303.291
  303.293
  303.295
  303.299
  303.305
  303.314
  303.344
  303.921
  303.401
  303.362
  303.372
  303.386
  303.397
  303.401
  303.396
  303.373
  303.334
  303.289
  303.249
  303.219
  303.203
  303.198
  303.198
  303.199
  303.254
  303.253
  303.259
  303.269
  303.279
  303.286
  303.287
  303.287
  303.287
  303.288
  303.288
  303.288
  303.289
  303.29
  303.29
  303.293
  303.298
  303.306
  303.337
  304.105
  303.463
  303.398
  303.414
  303.442
  303.469
  303.487
  303.485
  303.449
  303.387
  303.318
  303.259
  303.218
  303.197
  303.193
  303.196
  303.203
  303.213
  303.227
  303.245
  303.265
  303.283
  303.299
  303.311
  303.321
  303.33
  303.338
  303.345
  303.351
  303.356
  303.36
  303.363
  303.364
  303.341
  303.322
  303.313
  303.336
  304.283
  303.543
  303.441
  303.452
  303.49
  303.534
  303.573
  303.571
  303.517
  303.428
  303.334
  303.259
  303.211
  303.188
  303.186
  303.195
  303.209
  303.227
  303.248
  303.271
  303.295
  303.317
  303.336
  303.351
  303.364
  303.375
  303.384
  303.392
  303.397
  303.399
  303.398
  303.395
  303.389
  303.371
  303.345
  303.326
  303.334
  303.406
  303.453
  303.458
  304.444
  303.645
  303.514
  303.503
  303.54
  303.596
  303.646
  303.625
  303.545
  303.436
  303.328
  303.243
  303.191
  303.172
  303.177
  303.197
  303.223
  303.251
  303.281
  303.31
  303.338
  303.361
  303.38
  303.395
  303.407
  303.417
  303.425
  303.431
  303.434
  303.433
  303.429
  303.421
  303.41
  303.393
  303.368
  303.343
  303.338
  303.368
  303.385
  303.42
  304.592
  303.808
  303.677
  303.648
  303.665
  303.713
  303.715
  303.644
  303.524
  303.389
  303.271
  303.189
  303.15
  303.148
  303.172
  303.21
  303.252
  303.292
  303.33
  303.362
  303.389
  303.41
  303.427
  303.439
  303.449
  303.456
  303.462
  303.465
  303.465
  303.462
  303.454
  303.443
  303.43
  303.412
  303.389
  303.365
  303.353
  303.361
  303.371
  303.399
  304.807
  304.22
  304.076
  303.99
  303.948
  303.887
  303.759
  303.584
  303.4
  303.245
  303.14
  303.091
  303.092
  303.127
  303.183
  303.247
  303.305
  303.353
  303.392
  303.42
  303.441
  303.457
  303.469
  303.478
  303.484
  303.489
  303.491
  303.491
  303.489
  303.485
  303.477
  303.465
  303.452
  303.436
  303.419
  303.401
  303.395
  303.407
  303.425
  303.547
  305.113
  304.837
  304.581
  304.346
  304.116
  303.812
  303.48
  303.202
  303.016
  302.928
  302.92
  302.971
  303.056
  303.149
  303.24
  303.328
  303.385
  303.423
  303.45
  303.47
  303.485
  303.496
  303.504
  303.509
  303.512
  303.514
  303.514
  303.512
  303.51
  303.507
  303.505
  303.505
  303.506
  303.512
  303.525
  303.547
  303.578
  303.609
  303.63
  303.683
  296.341
  298.198
  299.397
  300.253
  300.977
  301.588
  302.083
  302.468
  302.759
  302.99
  303.181
  303.294
  303.37
  303.423
  303.458
  303.482
  303.499
  303.511
  303.52
  303.526
  303.53
  303.533
  303.534
  303.535
  303.536
  303.536
  303.536
  303.537
  303.538
  303.54
  303.544
  303.552
  303.565
  303.583
  303.605
  303.628
  303.647
  303.668
  296.992
  298.824
  300.271
  301.249
  301.868
  302.322
  302.666
  302.923
  303.109
  303.242
  303.343
  303.41
  303.455
  303.486
  303.507
  303.521
  303.531
  303.538
  303.543
  303.546
  303.549
  303.55
  303.552
  303.553
  303.554
  303.555
  303.556
  303.557
  303.558
  303.56
  303.563
  303.569
  303.577
  303.59
  303.605
  303.622
  303.621
  303.65
  299.719
  299.641
  299.636
  301.476
  302.288
  302.677
  302.905
  303.073
  303.201
  303.299
  303.372
  303.426
  303.465
  303.492
  303.51
  303.522
  303.529
  303.535
  303.538
  303.541
  303.543
  303.546
  303.548
  303.55
  303.552
  303.554
  303.556
  303.558
  303.559
  303.561
  303.563
  303.566
  303.568
  303.572
  303.577
  303.586
  303.595
  303.601
  303.603
  303.642
)
;

boundaryField
{
  floor
  {
    type wallHeatTransfer;
    Tinf uniform 305.2;
    alphaWall uniform 0.24;
    value nonuniform List<scalar> 29
(
  303.411
  303.668
  303.606
  303.574
  303.577
  303.588
  303.601
  303.618
  303.636
  303.655
  303.672
  303.69
  303.706
  303.722
  303.737
  303.752
  303.768
  303.785
  303.8
  303.84
  303.84
  303.757
  303.716
  303.692
  303.411
  303.668
  303.651
  303.468
  303.379
)
;
  }
  ceiling
  {
    type wallHeatTransfer;
    Tinf uniform 303.2;
    alphaWall uniform 0.24;
    value nonuniform List<scalar> 43
(
  299.966
  299.882
  299.87
  301.583
  302.346
  302.712
  302.925
  303.082
  303.201
  303.291
  303.357
  303.405
  303.438
  303.459
  303.472
  303.479
  303.484
  303.487
  303.489
  303.49
  303.491
  303.493
  303.494
  303.496
  303.498
  303.5
  303.503
  303.506
  303.509
  303.512
  303.516
  303.52
  303.524
  303.529
  303.536
  303.546
  303.555
  303.559
  303.559
  303.591
  305.025
  304.771
  297.393
)
;
  }
  sWall
  {
    type wallHeatTransfer;
    Tinf uniform 315.2;
    alphaWall uniform 0.36;
    value uniform 301.318;
  }
  nWall
  {
    type wallHeatTransfer;
    Tinf uniform 307.2;
    alphaWall uniform 0.36;
    value nonuniform List<scalar> 6
(
  304.162
  304.11
  304.034
  304.179
  304.157
  304.221
)
;
  }
  sideWalls
  {
    type empty;
  }
  glass1
  {
    type wallHeatTransfer;
    Tinf uniform 315.2;
    alphaWall uniform 4.3;
    value nonuniform List<scalar> 9
(
  311.516
  310.886
  310.489
  310.187
  309.935
  309.707
  309.539
  309.611
  309.837
)
;
  }
  glass2
  {
    type wallHeatTransfer;
    Tinf uniform 307.2;
    alphaWall uniform 4.3;
    value nonuniform List<scalar> 2
(
  305.82
  305.915
)
;
  }
  sun
  {
    type wallHeatTransfer;
    Tinf uniform 305.2;
    alphaWall uniform 0.24;
    value nonuniform List<scalar> 14
(
  303.738
  303.494
  303.479
  303.469
  303.46
  303.451
  303.443
  303.433
  303.423
  303.411
  303.401
  303.394
  303.393
  303.398
)
;
  }
  heatsource1
  {
    type fixedGradient;
    gradient uniform 0;
  }
  heatsource2
  {
    type fixedGradient;
    gradient uniform 0;
  }
  Table_master
  {
    type zeroGradient;
  }
  Table_slave
  {
    type zeroGradient;
  }
  inlet
  {
    type fixedValue;
    value uniform 290.15;
  }
  outlet
  {
    type zeroGradient;
  }
} 	// ************************************************************************* //

