/*--------------------------------*- C++ -*----------------------------------*\
  =========                 |
  \\      /  F ield         | OpenFOAM: The Open Source CFD Toolbox
   \\    /   O peration     | Website:  https://openfoam.org
    \\  /    A nd           | Version:  6
     \\/     M anipulation  |
\*---------------------------------------------------------------------------*/
FoamFile
{
    version     2.0;
    format      ascii;
    class       volScalarField;
    location    "70";
    object      alphat;
}
// * * * * * * * * * * * * * * * * * * * * * * * * * * * * * * * * * * * * * //

dimensions      [1 -1 -1 0 0 0 0];

internalField   nonuniform List<scalar> 
459
(
0.000893251
0.00129452
0.001399
0.00139798
0.00137039
0.00133724
0.00130355
0.00126971
0.00123886
0.0012094
0.00117905
0.0011451
0.00110391
0.00104907
0.000979151
0.000805767
0.000987039
0.00111628
0.00117412
0.00118157
0.00116886
0.00111572
0.00105431
0.000998736
0.000950002
0.000906795
0.000867234
0.000828554
0.00078881
0.000744485
0.00069152
0.000623687
0.000527784
0.00045669
0.000988239
0.00250167
0.00324792
0.00354262
0.00360434
0.00361815
0.00363995
0.00367185
0.00366032
0.00357681
0.00339889
0.00310557
0.00268748
0.00215296
0.00156001
0.00100446
0.000905318
0.000919153
0.0033207
0.00333127
0.00386701
0.00437735
0.00443416
0.00312028
0.00255476
0.00217411
0.00191487
0.00175416
0.00166777
0.00159048
0.0014378
0.00121964
0.00101468
0.00089642
0.000696551
0.000493009
0.00126519
0.00299835
0.00355102
0.00396333
0.00420127
0.00446994
0.00480425
0.00514527
0.00535803
0.0053686
0.00514653
0.00469515
0.00404697
0.00326231
0.00243713
0.00169642
0.000942059
0.000986025
0.00323447
0.00359195
0.00453907
0.00538553
0.00530305
0.00141785
0.00126013
0.00111127
0.000970806
0.000841048
0.000732548
0.000659857
0.000618961
0.000593887
0.00065718
0.000764661
0.00072453
0.000518324
0.00139449
0.00355707
0.00363159
0.00435547
0.00487303
0.00550957
0.00621978
0.00674803
0.00695079
0.00685668
0.00650333
0.00592791
0.00517485
0.00430238
0.00338057
0.00249361
0.00154332
0.00100575
0.00169781
0.00285959
0.00450091
0.00597561
0.00690281
0.00653594
0.00150659
0.00136504
0.00125819
0.00116959
0.00108688
0.00100614
0.000921991
0.000830916
0.000723679
0.000621729
0.000689333
0.000812223
0.000557588
0.0015085
0.00364977
0.00345111
0.0048743
0.00579084
0.00683972
0.00775186
0.00816411
0.00819819
0.00798495
0.00756906
0.00698273
0.00626529
0.00546622
0.00464744
0.00390115
0.00330897
0.00353542
0.00468442
0.0061549
0.00750379
0.00845716
0.00889352
0.00865047
0.00705846
0.00609717
0.00545417
0.00488922
0.00423138
0.00342346
0.00264921
0.00208643
0.00156534
0.00106938
0.000841377
0.000941371
0.000758614
0.000653909
0.000733916
0.000979263
0.00160877
0.00340613
0.0032401
0.00527949
0.00648846
0.00764849
0.00855911
0.00896603
0.00899808
0.00881974
0.00848071
0.00801923
0.00748548
0.00692897
0.00643915
0.00615594
0.00624053
0.00715167
0.00842025
0.00948595
0.0101976
0.0104803
0.0103217
0.009723
0.00873026
0.00777674
0.00683443
0.00576748
0.00464818
0.00375508
0.00328208
0.00302869
0.0026184
0.001936
0.00130676
0.00124573
0.00107612
0.00108812
0.00140901
0.00122451
0.0016899
0.00311825
0.00289334
0.00549985
0.00680868
0.00770184
0.00846954
0.00893521
0.00913985
0.0091361
0.00900579
0.00880027
0.00856859
0.00836357
0.00831316
0.00853313
0.00913405
0.0101403
0.0109859
0.0114867
0.0116029
0.0113235
0.0106835
0.00974264
0.00860554
0.0074572
0.00636404
0.00541019
0.00470625
0.00431841
0.00414053
0.00392475
0.00347025
0.00280891
0.00209486
0.00177686
0.00140322
0.00147049
0.0022679
0.00162101
0.00165769
0.00287131
0.00228331
0.0055249
0.00712902
0.00760146
0.00795458
0.00824966
0.00850764
0.00869454
0.00879347
0.00886262
0.00895732
0.00913672
0.00947434
0.0100279
0.0107607
0.0114924
0.0118782
0.0118888
0.0115025
0.0107472
0.00972364
0.00855222
0.00734458
0.0063743
0.00566288
0.00517753
0.00488639
0.00472013
0.00456217
0.00429965
0.00389195
0.00339702
0.00284434
0.00241265
0.00193176
0.00185412
0.00416573
0.00230175
0.0015189
0.00142838
0.00157623
0.00518632
0.00746395
0.00773684
0.00778112
0.00787618
0.00803728
0.00823109
0.00843405
0.0086464
0.00891486
0.00926937
0.00972742
0.0102715
0.0107966
0.011129
0.0110971
0.0106782
0.00989864
0.00883665
0.00766763
0.0066487
0.00593912
0.00550077
0.00525323
0.00512785
0.00507296
0.00503393
0.00495276
0.00478439
0.00451192
0.00414876
0.00371823
0.00327123
0.0028009
0.00290172
0.00629872
0.00266776
0.00115283
0.00455637
0.00767169
0.00814972
0.00828232
0.00839868
0.00852706
0.00866674
0.00881592
0.00897073
0.00914737
0.009349
0.009555
0.00971639
0.00975222
0.00958151
0.00918657
0.00861459
0.00796733
0.00736421
0.00688902
0.00656557
0.00638164
0.00630448
0.00630231
0.00634786
0.00641259
0.00646248
0.00646063
0.0063749
0.00618623
0.0058939
0.00551176
0.00506309
0.0046256
0.00475158
0.00706745
0.00235839
0.00269664
0.0081437
0.00901646
0.00903226
0.00903647
0.00906691
0.009084
0.00908561
0.00908428
0.0090908
0.00911025
0.00913814
0.00916098
0.00915688
0.00909893
0.00896672
0.0087607
0.00850561
0.00824086
0.00800241
0.00781079
0.00767213
0.00758764
0.00755653
0.00757546
0.00763616
0.00772197
0.00780534
0.00784901
0.00781222
0.00766171
0.00738499
0.00699797
0.00654338
0.00611557
0.00598241
0.00584441
0.00204029
0.00161096
0.00172413
0.00195015
0.00209701
0.0021012
0.0020921
0.00208439
0.00207967
0.00207855
0.00208091
0.00208652
0.00209511
0.00210545
0.00211577
0.00212377
0.00212669
0.00212201
0.00210888
0.00208922
0.00206687
0.00204555
0.00202805
0.00201607
0.00201043
0.00201115
0.00201764
0.00202871
0.00204244
0.00205619
0.0020669
0.00207173
0.00206888
0.00205826
0.00204189
0.00202524
0.00202008
0.00204217
0.00209336
0.00208732
0.00178924
)
;

boundaryField
{
    floor
    {
        type            compressible::alphatWallFunction;
        Prt             0.85;
        value           nonuniform List<scalar> 
29
(
0.000139656
0.000114974
0.000140816
0.00015889
0.000166892
0.000167915
0.000166151
0.000158779
0.000150214
0.000142413
0.000135531
0.000129393
0.00012374
0.000118178
0.000112427
0.000105966
9.81817e-05
8.81079e-05
7.36512e-05
6.28814e-05
6.28806e-05
6.85139e-05
7.24094e-05
7.83947e-05
0.000139655
0.000114973
0.000131235
0.000140704
0.00014342
)
;
    }
    ceiling
    {
        type            compressible::alphatWallFunction;
        Prt             0.85;
        value           nonuniform List<scalar> 
43
(
0.000226282
0.000241324
0.000271051
0.000290166
0.000290712
0.000289537
0.000288538
0.000287928
0.000287783
0.00028809
0.000288819
0.000289933
0.000291275
0.000292611
0.000293648
0.000294027
0.000293422
0.000291723
0.000289176
0.000286275
0.000283505
0.000281229
0.00027967
0.000278936
0.000279032
0.000279883
0.000281331
0.000283126
0.000284925
0.000286331
0.000286972
0.000286615
0.000285247
0.000283128
0.000280967
0.000280293
0.000283156
0.000289783
0.000288969
0.000249982
0.000213778
0.00020158
0.00036679
)
;
    }
    sWall
    {
        type            compressible::alphatWallFunction;
        Prt             0.85;
        value           uniform 0.000226116;
    }
    nWall
    {
        type            compressible::alphatWallFunction;
        Prt             0.85;
        value           nonuniform List<scalar> 6(0.000139711 0.000173916 0.000227612 0.000323762 0.000282717 0.000249834);
    }
    sideWalls
    {
        type            empty;
    }
    glass1
    {
        type            compressible::alphatWallFunction;
        Prt             0.85;
        value           nonuniform List<scalar> 9(0.00012709 0.00014059 0.000178949 0.000196528 0.000211878 0.000225268 0.000236011 0.000231712 0.000213204);
    }
    glass2
    {
        type            compressible::alphatWallFunction;
        Prt             0.85;
        value           nonuniform List<scalar> 2(0.000317565 0.000364226);
    }
    sun
    {
        type            compressible::alphatWallFunction;
        Prt             0.85;
        value           nonuniform List<scalar> 
14
(
0.000127416
0.000183411
0.000197634
0.000197503
0.000193764
0.000189259
0.000184665
0.000180037
0.000175805
0.000171753
0.000167567
0.000162869
0.000157146
0.000149489
)
;
    }
    heatsource1
    {
        type            compressible::alphatWallFunction;
        Prt             0.85;
        value           nonuniform List<scalar> 3(9.25916e-05 0.000104364 0.000139535);
    }
    heatsource2
    {
        type            compressible::alphatWallFunction;
        Prt             0.85;
        value           nonuniform List<scalar> 4(0.000143047 0.000129007 0.000129005 0.00013423);
    }
    Table_master
    {
        type            compressible::alphatWallFunction;
        Prt             0.85;
        value           nonuniform List<scalar> 9(0.00019994 0.000178447 0.00015787 0.000138154 0.000119653 0.00010395 9.33054e-05 8.72398e-05 8.34767e-05);
    }
    Table_slave
    {
        type            compressible::alphatWallFunction;
        Prt             0.85;
        value           nonuniform List<scalar> 9(0.000211922 0.000192799 0.000178212 0.000166003 0.000154505 0.000143178 0.000131257 0.000118207 0.000102623);
    }
    inlet
    {
        type            fixedValue;
        value           uniform 1.94e-05;
    }
    outlet
    {
        type            zeroGradient;
    }
}


// ************************************************************************* //
