/*--------------------------------*- C++ -*----------------------------------*\
  =========                 |
  \\      /  F ield         | OpenFOAM: The Open Source CFD Toolbox
   \\    /   O peration     | Website:  https://openfoam.org
    \\  /    A nd           | Version:  6
     \\/     M anipulation  |
\*---------------------------------------------------------------------------*/
FoamFile
{
    version     2.0;
    format      ascii;
    class       volScalarField;
    location    "70";
    object      epsilon;
}
// * * * * * * * * * * * * * * * * * * * * * * * * * * * * * * * * * * * * * //

dimensions      [0 2 -3 0 0 0 0];

internalField   nonuniform List<scalar> 
459
(
0.000159872
0.000486309
0.000614054
0.000613127
0.000577839
0.000537127
0.000497686
0.000460024
0.000427388
0.000397705
0.000368591
0.000337734
0.000302645
0.000259807
0.000211293
0.00011932
0.000218731
0.000315832
0.000367176
0.000374191
0.000362263
0.00031511
0.00026597
0.00022618
0.000194758
0.000169472
0.000148327
0.000129414
0.000111714
9.39378e-05
7.52749e-05
5.51996e-05
3.34291e-05
2.18334e-05
0.000216747
0.000502649
0.000564519
0.000501902
0.000420791
0.000361668
0.000324744
0.000302606
0.00029064
0.000282235
0.000272215
0.000257315
0.000236539
0.000210737
0.000182293
0.000228366
0.000167278
0.000177293
0.000617228
0.000357301
0.000296319
0.000272582
0.000260803
0.000279611
0.00023467
0.000192118
0.000157565
0.000130393
0.000109991
9.31358e-05
7.67096e-05
6.03847e-05
4.89002e-05
4.51995e-05
3.02588e-05
2.75267e-05
0.000453735
0.000749901
0.000651434
0.000512779
0.000396336
0.000330861
0.000303216
0.000294492
0.000289832
0.000281104
0.000264555
0.000240487
0.000212436
0.000184662
0.000161062
0.0001617
0.000188569
0.000218628
0.000616868
0.000368099
0.000291688
0.000259951
0.000258989
0.000646622
0.00045387
0.000311221
0.000207524
0.000135079
8.94668e-05
6.56066e-05
5.42368e-05
4.79157e-05
3.68201e-05
3.64694e-05
2.85713e-05
3.20343e-05
0.000607177
0.00103178
0.000686627
0.000509919
0.000357716
0.000284786
0.000266277
0.000267848
0.000269097
0.00026163
0.000244366
0.000220094
0.000193315
0.000168619
0.00015017
0.000143438
0.00015803
0.000229602
0.000255502
0.000248629
0.000261406
0.000275193
0.000277795
0.000285742
0.000777407
0.000578486
0.000453104
0.000363975
0.000292072
0.000231682
0.000178293
0.000130568
8.63432e-05
4.39631e-05
3.23507e-05
3.57505e-05
3.99325e-05
0.000768288
0.00120145
0.000686818
0.000560468
0.000336474
0.000236401
0.00021522
0.00022066
0.000226353
0.000223875
0.000213118
0.000196853
0.000178996
0.000163883
0.000156172
0.000158437
0.000191794
0.000237858
0.000267764
0.000310897
0.000349783
0.000366883
0.000355157
0.00031927
0.000294112
0.000264526
0.000249055
0.000237153
0.000220641
0.000193906
0.000154525
0.000111336
6.39114e-05
3.67535e-05
2.65799e-05
3.83065e-05
4.90763e-05
6.46164e-05
9.13766e-05
0.00021687
0.000931514
0.00130619
0.000759074
0.00070458
0.000370594
0.000226637
0.000190761
0.000188844
0.000193429
0.000194859
0.000191597
0.00018518
0.000179065
0.000177545
0.000187057
0.000214599
0.000275528
0.000345812
0.000416783
0.000474806
0.000502031
0.000487558
0.000435713
0.000358853
0.000286325
0.000247773
0.000226811
0.000202264
0.00016915
0.000134197
0.000104023
7.82247e-05
4.90686e-05
3.76528e-05
2.79762e-05
4.23756e-05
6.442e-05
0.000103484
0.000251661
0.000424294
0.00107884
0.0015076
0.000891211
0.000949791
0.000497274
0.000278531
0.000214462
0.000199176
0.000197043
0.000198655
0.000200636
0.000203314
0.000209399
0.000224342
0.000254849
0.000309974
0.000396908
0.000498846
0.000585468
0.000630244
0.000620115
0.000556957
0.000460157
0.000350702
0.00025654
0.000203675
0.000170988
0.000143871
0.000120353
0.000101995
8.73361e-05
7.27505e-05
5.68605e-05
4.89901e-05
4.23965e-05
5.38045e-05
7.56809e-05
0.000157245
0.000720886
0.00098459
0.00101779
0.0019235
0.00105564
0.00127978
0.000708224
0.000401333
0.000311382
0.000285949
0.000277095
0.000274759
0.000279461
0.000289959
0.000308188
0.000338942
0.000389708
0.000472614
0.000578579
0.000685302
0.000743352
0.000737614
0.000660772
0.000533654
0.00040057
0.00028721
0.000211286
0.000172113
0.000151545
0.0001391
0.000131537
0.000126498
0.00012077
0.000111601
9.92323e-05
8.84149e-05
8.12845e-05
8.86194e-05
0.000114557
0.000346479
0.00319699
0.00281838
0.000783245
0.000650152
0.0012791
0.00158459
0.000986393
0.000649434
0.000566976
0.000546992
0.000537922
0.000531452
0.000532176
0.000547036
0.00057412
0.000616158
0.000676522
0.000755197
0.000836645
0.000887654
0.000875699
0.000797726
0.000671457
0.000532955
0.000418658
0.000341087
0.000297295
0.0002785
0.00027376
0.000276998
0.000284329
0.000291519
0.000293594
0.000286229
0.00026838
0.000244919
0.000226421
0.000231351
0.00029705
0.00080444
0.0060199
0.00438623
0.00165247
0.00183976
0.001376
0.00123016
0.00124779
0.00127289
0.00127918
0.00127454
0.00126912
0.00127286
0.00128876
0.00131415
0.0013449
0.00137124
0.00137631
0.00134226
0.00126417
0.00116096
0.00105717
0.000969804
0.000905187
0.000865796
0.000848686
0.000850562
0.000868389
0.000898344
0.000934353
0.000967317
0.000985923
0.000979885
0.000945388
0.000890481
0.000837024
0.00082722
0.000965565
0.00167818
0.00550992
0.00302904
0.00447537
0.00432462
0.00365858
0.00327154
0.00318399
0.00315468
0.00311108
0.00305432
0.0029989
0.00295484
0.00293135
0.00293202
0.00295516
0.00299392
0.00303357
0.00305183
0.00302724
0.00295457
0.00285132
0.00274151
0.00264231
0.00256342
0.00251345
0.00249896
0.00252298
0.00258359
0.00267112
0.00276507
0.00283369
0.00283979
0.00275482
0.00257768
0.00234569
0.00213153
0.00206309
0.00244169
0.00334031
0.00196104
0.000958828
0.00117538
0.00170086
0.00211558
0.00212943
0.00210276
0.00208025
0.00206678
0.00206403
0.00207168
0.00208911
0.00211564
0.00214781
0.00218021
0.00220573
0.00221552
0.00220155
0.00216145
0.00210199
0.00203555
0.00197343
0.00192337
0.00188961
0.00187392
0.00187608
0.00189453
0.00192615
0.00196585
0.00200623
0.0020382
0.00205299
0.00204498
0.00201406
0.0019667
0.00191917
0.00190452
0.00196741
0.00211853
0.00209945
0.00132231
)
;

boundaryField
{
    floor
    {
        Cmu             0.09;
        kappa           0.41;
        E               9.8;
        type            epsilonWallFunction;
        value           nonuniform List<scalar> 
29
(
0.000211293
0.00011932
0.000218731
0.000315832
0.000367176
0.000374191
0.000362263
0.00031511
0.00026597
0.00022618
0.000194758
0.000169472
0.000148327
0.000129414
0.000111714
9.39378e-05
7.52749e-05
5.51996e-05
3.34291e-05
2.18334e-05
2.18334e-05
2.75267e-05
3.20343e-05
3.99325e-05
0.000211293
0.00011932
0.000177293
0.000218628
0.000229602
)
;
    }
    ceiling
    {
        Cmu             0.09;
        kappa           0.41;
        E               9.8;
        type            epsilonWallFunction;
        value           nonuniform List<scalar> 
43
(
0.000958828
0.00117538
0.00170086
0.00211558
0.00212943
0.00210276
0.00208025
0.00206678
0.00206403
0.00207168
0.00208911
0.00211564
0.00214781
0.00218021
0.00220573
0.00221552
0.00220155
0.00216145
0.00210199
0.00203555
0.00197343
0.00192337
0.00188961
0.00187392
0.00187608
0.00189453
0.00192615
0.00196585
0.00200623
0.0020382
0.00205299
0.00204498
0.00201406
0.0019667
0.00191917
0.00190452
0.00196741
0.00211853
0.00209945
0.00132231
0.000783245
0.000650152
0.00447537
)
;
    }
    sWall
    {
        Cmu             0.09;
        kappa           0.41;
        E               9.8;
        type            epsilonWallFunction;
        value           uniform 0.000958828;
    }
    nWall
    {
        Cmu             0.09;
        kappa           0.41;
        E               9.8;
        type            epsilonWallFunction;
        value           nonuniform List<scalar> 6(0.00021687 0.000424294 0.00098459 0.00302904 0.00196104 0.00132231);
    }
    sideWalls
    {
        type            empty;
    }
    glass1
    {
        Cmu             0.09;
        kappa           0.41;
        E               9.8;
        type            epsilonWallFunction;
        value           nonuniform List<scalar> 9(0.000159872 0.000216747 0.000453735 0.000607177 0.000768288 0.000931514 0.00107884 0.00101779 0.000783245);
    }
    glass2
    {
        Cmu             0.09;
        kappa           0.41;
        E               9.8;
        type            epsilonWallFunction;
        value           nonuniform List<scalar> 2(0.00281838 0.00438623);
    }
    sun
    {
        Cmu             0.09;
        kappa           0.41;
        E               9.8;
        type            epsilonWallFunction;
        value           nonuniform List<scalar> 
14
(
0.000159872
0.000486309
0.000614054
0.000613127
0.000577839
0.000537127
0.000497686
0.000460024
0.000427388
0.000397705
0.000368591
0.000337734
0.000302645
0.000259807
)
;
    }
    heatsource1
    {
        Cmu             0.09;
        kappa           0.41;
        E               9.8;
        type            epsilonWallFunction;
        value           nonuniform List<scalar> 3(6.46164e-05 9.13766e-05 0.00021687);
    }
    heatsource2
    {
        Cmu             0.09;
        kappa           0.41;
        E               9.8;
        type            epsilonWallFunction;
        value           nonuniform List<scalar> 4(0.000228366 0.000167278 0.000167278 0.000188569);
    }
    Table_master
    {
        Cmu             0.09;
        kappa           0.41;
        E               9.8;
        type            epsilonWallFunction;
        value           nonuniform List<scalar> 9(0.000646622 0.00045387 0.000311221 0.000207524 0.000135079 8.94668e-05 6.56066e-05 5.42368e-05 4.79157e-05);
    }
    Table_slave
    {
        Cmu             0.09;
        kappa           0.41;
        E               9.8;
        type            epsilonWallFunction;
        value           nonuniform List<scalar> 9(0.000777407 0.000578486 0.000453104 0.000363975 0.000292072 0.000231682 0.000178293 0.000130568 8.63432e-05);
    }
    inlet
    {
        type            turbulentMixingLengthDissipationRateInlet;
        mixingLength    0.01;
        phi             phi;
        k               k;
        value           uniform 0.000101881;
    }
    outlet
    {
        type            zeroGradient;
    }
}


// ************************************************************************* //
