// -*- C++ -*-
// File generated by PyFoam - sorry for the ugliness

FoamFile
{
 version 2.0;
 format ascii;
 class volVectorField;
 location "70";
 object U;
}

dimensions [ 0 1 -1 0 0 0 0 ];

internalField nonuniform List<vector> 459
(
  (-0.00668773 0.000536102 0)
  (0.024726 -0.0799361 0)
  (0.101358 -0.0771148 0)
  (0.167621 -0.0562789 0)
  (0.216756 -0.0383841 0)
  (0.246186 -0.0256811 0)
  (0.260169 -0.016877 0)
  (0.264198 -0.0105772 0)
  (0.261148 -0.00548866 0)
  (0.252724 -0.000924283 0)
  (0.239119 0.00370905 0)
  (0.219413 0.00926707 0)
  (0.191234 0.0174994 0)
  (0.146983 0.0341428 0)
  (0.120542 0.0805574 0)
  (-0.083792 0.0116193 0)
  (-0.0327515 -0.00516046 0)
  (-0.0189603 -0.0309902 0)
  (0.0261294 -0.0457808 0)
  (0.0661776 -0.0404041 0)
  (0.105542 -0.0316591 0)
  (0.13491 -0.0193768 0)
  (0.152783 -0.013383 0)
  (0.163253 -0.0120797 0)
  (0.171659 -0.0118094 0)
  (0.179743 -0.0108468 0)
  (0.186274 -0.00899122 0)
  (0.189605 -0.00635949 0)
  (0.18781 -0.00260963 0)
  (0.179493 0.00291151 0)
  (0.161873 0.0114358 0)
  (0.131695 0.0227314 0)
  (0.0710016 0.0394156 0)
  (0.0901906 0.0293203 0)
  (0.100101 0.0156597 0)
  (0.0507397 -0.0964043 0)
  (0.10559 -0.111941 0)
  (0.15675 -0.0801528 0)
  (0.190371 -0.0481172 0)
  (0.208671 -0.0247564 0)
  (0.216038 -0.00869894 0)
  (0.21627 0.00275277 0)
  (0.211016 0.0114028 0)
  (0.202218 0.0186568 0)
  (0.190474 0.025824 0)
  (0.175957 0.0344182 0)
  (0.15928 0.0464953 0)
  (0.141587 0.0654893 0)
  (0.137808 0.101522 0)
  (0.128797 0.0903251 0)
  (0.0805016 0.0790095 0)
  (-0.137048 0.0309269 0)
  (0.0327344 -0.00638247 0)
  (0.0490343 -0.0513792 0)
  (0.0727897 -0.0654963 0)
  (0.100406 -0.0627473 0)
  (0.12686 -0.0516916 0)
  (0.143037 -0.0235188 0)
  (0.146714 -0.00829677 0)
  (0.146296 -0.00525005 0)
  (0.146939 -0.00572632 0)
  (0.148699 -0.00512816 0)
  (0.149991 -0.00230298 0)
  (0.148859 0.00271406 0)
  (0.145523 0.00951432 0)
  (0.140434 0.0191932 0)
  (0.129122 0.0375577 0)
  (0.107448 0.0576354 0)
  (0.0486591 0.0806586 0)
  (0.145191 0.0694591 0)
  (0.185149 -0.0614922 0)
  (0.0364909 -0.132832 0)
  (0.0874683 -0.157379 0)
  (0.126844 -0.114381 0)
  (0.145337 -0.0696872 0)
  (0.151896 -0.0371063 0)
  (0.152289 -0.0148734 0)
  (0.14864 0.00111018 0)
  (0.14369 0.013483 0)
  (0.13826 0.0237049 0)
  (0.132516 0.0334067 0)
  (0.126584 0.0442692 0)
  (0.121032 0.0579533 0)
  (0.115948 0.0757715 0)
  (0.115544 0.0989747 0)
  (0.104616 0.0961647 0)
  (0.0806323 0.123252 0)
  (-0.159553 -0.00224095 0)
  (0.0875759 -0.0637452 0)
  (0.100915 -0.0846555 0)
  (0.111427 -0.0890357 0)
  (0.124875 -0.0850363 0)
  (0.139436 -0.0804231 0)
  (0.152002 -0.0568675 0)
  (0.1332 -0.0366236 0)
  (0.113337 -0.0263103 0)
  (0.100263 -0.0199795 0)
  (0.0909056 -0.0137349 0)
  (0.0843452 -0.00676856 0)
  (0.0832563 0.000135185 0)
  (0.0891703 0.00669903 0)
  (0.104128 0.0165172 0)
  (0.10936 0.0499434 0)
  (0.0968944 0.0813235 0)
  (0.0334884 0.114556 0)
  (0.189175 0.115693 0)
  (0.194231 -0.0865564 0)
  (-0.0217358 -0.151843 0)
  (0.0493745 -0.193349 0)
  (0.0789106 -0.131204 0)
  (0.0856724 -0.0734736 0)
  (0.0831047 -0.034355 0)
  (0.0791813 -0.00931875 0)
  (0.076385 0.007175 0)
  (0.0758544 0.0185567 0)
  (0.0763675 0.0276789 0)
  (0.0775568 0.0365605 0)
  (0.0794205 0.0466067 0)
  (0.0823858 0.0588519 0)
  (0.0868232 0.0739035 0)
  (0.0969449 0.0926692 0)
  (0.112672 0.103704 0)
  (0.134069 0.131329 0)
  (0.17567 0.0484207 0)
  (0.165588 -0.00141399 0)
  (0.163544 -0.0530926 0)
  (0.15098 -0.0803274 0)
  (0.13875 -0.0869435 0)
  (0.127644 -0.0834295 0)
  (0.111743 -0.0754795 0)
  (0.10415 -0.0422445 0)
  (0.121113 -0.025534 0)
  (0.133462 -0.0173365 0)
  (0.137855 -0.0130475 0)
  (0.138526 -0.0101435 0)
  (0.136422 -0.00708697 0)
  (0.130502 -0.00268468 0)
  (0.117987 0.00427518 0)
  (0.0883545 0.013723 0)
  (0.0770969 0.0602137 0)
  (0.0789215 0.0979479 0)
  (0.0204417 0.135457 0)
  (0.225864 0.168974 0)
  (0.183306 -0.0816537 0)
  (-0.064425 -0.158663 0)
  (0.00537149 -0.22213 0)
  (0.0242671 -0.136267 0)
  (0.0250381 -0.0680959 0)
  (0.0197943 -0.028366 0)
  (0.0172509 -0.0061186 0)
  (0.0190515 0.00718876 0)
  (0.0228652 0.0163591 0)
  (0.0276579 0.0242667 0)
  (0.0333853 0.0322927 0)
  (0.0402159 0.0412036 0)
  (0.0487454 0.0515351 0)
  (0.0599362 0.0634986 0)
  (0.077108 0.0770726 0)
  (0.100675 0.0846452 0)
  (0.130928 0.084036 0)
  (0.157706 0.0226746 0)
  (0.164049 -0.0210355 0)
  (0.15843 -0.0536658 0)
  (0.145214 -0.0702687 0)
  (0.12865 -0.0734864 0)
  (0.11166 -0.0678398 0)
  (0.0949272 -0.0542164 0)
  (0.0864348 -0.0255343 0)
  (0.0876695 -0.00853153 0)
  (0.0885842 -0.00156017 0)
  (0.085215 0.00202675 0)
  (0.0785028 0.00592028 0)
  (0.0698434 0.0111355 0)
  (0.0592774 0.0177117 0)
  (0.0487912 0.025277 0)
  (0.0340704 0.0341564 0)
  (0.0383621 0.0676899 0)
  (0.0592039 0.100405 0)
  (0.0271178 0.128844 0)
  (0.154031 0.170947 0)
  (0.119207 0.130069 0)
  (-0.0522816 0.0793622 0)
  (0.230729 -0.0145136 0)
  (0.157726 -0.0578984 0)
  (-0.0878458 -0.160168 0)
  (-0.0393656 -0.237225 0)
  (-0.0248429 -0.140896 0)
  (-0.022481 -0.0662269 0)
  (-0.0235941 -0.0285554 0)
  (-0.022521 -0.00927335 0)
  (-0.0186728 0.00206786 0)
  (-0.013348 0.0101507 0)
  (-0.0070923 0.0171503 0)
  (0.000493088 0.0241841 0)
  (0.00959586 0.0316298 0)
  (0.0206045 0.0395584 0)
  (0.0344667 0.0476479 0)
  (0.0528881 0.0546922 0)
  (0.0757741 0.0549871 0)
  (0.10339 0.0438332 0)
  (0.123739 0.00870321 0)
  (0.128872 -0.0213888 0)
  (0.122654 -0.0425677 0)
  (0.109235 -0.0540172 0)
  (0.0921483 -0.0559282 0)
  (0.0741537 -0.0503315 0)
  (0.057081 -0.0383995 0)
  (0.0447451 -0.0200373 0)
  (0.0380399 -0.00670432 0)
  (0.0310264 0.00122924 0)
  (0.0230363 0.00719956 0)
  (0.0140999 0.0132474 0)
  (0.0052803 0.0194127 0)
  (-0.000880386 0.0246237 0)
  (-0.0035149 0.0292211 0)
  (-0.00763481 0.0350794 0)
  (0.00117184 0.0571505 0)
  (0.0282412 0.0859847 0)
  (0.00881207 0.0996014 0)
  (0.0785436 0.131819 0)
  (0.0697549 0.0973503 0)
  (-0.0783658 0.0812798 0)
  (0.264133 -0.0213006 0)
  (0.135546 -0.0316766 0)
  (-0.110578 -0.159443 0)
  (-0.0687763 -0.258109 0)
  (-0.0544813 -0.153791 0)
  (-0.0500745 -0.0711986 0)
  (-0.0480131 -0.0320886 0)
  (-0.045897 -0.0134748 0)
  (-0.0425106 -0.00331294 0)
  (-0.0374094 0.00379096 0)
  (-0.0314071 0.00970043 0)
  (-0.0240788 0.01522 0)
  (-0.0151562 0.02067 0)
  (-0.00422021 0.0260519 0)
  (0.00977393 0.0309047 0)
  (0.0264942 0.0336121 0)
  (0.0458642 0.030961 0)
  (0.0662398 0.0207393 0)
  (0.0788417 0.000607734 0)
  (0.08016 -0.0184272 0)
  (0.0725296 -0.0321336 0)
  (0.0586154 -0.0389533 0)
  (0.0413155 -0.0387332 0)
  (0.0230029 -0.0328199 0)
  (0.00537144 -0.0223456 0)
  (-0.0093432 -0.00805485 0)
  (-0.0207453 0.00313739 0)
  (-0.0283311 0.0102091 0)
  (-0.034697 0.0154845 0)
  (-0.0396658 0.0199594 0)
  (-0.0422577 0.0232498 0)
  (-0.0420881 0.0251654 0)
  (-0.0400363 0.0268755 0)
  (-0.0382643 0.0308195 0)
  (-0.030671 0.0438584 0)
  (-0.0103787 0.0654381 0)
  (-0.0188681 0.0763808 0)
  (0.0290219 0.111836 0)
  (0.0427107 0.107808 0)
  (-0.109677 0.102465 0)
  (0.302182 -0.0270965 0)
  (0.251137 0.0227393 0)
  (-0.109336 -0.128771 0)
  (-0.0709732 -0.282107 0)
  (-0.0565274 -0.16879 0)
  (-0.0586169 -0.0730049 0)
  (-0.0597134 -0.0327202 0)
  (-0.0606056 -0.0155246 0)
  (-0.0595357 -0.00706109 0)
  (-0.0564329 -0.00150109 0)
  (-0.0516849 0.00315371 0)
  (-0.0457269 0.00729242 0)
  (-0.0383357 0.0110037 0)
  (-0.0293572 0.0141938 0)
  (-0.0185099 0.0165922 0)
  (-0.00592027 0.0174248 0)
  (0.00805897 0.0148338 0)
  (0.0198344 0.00814154 0)
  (0.0247039 -0.002907 0)
  (0.0226716 -0.0136037 0)
  (0.0136076 -0.0210171 0)
  (-0.000923524 -0.0235153 0)
  (-0.0182064 -0.0208755 0)
  (-0.0354098 -0.0144705 0)
  (-0.0509875 -0.0056685 0)
  (-0.0634139 0.00353414 0)
  (-0.0701191 0.0101739 0)
  (-0.0739913 0.0148703 0)
  (-0.0759682 0.0183981 0)
  (-0.0759208 0.0207494 0)
  (-0.0738683 0.0217763 0)
  (-0.0702702 0.021851 0)
  (-0.0660718 0.0222337 0)
  (-0.061936 0.025216 0)
  (-0.0547641 0.0346389 0)
  (-0.0408533 0.0505075 0)
  (-0.0354058 0.0641226 0)
  (-0.00243078 0.096534 0)
  (0.0377077 0.113423 0)
  (-0.112876 0.10046 0)
  (0.536262 0.0285908 0)
  (0.416514 0.207016 0)
  (-0.022241 0.0692634 0)
  (-0.0487989 -0.26985 0)
  (-0.03076 -0.162099 0)
  (-0.0527729 -0.0571056 0)
  (-0.0667777 -0.0224376 0)
  (-0.0748113 -0.010439 0)
  (-0.0776559 -0.00539466 0)
  (-0.0774036 -0.00219272 0)
  (-0.0751672 0.000601476 0)
  (-0.0715101 0.0032407 0)
  (-0.0668717 0.00559569 0)
  (-0.061214 0.00748793 0)
  (-0.0547005 0.00873599 0)
  (-0.0477136 0.00897475 0)
  (-0.0410936 0.0077044 0)
  (-0.0366651 0.00460556 0)
  (-0.0365755 -0.000324908 0)
  (-0.0410113 -0.0049994 0)
  (-0.0502697 -0.00737943 0)
  (-0.0626246 -0.00684583 0)
  (-0.0760988 -0.00393209 0)
  (-0.0885822 0.000439435 0)
  (-0.0979095 0.00527697 0)
  (-0.102787 0.00967155 0)
  (-0.104759 0.0132077 0)
  (-0.104697 0.0159319 0)
  (-0.102958 0.0177903 0)
  (-0.0997416 0.0186497 0)
  (-0.095398 0.018597 0)
  (-0.0904521 0.0181634 0)
  (-0.0854271 0.0184215 0)
  (-0.0801726 0.020999 0)
  (-0.0727898 0.0278538 0)
  (-0.0613302 0.0389305 0)
  (-0.0491789 0.0511983 0)
  (-0.0236374 0.074316 0)
  (0.0254805 0.0958039 0)
  (-0.106123 0.0717497 0)
  (0.532207 0.0502527 0)
  (-0.0108043 -0.16997 0)
  (-0.00458965 -0.116647 0)
  (-0.0564633 -0.0159196 0)
  (-0.0855495 0.00486942 0)
  (-0.0972649 0.00813535 0)
  (-0.102047 0.00861021 0)
  (-0.104115 0.0095035 0)
  (-0.104608 0.0109896 0)
  (-0.103943 0.0126462 0)
  (-0.102466 0.013952 0)
  (-0.100544 0.0150027 0)
  (-0.0984364 0.0159166 0)
  (-0.0965064 0.0166444 0)
  (-0.0953003 0.0170723 0)
  (-0.0956319 0.017092 0)
  (-0.0983067 0.0167879 0)
  (-0.102993 0.0168865 0)
  (-0.109287 0.0181696 0)
  (-0.115911 0.0204674 0)
  (-0.12151 0.0230471 0)
  (-0.125224 0.0252733 0)
  (-0.127043 0.0270806 0)
  (-0.127029 0.0284282 0)
  (-0.125538 0.0292642 0)
  (-0.122851 0.0295459 0)
  (-0.119202 0.0292339 0)
  (-0.114868 0.028344 0)
  (-0.110199 0.0270596 0)
  (-0.105526 0.0258 0)
  (-0.100964 0.0252167 0)
  (-0.0960538 0.0261281 0)
  (-0.0895545 0.0292385 0)
  (-0.0802457 0.0343927 0)
  (-0.0677714 0.0412469 0)
  (-0.0470545 0.0543603 0)
  (-0.0205141 0.0688901 0)
  (-0.120238 0.0455419 0)
  (0.319658 0.0689285 0)
  (-0.196513 -0.134321 0)
  (-0.097515 -0.0988645 0)
  (-0.119959 -0.0922935 0)
  (-0.125388 -0.0931744 0)
  (-0.127591 -0.0955111 0)
  (-0.130208 -0.097146 0)
  (-0.133084 -0.0975181 0)
  (-0.135506 -0.0968247 0)
  (-0.137136 -0.0953116 0)
  (-0.137958 -0.0931256 0)
  (-0.138185 -0.0907738 0)
  (-0.137985 -0.0887455 0)
  (-0.137543 -0.0874389 0)
  (-0.13716 -0.0872986 0)
  (-0.137258 -0.0886769 0)
  (-0.138222 -0.0914816 0)
  (-0.140033 -0.0948593 0)
  (-0.14222 -0.0978271 0)
  (-0.144098 -0.0999023 0)
  (-0.145177 -0.100897 0)
  (-0.145253 -0.100758 0)
  (-0.14427 -0.0996058 0)
  (-0.142221 -0.0978133 0)
  (-0.139202 -0.0958706 0)
  (-0.135391 -0.0942508 0)
  (-0.131061 -0.0933109 0)
  (-0.126565 -0.0932164 0)
  (-0.122273 -0.0938492 0)
  (-0.118456 -0.0947461 0)
  (-0.115122 -0.0951067 0)
  (-0.111856 -0.0939301 0)
  (-0.107726 -0.0903725 0)
  (-0.10126 -0.0839594 0)
  (-0.0902664 -0.0734595 0)
  (-0.0729084 -0.05613 0)
  (-0.059306 -0.0392947 0)
  (-0.0940497 -0.057102 0)
  (0.242009 -0.052479 0)
  (-0.244896 -0.165587 0)
  (-0.157154 0.0431387 0)
  (-0.142622 0.346947 0)
  (-0.151495 0.292975 0)
  (-0.159811 0.290663 0)
  (-0.162049 0.292692 0)
  (-0.163664 0.294284 0)
  (-0.165901 0.294963 0)
  (-0.168568 0.294694 0)
  (-0.171259 0.293739 0)
  (-0.173647 0.292323 0)
  (-0.175455 0.290652 0)
  (-0.176485 0.289281 0)
  (-0.17662 0.288756 0)
  (-0.175818 0.289543 0)
  (-0.174165 0.292029 0)
  (-0.171929 0.296336 0)
  (-0.169482 0.302095 0)
  (-0.167069 0.308445 0)
  (-0.164682 0.314423 0)
  (-0.162193 0.319364 0)
  (-0.159499 0.322917 0)
  (-0.156533 0.324989 0)
  (-0.153234 0.325734 0)
  (-0.149567 0.325537 0)
  (-0.145575 0.32486 0)
  (-0.141389 0.32415 0)
  (-0.137207 0.323794 0)
  (-0.133252 0.324074 0)
  (-0.129696 0.325104 0)
  (-0.126561 0.326785 0)
  (-0.123643 0.32881 0)
  (-0.120451 0.330748 0)
  (-0.116078 0.332143 0)
  (-0.108961 0.332334 0)
  (-0.0974038 0.330171 0)
  (-0.0839684 0.325792 0)
  (-0.0836105 0.326617 0)
  (-0.100514 0.354414 0)
  (0.283965 0.414977 0)
)
;

boundaryField
{
  floor
  {
    type noSlip;
  }
  ceiling
  {
    type noSlip;
  }
  sWall
  {
    type noSlip;
  }
  nWall
  {
    type noSlip;
  }
  sideWalls
  {
    type empty;
  }
  glass1
  {
    type noSlip;
  }
  glass2
  {
    type noSlip;
  }
  sun
  {
    type noSlip;
  }
  heatsource1
  {
    type noSlip;
  }
  heatsource2
  {
    type noSlip;
  }
  Table_master
  {
    type noSlip;
  }
  Table_slave
  {
    type noSlip;
  }
  inlet
  {
    type fixedValue;
    value uniform (0.277164 -0.114805 0);
  }
  outlet
  {
    type zeroGradient;
  }
} 	// ************************************************************************* //

