// -*- C++ -*-
// File generated by PyFoam - sorry for the ugliness

FoamFile
{
 version 2.0;
 format ascii;
 class volScalarField;
 location "510";
 object T;
}

dimensions [ 0 0 0 1 0 0 0 ];

internalField nonuniform List<scalar> 459
(
  302.085
  302.01
  302.009
  302.01
  302.01
  302.011
  302.011
  302.011
  302.011
  302.013
  302.019
  302.031
  302.036
  302.035
  302.025
  302.072
  302.118
  302.144
  302.159
  302.17
  302.179
  302.182
  302.184
  302.185
  302.186
  302.187
  302.187
  302.188
  302.188
  302.188
  302.189
  302.188
  302.187
  302.17
  302.131
  302.024
  302.019
  302.021
  302.022
  302.021
  302.02
  302.015
  302.011
  302.011
  302.019
  302.035
  302.047
  302.05
  302.044
  302.048
  302.05
  302.109
  302.133
  302.152
  302.173
  302.192
  302.206
  302.211
  302.214
  302.217
  302.219
  302.221
  302.223
  302.224
  302.225
  302.225
  302.222
  302.217
  302.208
  302.198
  302.179
  302.037
  302.028
  302.031
  302.034
  302.035
  302.032
  302.021
  302.008
  302.002
  302.013
  302.035
  302.053
  302.062
  302.061
  302.06
  302.058
  302.105
  302.128
  302.157
  302.186
  302.213
  302.234
  302.235
  302.236
  302.238
  302.24
  302.242
  302.244
  302.246
  302.247
  302.247
  302.246
  302.239
  302.226
  302.214
  302.229
  302.052
  302.038
  302.044
  302.052
  302.057
  302.054
  302.033
  302.006
  301.993
  302.005
  302.034
  302.06
  302.076
  302.08
  302.078
  302.072
  302.078
  302.1
  302.133
  302.172
  302.212
  302.247
  302.275
  302.3
  302.319
  302.335
  302.349
  302.361
  302.371
  302.38
  302.387
  302.391
  302.351
  302.308
  302.267
  302.237
  302.279
  302.071
  302.048
  302.056
  302.071
  302.086
  302.081
  302.048
  302.005
  301.984
  301.998
  302.033
  302.07
  302.096
  302.108
  302.108
  302.108
  302.122
  302.148
  302.184
  302.224
  302.264
  302.3
  302.33
  302.358
  302.379
  302.395
  302.409
  302.42
  302.427
  302.431
  302.432
  302.427
  302.405
  302.366
  302.318
  302.274
  302.275
  302.28
  302.326
  302.327
  302.096
  302.064
  302.068
  302.086
  302.113
  302.102
  302.054
  302.001
  301.976
  301.991
  302.036
  302.088
  302.127
  302.148
  302.155
  302.163
  302.182
  302.212
  302.249
  302.288
  302.326
  302.36
  302.388
  302.411
  302.429
  302.442
  302.452
  302.459
  302.463
  302.464
  302.461
  302.454
  302.437
  302.408
  302.37
  302.327
  302.312
  302.305
  302.334
  302.372
  302.138
  302.101
  302.098
  302.114
  302.135
  302.108
  302.045
  301.983
  301.96
  301.987
  302.048
  302.117
  302.171
  302.202
  302.218
  302.232
  302.256
  302.286
  302.321
  302.357
  302.39
  302.419
  302.441
  302.457
  302.468
  302.476
  302.48
  302.482
  302.483
  302.481
  302.477
  302.469
  302.456
  302.435
  302.407
  302.372
  302.348
  302.333
  302.345
  302.437
  302.252
  302.206
  302.186
  302.192
  302.169
  302.096
  302.004
  301.94
  301.935
  301.99
  302.078
  302.168
  302.233
  302.271
  302.292
  302.309
  302.333
  302.363
  302.393
  302.422
  302.447
  302.465
  302.478
  302.486
  302.49
  302.492
  302.491
  302.489
  302.487
  302.483
  302.478
  302.472
  302.461
  302.446
  302.426
  302.402
  302.382
  302.367
  302.435
  302.527
  302.44
  302.378
  302.326
  302.276
  302.145
  301.99
  301.882
  301.855
  301.91
  302.021
  302.145
  302.252
  302.314
  302.346
  302.366
  302.385
  302.407
  302.43
  302.451
  302.47
  302.483
  302.491
  302.496
  302.497
  302.496
  302.494
  302.49
  302.486
  302.481
  302.476
  302.47
  302.463
  302.458
  302.453
  302.452
  302.455
  302.466
  302.481
  302.524
  300.734
  301.001
  301.093
  301.201
  301.357
  301.551
  301.758
  301.958
  302.146
  302.278
  302.351
  302.391
  302.413
  302.429
  302.445
  302.461
  302.475
  302.486
  302.493
  302.498
  302.499
  302.499
  302.497
  302.494
  302.491
  302.487
  302.483
  302.479
  302.476
  302.472
  302.47
  302.468
  302.467
  302.47
  302.476
  302.488
  302.507
  302.546
  300.789
  301.066
  301.257
  301.479
  301.688
  301.902
  302.073
  302.211
  302.315
  302.381
  302.419
  302.442
  302.456
  302.468
  302.477
  302.486
  302.492
  302.496
  302.498
  302.498
  302.497
  302.496
  302.494
  302.492
  302.49
  302.488
  302.486
  302.484
  302.482
  302.48
  302.478
  302.477
  302.477
  302.478
  302.482
  302.49
  302.504
  302.531
  301.347
  301.329
  301.328
  301.607
  301.84
  302.037
  302.168
  302.257
  302.325
  302.376
  302.414
  302.438
  302.453
  302.463
  302.47
  302.474
  302.478
  302.48
  302.48
  302.48
  302.479
  302.478
  302.476
  302.475
  302.473
  302.472
  302.472
  302.471
  302.471
  302.471
  302.472
  302.472
  302.473
  302.474
  302.475
  302.477
  302.479
  302.484
  302.487
  302.525
)
;

boundaryField
{
  floor
  {
    type wallHeatTransfer;
    Tinf uniform 300.35;
    alphaWall uniform 0.24;
    value nonuniform List<scalar> 29
(
  301.787
  301.728
  301.836
  301.873
  301.89
  301.899
  301.902
  301.895
  301.884
  301.872
  301.859
  301.847
  301.836
  301.825
  301.814
  301.802
  301.79
  301.775
  301.748
  301.703
  301.703
  301.772
  301.805
  301.852
  301.787
  301.728
  301.842
  301.862
  301.882
)
;
  }
  ceiling
  {
    type wallHeatTransfer;
    Tinf uniform 300.35;
    alphaWall uniform 0.24;
    value nonuniform List<scalar> 43
(
  301.259
  301.246
  301.248
  301.516
  301.733
  301.913
  302.031
  302.112
  302.171
  302.213
  302.241
  302.258
  302.268
  302.274
  302.28
  302.284
  302.287
  302.289
  302.289
  302.288
  302.287
  302.285
  302.283
  302.281
  302.279
  302.276
  302.272
  302.268
  302.263
  302.258
  302.254
  302.251
  302.25
  302.25
  302.252
  302.255
  302.26
  302.262
  302.26
  302.288
  302.385
  302.322
  300.746
)
;
  }
  sWall
  {
    type wallHeatTransfer;
    Tinf uniform 306.167;
    alphaWall uniform 0.36;
    value uniform 301.955;
  }
  nWall
  {
    type wallHeatTransfer;
    Tinf uniform 305.15;
    alphaWall uniform 0.36;
    value nonuniform List<scalar> 6
(
  303.023
  302.906
  302.85
  302.914
  302.882
  302.932
)
;
  }
  sideWalls
  {
    type empty;
  }
  glass1
  {
    type wallHeatTransfer;
    Tinf uniform 306.167;
    alphaWall uniform 4.3;
    value nonuniform List<scalar> 9
(
  305.077
  304.916
  304.805
  304.715
  304.636
  304.559
  304.494
  304.502
  304.556
)
;
  }
  glass2
  {
    type wallHeatTransfer;
    Tinf uniform 305.15;
    alphaWall uniform 4.3;
    value nonuniform List<scalar> 2
(
  304.264
  304.278
)
;
  }
  sun
  {
    type wallHeatTransfer;
    Tinf uniform 300.35;
    alphaWall uniform 0.24;
    value nonuniform List<scalar> 14
(
  301.856
  301.807
  301.812
  301.82
  301.828
  301.835
  301.841
  301.846
  301.849
  301.851
  301.855
  301.855
  301.844
  301.821
)
;
  }
  heatsource1
  {
    type fixedGradient;
    gradient uniform 0;
  }
  heatsource2
  {
    type fixedGradient;
    gradient uniform 0;
  }
  Table_master
  {
    type zeroGradient;
  }
  Table_slave
  {
    type zeroGradient;
  }
  inlet
  {
    type fixedValue;
    value uniform 300.15;
  }
  outlet
  {
    type zeroGradient;
  }
} 	// ************************************************************************* //

