/*--------------------------------*- C++ -*----------------------------------*\
  =========                 |
  \\      /  F ield         | OpenFOAM: The Open Source CFD Toolbox
   \\    /   O peration     | Website:  https://openfoam.org
    \\  /    A nd           | Version:  6
     \\/     M anipulation  |
\*---------------------------------------------------------------------------*/
FoamFile
{
    version     2.0;
    format      ascii;
    class       volScalarField;
    location    "400";
    object      nut;
}
// * * * * * * * * * * * * * * * * * * * * * * * * * * * * * * * * * * * * * //

dimensions      [0 2 -1 0 0 0 0];

internalField   nonuniform List<scalar> 
459
(
0.000783993
0.000827848
0.000826694
0.000854206
0.00087722
0.000896507
0.000913086
0.000927922
0.000942029
0.000954344
0.000961436
0.000961615
0.00095449
0.000942786
0.000930029
0.00051514
0.000500018
0.000479805
0.000461598
0.000445196
0.000429892
0.000415224
0.00040162
0.000389169
0.000377789
0.000367292
0.000357514
0.000348286
0.000339385
0.00033047
0.000321017
0.000310075
0.000301425
0.000279415
0.00113906
0.00196941
0.00172403
0.00197051
0.00213416
0.00230622
0.00247561
0.00262673
0.00273624
0.00280219
0.0028303
0.00278753
0.00262689
0.00228266
0.00167066
0.000942248
0.000836408
0.000648441
0.000806852
0.000895284
0.000953829
0.000983544
0.000984036
0.00090372
0.000850261
0.00080751
0.000768102
0.000731114
0.000695514
0.000659499
0.000620039
0.000574912
0.000534345
0.000500454
0.000599123
0.000350531
0.00145826
0.0027841
0.0019283
0.00265436
0.00285202
0.00299106
0.00309175
0.0031662
0.00322334
0.00327027
0.00330842
0.00331139
0.00325009
0.0031015
0.002832
0.00228414
0.00101554
0.000732899
0.00103125
0.00116933
0.00127328
0.0013504
0.00131701
0.000485104
0.00044744
0.000416257
0.000390512
0.000369168
0.000351375
0.000336556
0.000324488
0.000315527
0.000352197
0.000412973
0.00068047
0.000405278
0.00178921
0.00401019
0.00182452
0.00288579
0.00313008
0.00319561
0.00320412
0.00319683
0.00320385
0.00323491
0.00328023
0.00330834
0.00328963
0.00321441
0.003101
0.00297099
0.00276717
0.000863064
0.00122262
0.00139729
0.001515
0.00163536
0.00175249
0.00169602
0.000538016
0.000524434
0.000519308
0.000516007
0.000509668
0.000497344
0.00048395
0.000467622
0.000445475
0.000418899
0.000426145
0.000795588
0.00045094
0.00213631
0.0057237
0.00207984
0.00272454
0.00319259
0.00322876
0.00317416
0.00310849
0.00308966
0.00312979
0.00320821
0.00327032
0.00327035
0.00318191
0.00301745
0.0028598
0.00279651
0.00252108
0.00213417
0.00194924
0.00191093
0.00197825
0.00208307
0.0021674
0.00209877
0.00212325
0.00215717
0.00216879
0.00214212
0.00206306
0.00187873
0.00162395
0.00132297
0.000995281
0.000732645
0.000780152
0.000558986
0.000607766
0.000728205
0.000807236
0.00250267
0.00764198
0.00342233
0.00236255
0.00296931
0.00314958
0.00313194
0.00304047
0.0029802
0.00304219
0.00317284
0.00327259
0.00329193
0.0031877
0.00296342
0.00273632
0.00263189
0.00245482
0.0021796
0.00204547
0.00203553
0.00208763
0.00218695
0.00231281
0.00243269
0.00254051
0.00261806
0.0026567
0.00265342
0.00260702
0.0024755
0.00224718
0.00192263
0.00152101
0.00114431
0.000858339
0.000702972
0.00065862
0.00100213
0.000836529
0.00288074
0.00923365
0.00619655
0.00323648
0.00250074
0.00252003
0.00273858
0.00293465
0.00293752
0.00306714
0.00321181
0.00331122
0.00332534
0.00319765
0.00292816
0.00264754
0.00252959
0.00238893
0.00214733
0.00205997
0.00203458
0.00207947
0.00218791
0.00232164
0.00245713
0.00257711
0.00266283
0.00271513
0.00273695
0.00273366
0.00270269
0.00252897
0.00222711
0.00184228
0.00148344
0.0011522
0.000951997
0.000913092
0.000984351
0.000895211
0.00298433
0.00920963
0.00755526
0.00594437
0.00446563
0.00351314
0.0031356
0.00316746
0.00323952
0.00328812
0.00334834
0.0033967
0.00337261
0.00318799
0.0028454
0.00251485
0.00243063
0.00233912
0.00211698
0.002006
0.00196452
0.00201874
0.00211687
0.00222583
0.00233039
0.00242117
0.00249207
0.00254679
0.00259386
0.00264525
0.00270972
0.00273091
0.00248588
0.00216588
0.00190095
0.0017876
0.00190077
0.00240479
0.00330266
0.00147622
0.00293795
0.00358402
0.00404383
0.00421048
0.00412544
0.00386407
0.00361806
0.00349032
0.00342278
0.00342326
0.00345745
0.00347357
0.00339064
0.00309708
0.00264417
0.00227004
0.00228369
0.00224669
0.00202022
0.00186425
0.00182657
0.00186956
0.00193838
0.00200919
0.00207126
0.00211818
0.0021462
0.00215398
0.00214102
0.00210699
0.0020523
0.00198019
0.00191197
0.00187534
0.00189603
0.00196531
0.00201927
0.00199006
0.00188007
0.00138047
0.00209653
0.00359696
0.00396512
0.00399246
0.00392821
0.00386892
0.00382091
0.0037606
0.00367668
0.00353835
0.00327911
0.00278553
0.00221944
0.00184215
0.00204831
0.00209879
0.00180798
0.00163055
0.00159043
0.00161427
0.00165733
0.00170286
0.00174357
0.00177568
0.00179765
0.00181009
0.00181577
0.00181974
0.00182914
0.00185305
0.00188387
0.0019274
0.00198144
0.00202192
0.00200626
0.00191287
0.00174555
0.00113727
0.00223789
0.00415288
0.00442856
0.0043467
0.00422123
0.00407754
0.00391081
0.00369282
0.00338392
0.00302171
0.0025933
0.00201217
0.00149073
0.0011625
0.00146248
0.00142577
0.00123138
0.00112811
0.00111574
0.00114411
0.0011911
0.00124891
0.00131451
0.00138651
0.00146398
0.0015457
0.00162939
0.00171093
0.00178738
0.00187102
0.00196223
0.00205961
0.00215388
0.00223118
0.00225061
0.00232426
0.00224015
0.00115152
0.00194966
0.00205886
0.00214936
0.00229241
0.00217272
0.00201854
0.00185881
0.0017098
0.00156046
0.00141922
0.00130054
0.00118872
0.00107397
0.000936511
0.000553334
0.000468798
0.000466165
0.000466233
0.000473283
0.000489369
0.00050998
0.000533246
0.00055841
0.000585156
0.000613362
0.000643041
0.00067434
0.000707592
0.000743427
0.000782971
0.000827632
0.000876481
0.000930296
0.000990106
0.00105692
0.00114198
0.0011734
0.00115054
0.00107889
0.00100216
)
;

boundaryField
{
    floor
    {
        type            nutkWallFunction;
        Cmu             0.09;
        kappa           0.41;
        E               9.8;
        value           nonuniform List<scalar> 
29
(
0.000112453
6.16527e-05
5.97176e-05
5.71262e-05
5.47813e-05
5.26593e-05
5.06704e-05
4.87558e-05
4.69724e-05
4.53333e-05
4.38294e-05
4.24369e-05
4.11353e-05
3.99026e-05
3.87096e-05
3.75105e-05
3.62347e-05
3.47515e-05
3.35741e-05
3.05577e-05
3.05577e-05
4.02019e-05
4.74515e-05
5.34026e-05
0.000112453
6.16526e-05
7.83737e-05
8.87513e-05
0.000104477
)
;
    }
    ceiling
    {
        type            nutkWallFunction;
        Cmu             0.09;
        kappa           0.41;
        E               9.8;
        value           nonuniform List<scalar> 
43
(
0.000227798
0.000239679
0.000249477
0.000264964
0.00025211
0.000235416
0.000217964
0.000201532
0.000184905
0.000169017
0.000155532
0.000142701
0.000129391
0.000113242
6.65269e-05
5.57163e-05
5.53747e-05
5.53842e-05
5.62912e-05
5.83561e-05
6.09899e-05
6.39474e-05
6.71285e-05
7.04906e-05
7.40161e-05
7.77045e-05
8.15722e-05
8.56578e-05
9.00352e-05
9.48369e-05
0.000100226
0.000106081
0.000112488
0.000119559
0.000127399
0.000137301
0.000140938
0.000138293
0.000129966
0.000120978
0.000333625
0.000400555
0.000258937
)
;
    }
    sWall
    {
        type            nutkWallFunction;
        Cmu             0.09;
        kappa           0.41;
        E               9.8;
        value           uniform 0.00022786;
    }
    nWall
    {
        type            nutkWallFunction;
        Cmu             0.09;
        kappa           0.41;
        E               9.8;
        value           nonuniform List<scalar> 6(9.77697e-05 0.000101297 0.000108319 0.000136765 0.000138415 0.000120985);
    }
    sideWalls
    {
        type            empty;
    }
    glass1
    {
        type            nutkWallFunction;
        Cmu             0.09;
        kappa           0.41;
        E               9.8;
        value           nonuniform List<scalar> 9(9.49545e-05 0.000137086 0.000173658 0.000210638 0.000248625 0.000288007 0.000328014 0.000338887 0.000334042);
    }
    glass2
    {
        type            nutkWallFunction;
        Cmu             0.09;
        kappa           0.41;
        E               9.8;
        value           nonuniform List<scalar> 2(0.000175538 0.000164707);
    }
    sun
    {
        type            nutkWallFunction;
        Cmu             0.09;
        kappa           0.41;
        E               9.8;
        value           nonuniform List<scalar> 
14
(
9.49573e-05
0.000100248
0.000100109
0.000103412
0.000106165
0.000108466
0.000110439
0.000112202
0.000113874
0.000115332
0.00011617
0.000116192
0.00011535
0.000113965
)
;
    }
    heatsource1
    {
        type            nutkWallFunction;
        Cmu             0.09;
        kappa           0.41;
        E               9.8;
        value           nonuniform List<scalar> 3(7.33193e-05 8.8179e-05 9.77687e-05);
    }
    heatsource2
    {
        type            nutkWallFunction;
        Cmu             0.09;
        kappa           0.41;
        E               9.8;
        value           nonuniform List<scalar> 4(0.000113899 0.000101279 0.000101279 0.000122544);
    }
    Table_master
    {
        type            nutkWallFunction;
        Cmu             0.09;
        kappa           0.41;
        E               9.8;
        value           nonuniform List<scalar> 9(5.78109e-05 5.29558e-05 4.88976e-05 4.55181e-05 4.26949e-05 4.03255e-05 3.83404e-05 3.67155e-05 3.55038e-05);
    }
    Table_slave
    {
        type            nutkWallFunction;
        Cmu             0.09;
        kappa           0.41;
        E               9.8;
        value           nonuniform List<scalar> 9(6.45528e-05 6.28303e-05 6.21788e-05 6.17589e-05 6.09515e-05 5.9378e-05 5.76624e-05 5.55631e-05 5.27009e-05);
    }
    inlet
    {
        type            calculated;
        value           uniform 0.000100623;
    }
    outlet
    {
        type            calculated;
        value           nonuniform List<scalar> 2(0.00194966 0.00205886);
    }
}


// ************************************************************************* //
