/*--------------------------------*- C++ -*----------------------------------*\
  =========                 |
  \\      /  F ield         | OpenFOAM: The Open Source CFD Toolbox
   \\    /   O peration     | Website:  https://openfoam.org
    \\  /    A nd           | Version:  6
     \\/     M anipulation  |
\*---------------------------------------------------------------------------*/
FoamFile
{
    version     2.0;
    format      ascii;
    class       volScalarField;
    location    "100";
    object      nut;
}
// * * * * * * * * * * * * * * * * * * * * * * * * * * * * * * * * * * * * * //

dimensions      [0 2 -1 0 0 0 0];

internalField   nonuniform List<scalar> 
459
(
0.000719442
0.000744625
0.000725666
0.000749064
0.000769601
0.000787125
0.000802295
0.000815851
0.000828579
0.00084134
0.000851213
0.000857433
0.00086001
0.000860448
0.000859036
0.000691702
0.000657861
0.000627481
0.000613158
0.000605111
0.000591637
0.00056565
0.000539048
0.000513649
0.000489594
0.000467096
0.000446249
0.00042704
0.000409343
0.000392865
0.000377107
0.000361573
0.000358957
0.000336879
0.00113
0.00172119
0.00140511
0.00166939
0.00177906
0.00189644
0.00201391
0.00212077
0.00220229
0.00224158
0.00224774
0.00219584
0.00205385
0.00177872
0.00134115
0.00089422
0.000828111
0.000831435
0.0016083
0.00215539
0.00252903
0.00265824
0.00249811
0.00193884
0.00164462
0.00142972
0.00126615
0.00113696
0.00103257
0.000946005
0.000870584
0.000800043
0.000739196
0.000688651
0.000876944
0.000453592
0.00151074
0.00268861
0.00148646
0.00235065
0.00252611
0.00264158
0.00273272
0.00280326
0.0028548
0.00288254
0.00288564
0.0028382
0.00270767
0.00245508
0.00205754
0.00156229
0.00100782
0.000968839
0.0029035
0.00359598
0.00373973
0.00363255
0.00298313
0.000739243
0.000637108
0.000566272
0.000515211
0.000476805
0.00044678
0.000422668
0.000403278
0.000388966
0.000451095
0.000546543
0.00104319
0.00054398
0.00190094
0.00414984
0.00147588
0.00263094
0.00295258
0.00304926
0.00310463
0.00314217
0.00317163
0.00319328
0.00320817
0.00320138
0.00314856
0.00301093
0.00272946
0.00224587
0.00160329
0.00109445
0.00326747
0.00369501
0.00391792
0.00395345
0.00380159
0.00313623
0.000752344
0.000709871
0.000696348
0.000690634
0.000683206
0.000667814
0.000641091
0.000613195
0.000579579
0.000569329
0.000605519
0.00131036
0.000605866
0.0022917
0.00602361
0.00185712
0.0024936
0.00313859
0.00324852
0.00328134
0.00329546
0.00330903
0.00332869
0.00335483
0.00339047
0.00341829
0.00341544
0.00335915
0.00324621
0.00312515
0.00307362
0.00326048
0.00354366
0.0037469
0.00378849
0.00374855
0.00359074
0.00315418
0.00310725
0.00311288
0.0031019
0.00304894
0.00294073
0.00275555
0.0023985
0.00195919
0.00152361
0.00115512
0.00120951
0.00086504
0.000721371
0.0008496
0.000955976
0.00268148
0.00795876
0.0031326
0.00215294
0.00300104
0.00327096
0.0033514
0.00337198
0.00336383
0.00335607
0.0033755
0.00343334
0.00349777
0.00353988
0.00352009
0.00338923
0.00312569
0.00283399
0.00279591
0.00322465
0.00357633
0.00363585
0.00363342
0.00363442
0.00363624
0.00368079
0.00371031
0.0036962
0.00363513
0.00353435
0.00340445
0.00317673
0.00281037
0.00232889
0.00182719
0.00133536
0.00112904
0.00099973
0.00141016
0.00101506
0.00307273
0.00951852
0.00577937
0.00283008
0.00227538
0.00261692
0.00303371
0.00331758
0.0034563
0.0033519
0.00335573
0.00341428
0.00348717
0.0035538
0.00357849
0.00349226
0.00319871
0.00270138
0.00242182
0.00295869
0.00353863
0.0036069
0.00358872
0.00360013
0.00364213
0.00368727
0.0037013
0.00366709
0.00359816
0.00351734
0.00344818
0.00339499
0.00317357
0.00276867
0.00231314
0.00184772
0.001578
0.00156603
0.0016566
0.0012191
0.00317818
0.00972539
0.00763399
0.00565623
0.00395931
0.00302248
0.00283172
0.00305286
0.00336092
0.00336219
0.00334645
0.00336523
0.00341168
0.00346844
0.00351229
0.00350108
0.00332385
0.00275504
0.00216336
0.00270118
0.00360383
0.00368776
0.00363507
0.00362198
0.00363175
0.00362605
0.00358191
0.00350139
0.00341192
0.00335433
0.00336266
0.00345145
0.00354595
0.00326398
0.00301268
0.00297032
0.00333354
0.00412065
0.00502792
0.00175898
0.00311919
0.00379668
0.00422482
0.00433575
0.00411157
0.00371129
0.00337284
0.00318801
0.00313282
0.00312318
0.00315619
0.00321308
0.00327585
0.00332998
0.00336744
0.00338006
0.0033017
0.00285821
0.00200566
0.0024173
0.00373247
0.00385144
0.00375782
0.00372302
0.00369809
0.00363571
0.00351798
0.00335014
0.00316082
0.00299094
0.00286896
0.0027959
0.00275591
0.00273394
0.00274854
0.00278193
0.00274951
0.00258604
0.00236816
0.00160209
0.00228151
0.00364256
0.0039435
0.00386317
0.00368991
0.00353474
0.00342734
0.00335288
0.00330656
0.00327508
0.00324466
0.00320842
0.00317178
0.00315289
0.00312105
0.00274502
0.00185359
0.00213226
0.00390218
0.00405569
0.00392021
0.00391579
0.00391638
0.0038621
0.00374165
0.00355789
0.00333286
0.00311
0.00294035
0.00285791
0.00283775
0.00284654
0.00285624
0.00282054
0.00268095
0.00241474
0.00205157
0.00131153
0.00238595
0.00415262
0.00435798
0.00419041
0.00400788
0.00381831
0.00363672
0.00346805
0.00328074
0.0030664
0.0028493
0.00264881
0.00248472
0.00238077
0.00232731
0.00212522
0.001536
0.0018102
0.00378914
0.00374508
0.00363764
0.0036802
0.00371442
0.00370051
0.00364519
0.00355801
0.00344957
0.00332981
0.00320147
0.00313824
0.00313498
0.00316828
0.00320394
0.00322841
0.00319663
0.00312829
0.00258692
0.00133373
0.00210378
0.00220469
0.00229353
0.00243062
0.00230263
0.00208889
0.00194321
0.00181112
0.00168974
0.00157831
0.0014794
0.00139262
0.00131301
0.00123833
0.00116806
0.0011031
0.00104487
0.000991884
0.000937709
0.000949473
0.00102259
0.00102165
0.00101921
0.00102179
0.00102373
0.00102495
0.00102762
0.00103436
0.00104806
0.0010721
0.00111122
0.00116047
0.0012216
0.00129277
0.00137154
0.00147717
0.00150143
0.00146263
0.00136283
0.00125588
)
;

boundaryField
{
    floor
    {
        type            nutkWallFunction;
        Cmu             0.09;
        kappa           0.41;
        E               9.8;
        value           nonuniform List<scalar> 
29
(
0.000103988
8.37197e-05
7.95498e-05
7.57863e-05
7.40042e-05
7.30006e-05
7.13172e-05
6.80575e-05
6.47012e-05
6.14777e-05
5.84064e-05
5.55167e-05
5.28236e-05
5.03279e-05
4.80162e-05
4.58522e-05
4.37719e-05
4.17101e-05
4.13604e-05
3.84054e-05
3.84054e-05
5.37684e-05
6.53182e-05
7.30894e-05
0.000103988
8.37197e-05
0.000100687
0.000117044
0.000131753
)
;
    }
    ceiling
    {
        type            nutkWallFunction;
        Cmu             0.09;
        kappa           0.41;
        E               9.8;
        value           nonuniform List<scalar> 
43
(
0.000244532
0.000255426
0.000264976
0.000279712
0.000266051
0.00024302
0.000227171
0.000212686
0.000199275
0.00018687
0.000175779
0.00016598
0.000156931
0.000148387
0.000140295
0.000132765
0.000125973
0.000119753
0.000113353
0.000114763
0.000123365
0.000123255
0.00012297
0.000123272
0.000123499
0.000123642
0.000123955
0.000124745
0.000126348
0.000129157
0.000133712
0.000139419
0.000146468
0.000154623
0.000163591
0.000175529
0.000178258
0.000173893
0.000162603
0.000150403
0.000352456
0.000422192
0.000274799
)
;
    }
    sWall
    {
        type            nutkWallFunction;
        Cmu             0.09;
        kappa           0.41;
        E               9.8;
        value           uniform 0.000244598;
    }
    nWall
    {
        type            nutkWallFunction;
        Cmu             0.09;
        kappa           0.41;
        E               9.8;
        value           nonuniform List<scalar> 6(0.000115522 0.000122482 0.000146184 0.00015678 0.000159309 0.000150415);
    }
    sideWalls
    {
        type            empty;
    }
    glass1
    {
        type            nutkWallFunction;
        Cmu             0.09;
        kappa           0.41;
        E               9.8;
        value           nonuniform List<scalar> 9(8.70799e-05 0.000136031 0.000179569 0.000222927 0.000265379 0.00030696 0.000348063 0.000359056 0.000352935);
    }
    glass2
    {
        type            nutkWallFunction;
        Cmu             0.09;
        kappa           0.41;
        E               9.8;
        value           nonuniform List<scalar> 2(0.000207067 0.000189641);
    }
    sun
    {
        type            nutkWallFunction;
        Cmu             0.09;
        kappa           0.41;
        E               9.8;
        value           nonuniform List<scalar> 
14
(
8.71111e-05
9.01838e-05
8.78723e-05
9.07238e-05
9.32178e-05
9.53397e-05
9.71721e-05
9.88059e-05
0.000100337
0.000101869
0.000103053
0.000103797
0.000104105
0.000104158
)
;
    }
    heatsource1
    {
        type            nutkWallFunction;
        Cmu             0.09;
        kappa           0.41;
        E               9.8;
        value           nonuniform List<scalar> 3(8.73466e-05 0.000102857 0.000115514);
    }
    heatsource2
    {
        type            nutkWallFunction;
        Cmu             0.09;
        kappa           0.41;
        E               9.8;
        value           nonuniform List<scalar> 4(0.000108186 0.00010028 0.00010028 0.000121621);
    }
    Table_master
    {
        type            nutkWallFunction;
        Cmu             0.09;
        kappa           0.41;
        E               9.8;
        value           nonuniform List<scalar> 9(8.95355e-05 7.69885e-05 6.81448e-05 6.16865e-05 5.67769e-05 5.29046e-05 4.97714e-05 4.72356e-05 4.53541e-05);
    }
    Table_slave
    {
        type            nutkWallFunction;
        Cmu             0.09;
        kappa           0.41;
        E               9.8;
        value           nonuniform List<scalar> 9(9.11302e-05 8.59483e-05 8.429e-05 8.35876e-05 8.2674e-05 8.07782e-05 7.74757e-05 7.40103e-05 6.98086e-05);
    }
    inlet
    {
        type            calculated;
        value           uniform 0.000100623;
    }
    outlet
    {
        type            calculated;
        value           nonuniform List<scalar> 2(0.00210378 0.00220469);
    }
}


// ************************************************************************* //
