// -*- C++ -*-
// File generated by PyFoam - sorry for the ugliness

FoamFile
{
 version 2.0;
 format ascii;
 class volVectorField;
 location "100";
 object U;
}

dimensions [ 0 1 -1 0 0 0 0 ];

internalField nonuniform List<vector> 459
(
  (0.0869001 0.0760399 0)
  (-0.15082 0.00885017 0)
  (-0.147601 0.0115805 0)
  (-0.171338 0.0102935 0)
  (-0.1926 0.00772963 0)
  (-0.210631 0.0046217 0)
  (-0.224575 0.00106736 0)
  (-0.233629 -0.00299777 0)
  (-0.23687 -0.00770187 0)
  (-0.233081 -0.0132532 0)
  (-0.22067 -0.0201749 0)
  (-0.197047 -0.0289054 0)
  (-0.160955 -0.0411476 0)
  (-0.121913 -0.0604425 0)
  (-0.113614 -0.087172 0)
  (0.0835843 -0.0344174 0)
  (0.0380371 -0.0204253 0)
  (0.0470729 -0.0117222 0)
  (0.0595447 -0.00786426 0)
  (0.0670816 -0.00626386 0)
  (0.0722837 -0.00473349 0)
  (0.0754571 -0.00231391 0)
  (0.0752706 -0.000791198 0)
  (0.0731001 -0.000203835 0)
  (0.0705906 -2.10395e-05 0)
  (0.0683496 4.94321e-05 0)
  (0.0663552 8.279e-05 0)
  (0.0644808 0.000131324 0)
  (0.0625474 0.00032383 0)
  (0.0600875 0.000983076 0)
  (0.0560835 0.00252451 0)
  (0.0495639 0.00387398 0)
  (0.0472937 0.00456286 0)
  (-0.0235368 0.023766 0)
  (0.299677 0.164024 0)
  (-0.16905 0.0337048 0)
  (-0.129621 0.0380972 0)
  (-0.159014 0.0355347 0)
  (-0.181408 0.0313998 0)
  (-0.200199 0.0262785 0)
  (-0.214914 0.0200918 0)
  (-0.224958 0.0125945 0)
  (-0.229511 0.00348618 0)
  (-0.227458 -0.00752731 0)
  (-0.2182 -0.0200141 0)
  (-0.200819 -0.033818 0)
  (-0.17626 -0.0501663 0)
  (-0.149902 -0.0713194 0)
  (-0.126555 -0.0907083 0)
  (-0.0913971 -0.0776644 0)
  (-0.0549508 -0.0504196 0)
  (0.0876827 -0.0432394 0)
  (0.0226063 -0.0193079 0)
  (0.0292063 -0.00868273 0)
  (0.0399627 -0.00767833 0)
  (0.0482299 -0.00853293 0)
  (0.0554074 -0.00710096 0)
  (0.0607386 -5.91879e-05 0)
  (0.0615283 0.00368807 0)
  (0.0608683 0.00469669 0)
  (0.0605892 0.00469958 0)
  (0.0606896 0.00446414 0)
  (0.0608417 0.00419317 0)
  (0.0609384 0.00402689 0)
  (0.0609626 0.00425604 0)
  (0.060437 0.00565342 0)
  (0.0571963 0.0104462 0)
  (0.0486451 0.0139108 0)
  (0.0520846 0.0153209 0)
  (-0.0771447 0.0501262 0)
  (0.483948 0.250496 0)
  (-0.215957 0.0662451 0)
  (-0.103472 0.0663407 0)
  (-0.139635 0.0578265 0)
  (-0.160672 0.0495032 0)
  (-0.178812 0.0400017 0)
  (-0.193477 0.0288298 0)
  (-0.204164 0.0156629 0)
  (-0.210033 0.000338406 0)
  (-0.20984 -0.0169527 0)
  (-0.203333 -0.0360384 0)
  (-0.190964 -0.0561031 0)
  (-0.174575 -0.076677 0)
  (-0.156971 -0.0967938 0)
  (-0.137484 -0.110932 0)
  (-0.11481 -0.112519 0)
  (-0.116283 -0.119214 0)
  (0.043052 -0.0422271 0)
  (-0.0107957 -0.0275712 0)
  (0.00465215 -0.0192772 0)
  (0.0180827 -0.0185575 0)
  (0.0291714 -0.019062 0)
  (0.0382281 -0.0191423 0)
  (0.0479012 -0.0110001 0)
  (0.0476465 -0.00569088 0)
  (0.047025 -0.00346577 0)
  (0.048546 -0.0026214 0)
  (0.0508313 -0.00228579 0)
  (0.0529437 -0.00217474 0)
  (0.0548071 -0.00211457 0)
  (0.0568622 -0.00179757 0)
  (0.0600632 0.000725044 0)
  (0.0585607 0.0160095 0)
  (0.0453178 0.0250206 0)
  (0.0620727 0.0289391 0)
  (-0.124747 0.0757854 0)
  (0.637941 0.322836 0)
  (-0.270463 0.102504 0)
  (-0.0707125 0.0929457 0)
  (-0.115258 0.0790572 0)
  (-0.13242 0.0683521 0)
  (-0.148167 0.0564415 0)
  (-0.161551 0.0423733 0)
  (-0.17204 0.0255557 0)
  (-0.178669 0.00559339 0)
  (-0.179857 -0.0173423 0)
  (-0.175363 -0.0420181 0)
  (-0.16696 -0.0664805 0)
  (-0.156956 -0.0889587 0)
  (-0.147787 -0.107573 0)
  (-0.140761 -0.119306 0)
  (-0.139853 -0.121693 0)
  (-0.148397 -0.105308 0)
  (-0.12525 -0.0360848 0)
  (-0.0621392 -0.0559353 0)
  (-0.0365386 -0.0473623 0)
  (-0.0145229 -0.037575 0)
  (0.00130425 -0.0320781 0)
  (0.0120901 -0.028948 0)
  (0.0177847 -0.0260478 0)
  (0.0258358 -0.0175343 0)
  (0.04221 -0.0143389 0)
  (0.0566621 -0.0124632 0)
  (0.0689723 -0.0109256 0)
  (0.0793154 -0.00909778 0)
  (0.0868705 -0.00655637 0)
  (0.0901017 -0.00309765 0)
  (0.0865545 0.00164393 0)
  (0.0744632 0.00801585 0)
  (0.0583795 0.0267044 0)
  (0.039942 0.0418597 0)
  (0.0706642 0.0515962 0)
  (-0.187576 0.0965166 0)
  (0.763303 0.382288 0)
  (-0.321204 0.138998 0)
  (-0.0347527 0.111917 0)
  (-0.0869135 0.0950474 0)
  (-0.098739 0.0831325 0)
  (-0.110332 0.0695604 0)
  (-0.12059 0.0532405 0)
  (-0.129066 0.0334182 0)
  (-0.134824 0.00954106 0)
  (-0.135695 -0.0181241 0)
  (-0.131306 -0.047186 0)
  (-0.124654 -0.0740371 0)
  (-0.117944 -0.0962931 0)
  (-0.113051 -0.112945 0)
  (-0.111001 -0.123703 0)
  (-0.112077 -0.128448 0)
  (-0.110261 -0.122003 0)
  (-0.0935587 -0.0960987 0)
  (-0.0636464 -0.0889059 0)
  (-0.0390754 -0.0722241 0)
  (-0.0202095 -0.0549162 0)
  (-0.00774904 -0.0450384 0)
  (0.00239975 -0.0381242 0)
  (0.010079 -0.0321425 0)
  (0.0196974 -0.024697 0)
  (0.031394 -0.0208625 0)
  (0.0426434 -0.0186962 0)
  (0.0531469 -0.0165832 0)
  (0.0627552 -0.0133431 0)
  (0.0707871 -0.00792322 0)
  (0.0761112 0.000370457 0)
  (0.0766992 0.0107498 0)
  (0.0718607 0.02294 0)
  (0.0631791 0.039757 0)
  (0.0470576 0.0576934 0)
  (0.0790041 0.0771747 0)
  (-0.0541492 0.107419 0)
  (0.054192 0.0201982 0)
  (-0.0727151 -0.037533 0)
  (-0.307289 -0.0632365 0)
  (0.848917 0.435001 0)
  (-0.363687 0.1706 0)
  (-0.00464001 0.11679 0)
  (-0.0540609 0.105574 0)
  (-0.0611035 0.0932799 0)
  (-0.0679171 0.0783766 0)
  (-0.0735518 0.0606315 0)
  (-0.0781254 0.0390086 0)
  (-0.0811587 0.0124307 0)
  (-0.0788914 -0.0194274 0)
  (-0.0731867 -0.0523671 0)
  (-0.0680313 -0.0801254 0)
  (-0.0646293 -0.100764 0)
  (-0.0639796 -0.114583 0)
  (-0.0664432 -0.122529 0)
  (-0.0711478 -0.125052 0)
  (-0.0735274 -0.121258 0)
  (-0.0678343 -0.114537 0)
  (-0.0504438 -0.111726 0)
  (-0.0334028 -0.0912954 0)
  (-0.0196349 -0.067161 0)
  (-0.0122943 -0.0543767 0)
  (-0.00547561 -0.0459824 0)
  (0.000662209 -0.0393054 0)
  (0.0075891 -0.0336531 0)
  (0.0154387 -0.0304756 0)
  (0.0235616 -0.0285645 0)
  (0.0318693 -0.026529 0)
  (0.0403229 -0.0229912 0)
  (0.0487321 -0.0163838 0)
  (0.0565564 -0.00523916 0)
  (0.0625848 0.0097861 0)
  (0.0643534 0.0261655 0)
  (0.0644766 0.0441129 0)
  (0.0600649 0.0630546 0)
  (0.0882891 0.0870156 0)
  (0.0522549 0.102143 0)
  (0.107577 0.0674823 0)
  (0.131764 0.0459941 0)
  (-0.141868 -0.00668275 0)
  (0.871275 0.482498 0)
  (-0.38425 0.166892 0)
  (0.0161212 0.0812166 0)
  (-0.00501956 0.110583 0)
  (-0.0139327 0.104876 0)
  (-0.0195106 0.084223 0)
  (-0.0209075 0.0632731 0)
  (-0.0204082 0.0403978 0)
  (-0.0192071 0.0118211 0)
  (-0.00729517 -0.0249293 0)
  (-0.000407427 -0.0590076 0)
  (0.0014411 -0.0843438 0)
  (-0.000426972 -0.101377 0)
  (-0.00573579 -0.111667 0)
  (-0.0140084 -0.116845 0)
  (-0.0240439 -0.118198 0)
  (-0.0333712 -0.117432 0)
  (-0.0400944 -0.11992 0)
  (-0.0324952 -0.126329 0)
  (-0.0245323 -0.105058 0)
  (-0.0160233 -0.0736645 0)
  (-0.0152486 -0.0589764 0)
  (-0.0129993 -0.0500206 0)
  (-0.0109227 -0.043642 0)
  (-0.00830188 -0.0391385 0)
  (-0.00496244 -0.0365649 0)
  (-0.00106099 -0.0351879 0)
  (0.00354599 -0.0338869 0)
  (0.00896231 -0.031329 0)
  (0.015628 -0.0257975 0)
  (0.0239188 -0.0151029 0)
  (0.036247 0.0025401 0)
  (0.0457911 0.0213636 0)
  (0.0541558 0.0392161 0)
  (0.0614444 0.0558683 0)
  (0.0873143 0.0754784 0)
  (0.0992141 0.0785616 0)
  (0.138337 0.0478738 0)
  (0.182975 0.0418925 0)
  (-0.0254015 0.103856 0)
  (0.971999 0.502061 0)
  (-0.140906 0.151418 0)
  (0.0812381 0.0195971 0)
  (0.114642 0.0564464 0)
  (0.084927 0.0786154 0)
  (0.0635271 0.0650083 0)
  (0.0586633 0.0420245 0)
  (0.061384 0.017894 0)
  (0.0676811 -0.0125464 0)
  (0.0836467 -0.0403578 0)
  (0.0867417 -0.0636899 0)
  (0.0816202 -0.081612 0)
  (0.0714742 -0.0938808 0)
  (0.0578337 -0.101056 0)
  (0.041819 -0.104234 0)
  (0.024576 -0.104791 0)
  (0.00734817 -0.105177 0)
  (-0.0121596 -0.112993 0)
  (-0.0127827 -0.132144 0)
  (-0.0146066 -0.113888 0)
  (-0.0104686 -0.0742351 0)
  (-0.0177142 -0.0586733 0)
  (-0.020968 -0.0501379 0)
  (-0.0237982 -0.0441002 0)
  (-0.0262121 -0.0400819 0)
  (-0.0282119 -0.0378893 0)
  (-0.0299251 -0.0369162 0)
  (-0.0312934 -0.0363108 0)
  (-0.0320286 -0.0351029 0)
  (-0.0315559 -0.0322582 0)
  (-0.028941 -0.0266333 0)
  (-0.0219683 -0.016916 0)
  (-0.00110694 -0.00154957 0)
  (0.0118211 0.0148655 0)
  (0.0237816 0.0251406 0)
  (0.0446922 0.0343636 0)
  (0.0600768 0.0244171 0)
  (0.0738448 -0.00528781 0)
  (0.14025 0.0595076 0)
  (-0.527784 0.249508 0)
  (1.10393 0.458181 0)
  (0.53536 0.304794 0)
  (0.529509 0.24842 0)
  (0.484275 0.209697 0)
  (0.391509 0.179751 0)
  (0.314135 0.137731 0)
  (0.269759 0.0926861 0)
  (0.246344 0.0520406 0)
  (0.233927 0.0161355 0)
  (0.214106 -0.016925 0)
  (0.191913 -0.0437063 0)
  (0.168475 -0.0629423 0)
  (0.14407 -0.07518 0)
  (0.118943 -0.081816 0)
  (0.0935012 -0.0844626 0)
  (0.0681239 -0.0847895 0)
  (0.0427684 -0.0853917 0)
  (0.0144951 -0.0935591 0)
  (0.00718497 -0.12412 0)
  (-0.00540542 -0.113368 0)
  (-0.00377631 -0.0659228 0)
  (-0.0206824 -0.0522678 0)
  (-0.0296353 -0.0461586 0)
  (-0.0370004 -0.0412639 0)
  (-0.0442388 -0.0376714 0)
  (-0.0516837 -0.0353752 0)
  (-0.0597245 -0.0338587 0)
  (-0.0687217 -0.0323341 0)
  (-0.0789415 -0.0298004 0)
  (-0.0906537 -0.0251211 0)
  (-0.10435 -0.0170363 0)
  (-0.12065 -0.00416121 0)
  (-0.138296 0.0138324 0)
  (-0.155695 0.0345088 0)
  (-0.186352 0.0564724 0)
  (-0.232374 0.0769894 0)
  (-0.297211 0.090065 0)
  (-0.367858 0.092473 0)
  (-0.443451 0.0852647 0)
  (-0.723474 0.0675754 0)
  (-0.189692 0.134345 0)
  (0.182844 0.20159 0)
  (0.262654 0.187518 0)
  (0.257624 0.148857 0)
  (0.258137 0.10371 0)
  (0.261115 0.0607418 0)
  (0.25953 0.0240722 0)
  (0.250439 -0.00531054 0)
  (0.233121 -0.0266662 0)
  (0.210316 -0.0409762 0)
  (0.184161 -0.0495282 0)
  (0.156341 -0.0536358 0)
  (0.12806 -0.0545067 0)
  (0.0997275 -0.0532311 0)
  (0.0701645 -0.0515661 0)
  (0.0372745 -0.0565993 0)
  (0.0277709 -0.0944364 0)
  (-0.00173767 -0.0937671 0)
  (-0.00186336 -0.0386482 0)
  (-0.0280608 -0.029963 0)
  (-0.0406079 -0.0284247 0)
  (-0.0500058 -0.0267612 0)
  (-0.0594552 -0.0258533 0)
  (-0.0692594 -0.0256779 0)
  (-0.079886 -0.0257852 0)
  (-0.0918316 -0.0254592 0)
  (-0.105068 -0.0235715 0)
  (-0.118694 -0.0186584 0)
  (-0.130861 -0.00922799 0)
  (-0.139835 0.00585847 0)
  (-0.145641 0.0258144 0)
  (-0.149814 0.051052 0)
  (-0.155069 0.0789814 0)
  (-0.162601 0.102998 0)
  (-0.168382 0.110489 0)
  (-0.150714 0.0797002 0)
  (-0.0857067 -0.035435 0)
  (-0.292897 -0.260068 0)
  (-0.104849 0.281597 0)
  (0.0797784 0.209231 0)
  (0.107646 0.156102 0)
  (0.144494 0.124 0)
  (0.182159 0.0898337 0)
  (0.210511 0.0600517 0)
  (0.224836 0.0389071 0)
  (0.225946 0.0270695 0)
  (0.217888 0.0198029 0)
  (0.203527 0.014511 0)
  (0.185135 0.0112511 0)
  (0.164236 0.0101404 0)
  (0.141984 0.0113661 0)
  (0.119099 0.0154475 0)
  (0.0950667 0.0218199 0)
  (0.0690493 0.0109413 0)
  (0.0546434 -0.0664127 0)
  (-0.0119334 -0.0797674 0)
  (-0.0218549 0.0482308 0)
  (-0.0445767 0.0372053 0)
  (-0.0579767 0.0321295 0)
  (-0.0683563 0.0386691 0)
  (-0.0774879 0.0449534 0)
  (-0.0854249 0.0499127 0)
  (-0.0923815 0.0542393 0)
  (-0.0986636 0.0576808 0)
  (-0.1045 0.0594543 0)
  (-0.109929 0.0585223 0)
  (-0.114233 0.0534023 0)
  (-0.115182 0.0498976 0)
  (-0.109944 0.0526322 0)
  (-0.0972538 0.0637619 0)
  (-0.0784093 0.0828168 0)
  (-0.0550639 0.102448 0)
  (-0.0294294 0.112236 0)
  (0.0147749 0.0935617 0)
  (0.142293 0.00955711 0)
  (-0.197143 -0.175165 0)
  (-0.23048 -0.406237 0)
  (-0.489723 -0.104791 0)
  (-0.349033 0.178009 0)
  (-0.184761 0.0758134 0)
  (-0.0779908 0.0416262 0)
  (0.047019 0.0199485 0)
  (0.111645 -0.00878545 0)
  (0.162337 -0.0356686 0)
  (0.193084 -0.0598081 0)
  (0.206328 -0.0820877 0)
  (0.207414 -0.101716 0)
  (0.200348 -0.11806 0)
  (0.187858 -0.13271 0)
  (0.172058 -0.146864 0)
  (0.154647 -0.161437 0)
  (0.137153 -0.176975 0)
  (0.121154 -0.19359 0)
  (0.105503 -0.212364 0)
  (0.0816588 -0.238526 0)
  (-0.0377664 -0.247628 0)
  (-0.0579878 -0.228337 0)
  (-0.0573497 -0.226319 0)
  (-0.0720175 -0.223247 0)
  (-0.0858232 -0.21976 0)
  (-0.0972646 -0.217191 0)
  (-0.107008 -0.214831 0)
  (-0.11511 -0.211596 0)
  (-0.121224 -0.206299 0)
  (-0.124904 -0.197561 0)
  (-0.12571 -0.183732 0)
  (-0.123048 -0.162908 0)
  (-0.11522 -0.139432 0)
  (-0.0982023 -0.112987 0)
  (-0.0691274 -0.084025 0)
  (-0.0313841 -0.0523051 0)
  (0.0418028 -0.0121271 0)
  (0.0986381 -0.0159006 0)
  (0.153506 -0.0469443 0)
  (0.200031 -0.103438 0)
  (-0.123338 -0.183512 0)
)
;

boundaryField
{
  floor
  {
    type noSlip;
  }
  ceiling
  {
    type noSlip;
  }
  sWall
  {
    type noSlip;
  }
  nWall
  {
    type noSlip;
  }
  sideWalls
  {
    type empty;
  }
  glass1
  {
    type noSlip;
  }
  glass2
  {
    type noSlip;
  }
  sun
  {
    type noSlip;
  }
  heatsource1
  {
    type noSlip;
  }
  heatsource2
  {
    type noSlip;
  }
  Table_master
  {
    type noSlip;
  }
  Table_slave
  {
    type noSlip;
  }
  inlet
  {
    type fixedValue;
    value uniform (0.277164 -0.114805 0);
  }
  outlet
  {
    type zeroGradient;
  }
} 	// ************************************************************************* //

