/*--------------------------------*- C++ -*----------------------------------*\
  =========                 |
  \\      /  F ield         | OpenFOAM: The Open Source CFD Toolbox
   \\    /   O peration     | Website:  https://openfoam.org
    \\  /    A nd           | Version:  6
     \\/     M anipulation  |
\*---------------------------------------------------------------------------*/
FoamFile
{
    version     2.0;
    format      ascii;
    class       volScalarField;
    location    "380";
    object      alphat;
}
// * * * * * * * * * * * * * * * * * * * * * * * * * * * * * * * * * * * * * //

dimensions      [1 -1 -1 0 0 0 0];

internalField   nonuniform List<scalar> 
459
(
0.00211071
0.00238458
0.00233893
0.0021881
0.00202458
0.00187584
0.00174736
0.001633
0.00152895
0.0014323
0.00134046
0.00125059
0.00115892
0.00105845
0.000949586
0.000726895
0.000952574
0.000887186
0.000824492
0.000768797
0.000716311
0.000666651
0.000622643
0.000584115
0.000550403
0.000520771
0.000494441
0.00047095
0.00044936
0.000428562
0.000407194
0.000386497
0.000367921
0.000444194
0.00248648
0.00752578
0.00657193
0.00577283
0.00519425
0.00477103
0.00439336
0.00404919
0.00372257
0.00339904
0.00306254
0.00269644
0.0022884
0.00183065
0.00136941
0.000910325
0.000785312
0.000968708
0.00302367
0.00250502
0.00249291
0.0024652
0.00231279
0.00187529
0.00160268
0.00141109
0.00126743
0.00115572
0.00106764
0.000985137
0.000897441
0.00080194
0.000717242
0.000749493
0.000788131
0.000575854
0.00262485
0.00934271
0.00710466
0.00584448
0.00523478
0.00497347
0.00481235
0.00465375
0.00445204
0.00418687
0.00384758
0.00342999
0.00294052
0.00239739
0.0018497
0.00133543
0.000793932
0.000910363
0.00247918
0.00279497
0.0030984
0.00320121
0.00287889
0.000849631
0.000739929
0.000653956
0.000585702
0.000530777
0.000486111
0.000450563
0.000423867
0.000406651
0.000474455
0.000692012
0.00101209
0.000677733
0.00260738
0.00910904
0.00632943
0.00489913
0.00456664
0.00471494
0.00483766
0.00484811
0.00474473
0.00453124
0.00421281
0.0037993
0.00331375
0.00278274
0.00223957
0.00171211
0.00118512
0.000823275
0.00172465
0.00248201
0.00324047
0.00373048
0.00389919
0.00348775
0.000929673
0.000837058
0.000759792
0.00069144
0.000628247
0.000567655
0.000507276
0.000444609
0.000373079
0.000507164
0.000670974
0.00126456
0.000802031
0.00256654
0.00761028
0.00520876
0.00438248
0.00462409
0.00491003
0.00500405
0.00501781
0.00493928
0.00476306
0.0044895
0.00412325
0.00370604
0.00325984
0.00281604
0.00243168
0.00218301
0.0025813
0.00342699
0.00421647
0.00471194
0.00491434
0.00489768
0.00465012
0.0037668
0.00315189
0.00265255
0.00221646
0.00181971
0.00145718
0.0011299
0.000874242
0.000749687
0.000982765
0.000916865
0.00132896
0.00118402
0.000875274
0.000955331
0.00131593
0.00247981
0.00609345
0.00426705
0.00434487
0.0050215
0.00530675
0.0053357
0.00531465
0.00524581
0.00512072
0.00494039
0.0047141
0.0044614
0.00419441
0.00396716
0.0039023
0.004103
0.00486726
0.00545457
0.00578609
0.00587638
0.00577439
0.00555661
0.00523841
0.00467131
0.00402527
0.00338856
0.00278737
0.00222404
0.00177437
0.00152077
0.00148149
0.00164516
0.00191677
0.00191049
0.00188993
0.00152353
0.00146918
0.00208474
0.00178668
0.00235402
0.00490424
0.00371205
0.00437868
0.00515759
0.0055322
0.0055672
0.00554141
0.00549156
0.00542021
0.00533676
0.00525735
0.00520035
0.00518334
0.00524048
0.00543794
0.00580487
0.00629273
0.00650856
0.00649494
0.0062914
0.00595889
0.00554333
0.00506339
0.00452663
0.00395763
0.00339566
0.00288529
0.00247654
0.00223651
0.00220742
0.00238272
0.00270546
0.00299961
0.00301934
0.00272374
0.00197825
0.00224315
0.0039837
0.00240434
0.00216719
0.00373602
0.00321006
0.00474773
0.00532024
0.00553094
0.00552424
0.00550997
0.00549745
0.00548223
0.00547765
0.00550089
0.00556502
0.00567809
0.00585384
0.00609695
0.00637064
0.00656574
0.00655853
0.00634223
0.00594339
0.00542324
0.00488666
0.00441232
0.00398903
0.00360647
0.00327693
0.00303221
0.00291022
0.00294531
0.00315116
0.00350817
0.00394196
0.00429326
0.00441381
0.0042378
0.00342642
0.00336843
0.00704512
0.00326446
0.00180871
0.00172302
0.00230143
0.00541894
0.00623897
0.00620348
0.00618188
0.00622114
0.00626004
0.0062749
0.00628853
0.00631077
0.00635193
0.00641589
0.00650293
0.00660203
0.00668002
0.00667741
0.0065462
0.00627892
0.00589778
0.00549093
0.00511484
0.00479264
0.00452489
0.00431252
0.00416636
0.00410591
0.00415367
0.00432826
0.00463398
0.00504701
0.00549694
0.00585944
0.00603114
0.00601848
0.00550697
0.00513075
0.00888185
0.0036074
0.00122975
0.00543966
0.00748582
0.0077478
0.00788436
0.00795605
0.00796774
0.00791551
0.00785177
0.00780325
0.00778998
0.0078142
0.00786104
0.00790672
0.00792135
0.00787489
0.00775433
0.00756625
0.00733049
0.00709427
0.00687656
0.00668332
0.00651736
0.00638583
0.00630187
0.00628324
0.00634933
0.0065158
0.00678519
0.00713335
0.00749484
0.00775539
0.00784191
0.00786178
0.00776415
0.00748356
0.00901335
0.00299509
0.00293676
0.00893545
0.00961506
0.00970097
0.00978726
0.00978463
0.00973533
0.00965546
0.00955421
0.00945455
0.00939521
0.00940091
0.00944756
0.00950727
0.00955287
0.00955348
0.00946881
0.00930851
0.0091328
0.0089688
0.00882165
0.00868993
0.00857362
0.00847802
0.0084136
0.00839472
0.00843803
0.00855936
0.00876654
0.00904631
0.00934483
0.00954795
0.00955212
0.00948371
0.00928574
0.00868878
0.00724178
0.00248861
0.00148591
0.00123254
0.00196959
0.00241333
0.00244152
0.00240217
0.00237794
0.0023705
0.00236273
0.00234994
0.00233229
0.00231005
0.00228967
0.00227962
0.00227656
0.00227643
0.00227577
0.00227169
0.00226505
0.00225721
0.00224811
0.00223907
0.00223073
0.00222334
0.00221718
0.00221276
0.00221086
0.00221246
0.00221857
0.0022299
0.00224607
0.0022644
0.00227846
0.00228201
0.00228142
0.00227765
0.00228205
0.00232729
0.00233286
0.00207694
)
;

boundaryField
{
    floor
    {
        type            compressible::alphatWallFunction;
        Prt             0.85;
        value           nonuniform List<scalar> 
29
(
0.00013556
0.000103527
0.000136004
0.000126701
0.000117705
0.000109644
0.000101982
9.46704e-05
8.8135e-05
8.23665e-05
7.728e-05
7.27769e-05
6.87485e-05
6.51315e-05
6.17867e-05
5.8545e-05
5.51932e-05
5.1925e-05
4.89727e-05
6.09875e-05
6.09867e-05
8.11339e-05
9.63219e-05
0.00011448
0.000135559
0.000103526
0.000138282
0.00013
0.000117515
)
;
    }
    ceiling
    {
        type            compressible::alphatWallFunction;
        Prt             0.85;
        value           nonuniform List<scalar> 
43
(
0.000209982
0.000175488
0.00027388
0.000331077
0.000334632
0.000329581
0.000326464
0.000325499
0.000324494
0.000322847
0.000320578
0.000317719
0.000315094
0.000313797
0.000313401
0.000313383
0.000313299
0.000312775
0.00031192
0.000310912
0.000309741
0.000308577
0.000307503
0.000306551
0.000305756
0.000305186
0.000304941
0.000305146
0.000305933
0.000307391
0.000309473
0.000311829
0.000313635
0.000314089
0.000314013
0.000313527
0.000314092
0.000319897
0.00032061
0.000287611
0.000252436
0.000241102
0.000397093
)
;
    }
    sWall
    {
        type            compressible::alphatWallFunction;
        Prt             0.85;
        value           uniform 0.000210271;
    }
    nWall
    {
        type            compressible::alphatWallFunction;
        Prt             0.85;
        value           nonuniform List<scalar> 6(0.000186541 0.000249661 0.000329784 0.000404354 0.000340531 0.000287636);
    }
    sideWalls
    {
        type            empty;
    }
    glass1
    {
        type            compressible::alphatWallFunction;
        Prt             0.85;
        value           nonuniform List<scalar> 9(0.000293666 0.000342097 0.000359718 0.000357488 0.000352275 0.000341181 0.00032501 0.000300822 0.000253811);
    }
    glass2
    {
        type            compressible::alphatWallFunction;
        Prt             0.85;
        value           nonuniform List<scalar> 2(0.000440068 0.000482407);
    }
    sun
    {
        type            compressible::alphatWallFunction;
        Prt             0.85;
        value           nonuniform List<scalar> 
14
(
0.000291919
0.000327162
0.000321322
0.00030193
0.00028074
0.000261305
0.000244382
0.000229203
0.00021529
0.000202272
0.000189809
0.000177519
0.000164879
0.000150892
)
;
    }
    heatsource1
    {
        type            compressible::alphatWallFunction;
        Prt             0.85;
        value           nonuniform List<scalar> 3(0.000124723 0.000136118 0.000186195);
    }
    heatsource2
    {
        type            compressible::alphatWallFunction;
        Prt             0.85;
        value           nonuniform List<scalar> 4(0.000129721 0.000111765 0.000111764 0.000113012);
    }
    Table_master
    {
        type            compressible::alphatWallFunction;
        Prt             0.85;
        value           nonuniform List<scalar> 9(0.000121037 0.00010516 9.25185e-05 8.23381e-05 7.40395e-05 6.72117e-05 6.17211e-05 5.75617e-05 5.48616e-05);
    }
    Table_slave
    {
        type            compressible::alphatWallFunction;
        Prt             0.85;
        value           nonuniform List<scalar> 9(0.00013247 0.000119233 0.000108056 9.80548e-05 8.8701e-05 7.9623e-05 7.04563e-05 6.07953e-05 4.95513e-05);
    }
    inlet
    {
        type            fixedValue;
        value           uniform 1.94e-05;
    }
    outlet
    {
        type            zeroGradient;
    }
}


// ************************************************************************* //
