/*--------------------------------*- C++ -*----------------------------------*\
  =========                 |
  \\      /  F ield         | OpenFOAM: The Open Source CFD Toolbox
   \\    /   O peration     | Website:  https://openfoam.org
    \\  /    A nd           | Version:  6
     \\/     M anipulation  |
\*---------------------------------------------------------------------------*/
FoamFile
{
    version     2.0;
    format      ascii;
    class       surfaceScalarField;
    location    "900";
    object      phi;
}
// * * * * * * * * * * * * * * * * * * * * * * * * * * * * * * * * * * * * * //

dimensions      [1 0 -1 0 0 0 0];

internalField   nonuniform List<scalar> 
852
(
-0.0021123
0.00215795
-0.00232557
0.000213332
-0.00248645
0.000160938
-0.00265735
0.000170958
-0.00280256
0.000145267
-0.00290866
0.000106155
-0.00296867
6.00633e-05
-0.00297566
7.04317e-06
-0.00292052
-5.50844e-05
-0.00279066
-0.000129801
-0.00257119
-0.00021941
-0.00224414
-0.000326993
-0.00177531
-0.000468775
-0.00107639
-0.000698866
-0.00107759
0.000141718
-0.000142208
0.000112419
2.93678e-05
9.1748e-05
2.07427e-05
0.000104201
-1.23822e-05
0.000131141
-2.68687e-05
0.00017049
-3.92783e-05
0.000221074
-5.0514e-05
0.000269739
-4.85944e-05
0.000311282
-4.14735e-05
0.000346894
-3.55413e-05
0.000375203
-2.82394e-05
0.000387408
-1.21357e-05
0.000377757
9.72142e-06
0.000345533
3.22942e-05
0.000305518
4.00852e-05
0.000241458
6.41318e-05
0.000138538
0.000102992
-5.95999e-05
0.000198213
-6.04299e-05
-0.00150956
0.00378603
-0.0019626
0.00066643
-0.00221352
0.000411915
-0.00239739
0.000354878
-0.00254114
0.000289078
-0.00264738
0.000212445
-0.00271437
0.000127118
-0.00273807
3.07982e-05
-0.00271344
-7.96647e-05
-0.00263515
-0.000208029
-0.00249583
-0.000358679
-0.00228436
-0.000538403
-0.00199049
-0.000762594
-0.00164251
-0.00104678
-0.00137964
-0.00134041
2.36504e-05
-0.00140328
2.36585e-05
-0.000135887
-8.28078e-06
-0.000241872
0.00013542
-0.000316135
9.50745e-05
-0.000358454
3.00047e-05
-0.000364397
-2.08576e-05
-0.000357945
-4.56615e-05
-0.000318917
-8.94741e-05
-0.00030151
-6.5932e-05
-0.000299812
-4.31033e-05
-0.000310919
-2.43656e-05
-0.00033472
-4.36913e-06
-0.000364958
1.81712e-05
-0.000395483
4.03151e-05
-0.00042214
5.90209e-05
-0.000421441
3.94566e-05
-0.000300718
-5.65201e-05
-0.000166802
-3.0854e-05
-2.73636e-05
5.88423e-05
-9.09469e-05
-0.00110286
0.00506443
-0.0016297
0.00119332
-0.00188642
0.000668701
-0.00205902
0.000527532
-0.00218268
0.00041279
-0.00227112
0.000300943
-0.00232876
0.000184817
-0.00235573
5.78236e-05
-0.00235073
-8.46144e-05
-0.00231394
-0.000244759
-0.00224692
-0.00042565
-0.00215158
-0.000633686
-0.00203757
-0.000876551
-0.00193635
-0.00114795
-0.00187844
-0.00139827
-0.00172313
-0.00155853
-0.00169941
-0.000806532
0.000793697
-0.000926493
0.000255445
-0.000946783
0.000115428
-0.000947375
3.06604e-05
-0.000925565
-4.26048e-05
-0.000839498
-0.000131665
-0.000928755
-0.00099447
-0.00103736
-0.00106151
-0.00106566
-0.00104728
-0.00100675
-0.000947519
-0.000907852
-0.000579314
-0.000384999
-0.000302835
-0.000307276
2.71138e-05
-0.000271052
-6.999e-05
-0.000812854
0.00609875
-0.00133835
0.00171888
-0.00153461
0.000865024
-0.00166735
0.000660332
-0.0017552
0.000500693
-0.00180987
0.00035567
-0.00183994
0.000214944
-0.00185076
6.87049e-05
-0.0018462
-8.91264e-05
-0.00183253
-0.000258376
-0.00181991
-0.000438215
-0.00182161
-0.000631935
-0.00185855
-0.000839554
-0.0019604
-0.00104604
-0.00214461
-0.00121401
-0.00241582
-0.00128726
-0.00301384
-0.00110134
-0.00261629
-0.000403766
-0.0018711
4.85699e-05
-0.00169493
7.9337e-05
-0.00165416
7.47117e-05
-0.00165361
3.0175e-05
-0.00166697
-2.91895e-05
-0.00172524
-7.33304e-05
-0.00166733
-5.80019e-05
-0.0016094
-5.80207e-05
-0.00154462
-6.48782e-05
-0.00147278
-7.19253e-05
-0.00139142
-8.14567e-05
-0.00129607
-9.5441e-05
-0.00117962
-0.000116536
-0.0010254
-0.00015432
-0.000785605
-0.000239886
-0.000749365
-0.000421183
-0.000519526
-0.000537061
-0.00018834
-0.000602186
-0.000268526
-0.000596695
0.00695548
-0.00110347
0.00222571
-0.00115684
0.000918461
-0.00117712
0.000680674
-0.00121307
0.000536697
-0.0012313
0.00037396
-0.00122566
0.000209365
-0.00120573
4.88328e-05
-0.0011831
-0.000111712
-0.00116955
-0.000271866
-0.00117779
-0.000429921
-0.0012216
-0.000588081
-0.00131457
-0.000746527
-0.00146474
-0.000895816
-0.00166881
-0.00100989
-0.00192432
-0.00103169
-0.00216877
-0.000856827
-0.00207812
-0.000494364
-0.00183369
-0.000195803
-0.00167484
-7.94471e-05
-0.00156424
-3.58348e-05
-0.00149499
-3.90205e-05
-0.00146003
-6.40891e-05
-0.00144775
-8.55498e-05
-0.00141485
-9.08458e-05
-0.00137731
-9.55019e-05
-0.00133982
-0.000102311
-0.00130131
-0.000110367
-0.00126171
-0.000121006
-0.00122055
-0.000136539
-0.00117588
-0.000161151
-0.00112499
-0.000205147
-0.00107913
-0.000285699
-0.00110109
-0.000399161
-0.00114002
-0.000498078
-0.00120445
-0.000537705
-0.000944163
-0.000528758
-0.0003019
-0.000642409
0.000321651
-0.000623695
0.000330687
-0.000548674
0.00779779
-0.000955884
0.00263299
-0.000669898
0.000632546
-0.000435314
0.000446161
-0.000405216
0.000506667
-0.000418005
0.000386814
-0.000401881
0.000193302
-0.00037025
1.72593e-05
-0.000343543
-0.000138364
-0.000337589
-0.000277767
-0.000363687
-0.000403771
-0.000433777
-0.000517941
-0.000557267
-0.000622986
-0.000735136
-0.000717896
-0.00095644
-0.000788537
-0.00119487
-0.000793211
-0.00137135
-0.000680294
-0.00139406
-0.000471594
-0.00131045
-0.000279356
-0.00122196
-0.000167887
-0.00114731
-0.00011042
-0.00109468
-9.15995e-05
-0.00106393
-9.47824e-05
-0.00104601
-0.000103408
-0.00102768
-0.000109112
-0.00100819
-0.000114933
-0.000988852
-0.000121594
-0.000970126
-0.000129033
-0.000953264
-0.000137809
-0.000940444
-0.000149301
-0.000935061
-0.000166476
-0.000944467
-0.000195683
-0.000985429
-0.000244681
-0.00107401
-0.000310525
-0.00119631
-0.000375719
-0.00130646
-0.000427502
-0.00132644
-0.000508731
-0.00125853
-0.000710262
-0.000952652
-0.000929516
-0.000613584
-0.000692914
0.00881645
-0.000461754
0.0024019
0.000385845
-0.000214976
0.000843079
-1.09944e-05
0.000844611
0.000505209
0.000801877
0.000429619
0.000779611
0.000215634
0.000750883
4.605e-05
0.000713215
-0.000100638
0.000664003
-0.0002285
0.00059258
-0.000332295
0.000488128
-0.000413437
0.000340379
-0.000475187
0.000145259
-0.000522725
-8.72417e-05
-0.000555985
-0.000322729
-0.000557672
-0.000503432
-0.000499538
-0.000589151
-0.000385821
-0.00059925
-0.000269202
-0.00058092
-0.000186162
-0.00055589
-0.000135394
-0.00053612
-0.000111313
-0.000525704
-0.000105141
-0.000521699
-0.000107356
-0.000518885
-0.000111867
-0.000515709
-0.000118051
-0.000511939
-0.000125305
-0.000507836
-0.000133078
-0.000504478
-0.000141107
-0.0005039
-0.000149819
-0.000509888
-0.000160429
-0.000530284
-0.000175228
-0.000578806
-0.000196101
-0.000668997
-0.000220277
-0.000803188
-0.000241472
-0.000968638
-0.000261998
-0.00116714
-0.000310179
-0.00139012
-0.000487226
-0.00133638
-0.000983205
-0.00194264
0.00182276
0.00736102
0.00277609
0.00144864
0.00339643
-0.000835256
0.00309748
0.000288028
0.00272684
0.000875908
0.00251143
0.000645101
0.00232885
0.000398272
0.00214684
0.000228122
0.0019678
7.84635e-05
0.00179863
-5.92703e-05
0.00163511
-0.000168726
0.0014651
-0.000243367
0.00127796
-0.000287996
0.00106883
-0.000313552
0.000840254
-0.000327353
0.000610139
-0.000327506
0.000413638
-0.000302984
0.000279805
-0.000251936
0.000204521
-0.000193864
0.000165106
-0.000146692
0.000144283
-0.000114516
0.000129974
-9.69481e-05
0.000115852
-9.09629e-05
0.000100915
-9.23615e-05
8.6594e-05
-9.74895e-05
7.35198e-05
-0.000104919
6.20214e-05
-0.000113748
5.20777e-05
-0.000123075
4.30113e-05
-0.000131982
3.40301e-05
-0.000140779
2.38308e-05
-0.000150171
9.3991e-06
-0.000160737
-1.46524e-05
-0.000171991
-5.43807e-05
-0.00018049
-0.000116024
-0.000179772
-0.000215461
-0.000162505
-0.000397606
-0.000127979
-0.000706938
-0.000177842
-0.000876779
-0.000813312
-0.0027831
0.00774612
0.00916965
0.00839811
-6.36656e-05
0.00590788
0.00277831
0.00492609
0.00185775
0.00430194
0.0012693
0.00379903
0.000901241
0.00340987
0.000617334
0.0030989
0.000389494
0.00282495
0.000214729
0.00256954
8.67355e-05
0.00232875
-2.52032e-06
0.0021009
-6.00928e-05
0.0018814
-9.40008e-05
0.00166653
-0.000112431
0.0014596
-0.000120532
0.00127467
-0.000117994
0.00112736
-0.000104581
0.00101988
-8.63329e-05
0.00094342
-7.01742e-05
0.000887928
-5.89697e-05
0.000844542
-5.35076e-05
0.00080731
-5.36753e-05
0.000773597
-5.85934e-05
0.000742459
-6.6295e-05
0.000713458
-7.58609e-05
0.000686578
-8.68111e-05
0.000661736
-9.81764e-05
0.000637958
-0.000108145
0.000615249
-0.000118012
0.00059412
-0.000128984
0.000575116
-0.000141673
0.000558947
-0.000155764
0.000547527
-0.000169012
0.000544251
-0.000176438
0.000551555
-0.000169752
0.000565753
-0.000142122
0.000542633
-0.000154667
0.000322808
-0.000593433
-0.00242001
-0.00169473
0.00224232
0.00050187
0.000581765
0.00205864
0.000301033
0.00267835
0.000649642
0.00287488
0.000704759
0.00291795
0.000574319
0.00288781
0.000419682
0.0028127
0.000289896
0.00270883
0.000190658
0.00258618
0.000120179
0.00245505
7.10905e-05
0.00232002
4.10809e-05
0.00218389
2.37473e-05
0.0020493
1.41167e-05
0.00192159
9.76999e-06
0.00180766
9.39885e-06
0.0017109
1.04826e-05
0.00163031
1.04612e-05
0.0015631
8.29285e-06
0.00150588
3.7684e-06
0.00145548
-3.22155e-06
0.00140931
-1.23652e-05
0.00136556
-2.24932e-05
0.0013232
-3.34414e-05
0.00128185
-4.54085e-05
0.00124145
-5.77198e-05
0.00120105
-6.76908e-05
0.00116144
-7.83387e-05
0.00112368
-9.117e-05
0.00108916
-0.000107098
0.00106006
-0.000126601
0.00104028
-0.000149177
0.00103637
-0.000172473
0.00105718
-0.000190508
0.00110566
-0.000190542
0.00111669
-0.000165647
0.000818654
-0.000295342
-0.00159305
-0.000120898
0.00234989
0.00101584
-0.000554921
0.00157058
-0.000253655
0.00190577
0.000314504
0.00219824
0.000412338
0.00240927
0.000363342
0.00253142
0.000297585
0.00258221
0.00023916
0.00258156
0.000191354
0.00254708
0.000154709
0.0024908
0.000127424
0.00242376
0.000108172
0.00235291
9.46492e-05
0.00228222
8.48588e-05
0.00221451
7.75343e-05
0.00215224
7.17216e-05
0.00209653
6.62524e-05
0.00204682
6.02226e-05
0.00200175
5.34166e-05
0.00195964
4.59252e-05
0.00191829
3.81874e-05
0.00187538
3.05952e-05
0.00183015
2.27988e-05
0.00178196
1.47968e-05
0.00173008
6.52566e-06
0.00167425
-1.83449e-06
0.00161732
-1.07021e-05
0.00156001
-2.09775e-05
0.00150204
-3.31419e-05
0.00144318
-4.81792e-05
0.00138403
-6.74012e-05
0.00132732
-9.24104e-05
0.00127996
-0.000125056
0.00125693
-0.000167419
0.00129057
-0.000224128
0.00143859
-0.000313615
0.00160086
-0.000457552
1.58862e-05
0.00470063
-0.00105515
0.00127302
0.000691889
0.000404402
0.000679602
0.00104898
0.00136635
0.00161557
0.0018046
0.00194465
0.00204734
0.00212241
0.00217813
0.0022204
0.00225302
0.00227851
0.00229838
0.00231299
0.00232176
0.0023239
0.00231872
0.00230599
0.00228586
0.00225813
0.00222261
0.00217904
0.00212734
0.00206702
0.00199665
0.00191431
0.0018171
0.0017008
0.00155956
0.00138568
0.0011693
0.000895872
0.000532297
2.42647e-05
)
;

boundaryField
{
    floor
    {
        type            calculated;
        value           nonuniform List<scalar> 
29
(
0
0
0
0
0
0
0
0
0
0
0
0
0
0
0
0
0
0
0
0
9.05299e-07
3.21824e-06
6.21195e-06
1.02433e-05
1.25478e-06
5.56816e-07
2.0238e-06
4.61795e-06
6.27484e-06
)
;
    }
    ceiling
    {
        type            calculated;
        value           nonuniform List<scalar> 
43
(
7.5086e-05
5.27625e-05
2.17852e-05
2.62778e-05
3.38835e-05
3.93491e-05
4.30031e-05
4.6029e-05
4.84153e-05
5.01734e-05
5.13609e-05
5.2068e-05
5.24099e-05
5.25006e-05
5.24374e-05
5.229e-05
5.21017e-05
5.18993e-05
5.16994e-05
5.15099e-05
5.13298e-05
5.11533e-05
5.09728e-05
5.07822e-05
5.05807e-05
5.03689e-05
5.01497e-05
4.99215e-05
4.96744e-05
4.94463e-05
4.92491e-05
4.90848e-05
4.89572e-05
4.88798e-05
4.8881e-05
4.90127e-05
4.93582e-05
5.00133e-05
5.05337e-05
5.35225e-05
2.91214e-05
2.51563e-05
1.33961e-05
)
;
    }
    sWall
    {
        type            calculated;
        value           uniform -0.000121463;
    }
    nWall
    {
        type            calculated;
        value           nonuniform List<scalar> 6(-9.1837e-06 -8.31962e-06 -7.2745e-06 -8.25544e-06 -8.02338e-06 -1.33177e-05);
    }
    sideWalls
    {
        type            empty;
        value           nonuniform 0();
    }
    glass1
    {
        type            calculated;
        value           nonuniform List<scalar> 9(-4.56007e-05 -0.000118465 -0.000175479 -0.000221416 -0.000259981 -0.000293588 -0.000325693 -0.000367276 -0.000414169);
    }
    glass2
    {
        type            calculated;
        value           nonuniform List<scalar> 2(-3.6266e-05 -4.02239e-05);
    }
    sun
    {
        type            calculated;
        value           uniform 0;
    }
    heatsource1
    {
        type            calculated;
        value           nonuniform List<scalar> 3(1.99891e-07 2.00055e-07 2.00256e-07);
    }
    heatsource2
    {
        type            calculated;
        value           nonuniform List<scalar> 4(4.99766e-08 5.01901e-08 0 0);
    }
    Table_master
    {
        type            calculated;
        value           nonuniform List<scalar> 9(-1.50738e-07 -1.50687e-07 -1.50634e-07 -1.50586e-07 -1.50542e-07 -1.50498e-07 -1.5045e-07 -1.50397e-07 -1.50313e-07);
    }
    Table_slave
    {
        type            calculated;
        value           nonuniform List<scalar> 9(1.49783e-07 1.49807e-07 1.49826e-07 1.49847e-07 1.49869e-07 1.49893e-07 1.49921e-07 1.49956e-07 1.49983e-07);
    }
    inlet
    {
        type            calculated;
        value           uniform -0.000611185;
    }
    outlet
    {
        type            calculated;
        value           nonuniform List<scalar> 2(-0.00465415 0.00570313);
    }
}


// ************************************************************************* //
