/*--------------------------------*- C++ -*----------------------------------*\
  =========                 |
  \\      /  F ield         | OpenFOAM: The Open Source CFD Toolbox
   \\    /   O peration     | Website:  https://openfoam.org
    \\  /    A nd           | Version:  6
     \\/     M anipulation  |
\*---------------------------------------------------------------------------*/
FoamFile
{
    version     2.0;
    format      ascii;
    class       volScalarField;
    location    "800";
    object      nut;
}
// * * * * * * * * * * * * * * * * * * * * * * * * * * * * * * * * * * * * * //

dimensions      [0 2 -1 0 0 0 0];

internalField   nonuniform List<scalar> 
459
(
0.000650465
0.000670796
0.000598859
0.000611735
0.000628555
0.000644927
0.000661079
0.000677804
0.000695153
0.000711136
0.000725467
0.000737693
0.000747268
0.00075331
0.00075224
0.000295631
0.00028084
0.000253814
0.000226473
0.000214718
0.000212417
0.000216264
0.000226336
0.000236917
0.000245788
0.000250942
0.000250176
0.000249738
0.000255749
0.000271262
0.000297458
0.000323889
0.00039592
0.000355051
0.0011256
0.0022367
0.00172408
0.00242845
0.00269619
0.00286594
0.00299585
0.00308325
0.00313358
0.00315028
0.00312051
0.00301878
0.00279815
0.00237528
0.00165588
0.000826399
0.000501984
0.000399203
0.00114678
0.00104833
0.00086043
0.000721712
0.00064994
0.000635917
0.000705821
0.00078089
0.000837322
0.000869464
0.000877468
0.000893424
0.000949869
0.00107609
0.00130553
0.00132527
0.00159131
0.000529904
0.00157169
0.00401303
0.00208797
0.00318928
0.00400871
0.00433268
0.00451455
0.00461829
0.0046592
0.0046599
0.00461067
0.00448391
0.00422576
0.00374366
0.00293385
0.00185384
0.000869427
0.000560208
0.00145825
0.00115011
0.000809785
0.00058379
0.000426237
0.000294045
0.00031093
0.000331103
0.000353392
0.000379592
0.000412394
0.000455352
0.000515293
0.000603973
0.00169004
0.00186403
0.00235335
0.00067532
0.00200721
0.00634968
0.00328148
0.00333558
0.00433263
0.00486279
0.0051642
0.00534719
0.00543969
0.00550614
0.00555357
0.00556403
0.00548911
0.00523273
0.00464267
0.00355309
0.00200714
0.000818576
0.00186316
0.00225831
0.00183563
0.00141396
0.0010715
0.000785858
0.000557462
0.000553283
0.000551969
0.000553203
0.000558013
0.000567763
0.00058473
0.000613618
0.000665104
0.00187092
0.00190722
0.0021444
0.000676244
0.00241344
0.00888017
0.00566921
0.00440833
0.00455396
0.00490159
0.00523139
0.00548899
0.00564344
0.00578809
0.00595651
0.00615629
0.00636487
0.00652536
0.00655674
0.00637998
0.00595658
0.00533746
0.00492555
0.00444918
0.00406217
0.00380281
0.00361119
0.00342809
0.00326354
0.00315669
0.00305814
0.00296144
0.00286468
0.00276676
0.00266725
0.00256694
0.0024639
0.00234666
0.00196338
0.0015157
0.00113145
0.000646194
0.00067289
0.000692615
0.0027816
0.0110296
0.00873439
0.0067434
0.0058211
0.00542904
0.00537695
0.00547262
0.00556704
0.00568196
0.00586377
0.00614567
0.00652388
0.00693993
0.00729238
0.00746871
0.00738502
0.00702238
0.00651134
0.00599665
0.0055868
0.00527689
0.00504007
0.00484877
0.00468233
0.00453071
0.0043887
0.00425343
0.00412116
0.00398673
0.00384312
0.00368081
0.00348484
0.00322392
0.00284684
0.00236452
0.00188186
0.00154244
0.00130854
0.000887657
0.00306454
0.0118422
0.0105053
0.0088164
0.00760726
0.0066796
0.00611164
0.00579712
0.00562916
0.005564
0.00560509
0.00579125
0.00615086
0.0066597
0.00721104
0.00762214
0.00775621
0.00760254
0.00724644
0.00682355
0.00643347
0.00610391
0.00583436
0.00561223
0.00542092
0.00524873
0.00509128
0.00494627
0.00481063
0.00468029
0.00455077
0.00441739
0.00427319
0.00409938
0.0038498
0.00345132
0.00285641
0.00223813
0.00183378
0.00106309
0.00305349
0.0097472
0.00902036
0.00910501
0.00848909
0.00761522
0.00686388
0.00628831
0.00587098
0.00559425
0.00546369
0.00549814
0.00571744
0.00612178
0.0066432
0.0071301
0.00742989
0.0074806
0.00732069
0.00704632
0.00674426
0.00645995
0.00621051
0.00599738
0.00581353
0.005651
0.0055049
0.0053727
0.00525123
0.00513669
0.00502627
0.00491898
0.00481466
0.00470879
0.00458306
0.00439341
0.00402893
0.00334419
0.00272853
0.00121482
0.00290457
0.00330187
0.00939617
0.0100418
0.00904209
0.00797553
0.00709037
0.00642307
0.00595538
0.00566008
0.00551752
0.00551425
0.00563979
0.00587882
0.0061948
0.00651683
0.00676911
0.00689735
0.00689345
0.00679271
0.00664269
0.00647883
0.0063202
0.00617672
0.00605029
0.00593852
0.00583783
0.00574543
0.00565752
0.00557035
0.00548156
0.00539038
0.00529681
0.00519969
0.00509377
0.00496605
0.00478434
0.00445319
0.00378273
0.0013654
0.0194117
0.0174551
0.0106285
0.00856107
0.00752458
0.00687801
0.00648111
0.00626676
0.00617933
0.0061667
0.00618958
0.00622992
0.00628641
0.00636306
0.00645504
0.00654365
0.00660879
0.0066418
0.00664607
0.00662949
0.00659804
0.00656113
0.00652399
0.0064883
0.0064523
0.00641154
0.00636249
0.00630389
0.00623562
0.00615756
0.00606901
0.00596828
0.00585168
0.00571072
0.00552015
0.00519237
0.00435757
0.00157789
0.00617174
0.0116353
0.00857713
0.00742331
0.00688659
0.00664411
0.00655322
0.00654228
0.00657377
0.0066251
0.00668328
0.00674328
0.00680506
0.00686946
0.00693463
0.00699594
0.00704891
0.00709149
0.00712411
0.00714896
0.00716853
0.00718562
0.00720206
0.00721852
0.00723219
0.00722892
0.00720613
0.00716832
0.00711863
0.00705723
0.00698089
0.00688278
0.00675195
0.00657209
0.00631702
0.00593124
0.00527999
0.00190923
0.00155976
0.00210835
0.00419392
0.00346549
0.0026554
0.00218263
0.00199628
0.00187639
0.00179396
0.00173777
0.00170084
0.00167819
0.0016658
0.00166043
0.00165964
0.00166167
0.00166524
0.00166928
0.00167289
0.00167546
0.00167684
0.0016772
0.00167689
0.00167615
0.00167519
0.00167413
0.00167294
0.00167234
0.00167146
0.0016695
0.00166635
0.00166206
0.00165641
0.00164872
0.00163756
0.0016205
0.00159398
0.00155448
0.00151146
0.00135214
)
;

boundaryField
{
    floor
    {
        type            nutkWallFunction;
        Cmu             0.09;
        kappa           0.41;
        E               9.8;
        value           nonuniform List<scalar> 
29
(
9.11045e-05
3.27266e-05
3.06974e-05
2.69524e-05
2.31084e-05
2.14365e-05
2.11075e-05
2.16566e-05
2.30885e-05
2.45835e-05
2.58301e-05
2.65514e-05
2.64443e-05
2.63829e-05
2.7222e-05
2.93759e-05
3.29766e-05
3.65678e-05
4.6173e-05
4.07503e-05
4.07502e-05
6.3484e-05
8.16737e-05
8.17877e-05
9.11045e-05
3.27266e-05
4.66057e-05
6.73227e-05
9.91419e-05
)
;
    }
    ceiling
    {
        type            nutkWallFunction;
        Cmu             0.09;
        kappa           0.41;
        E               9.8;
        value           nonuniform List<scalar> 
43
(
0.00018503
0.000245507
0.000462941
0.000388612
0.000304034
0.00025347
0.000233231
0.000220102
0.000211023
0.000204807
0.00020071
0.000198193
0.000196814
0.000196217
0.000196129
0.000196354
0.000196751
0.000197201
0.000197602
0.000197887
0.00019804
0.000198079
0.000198045
0.000197961
0.000197854
0.000197735
0.000197602
0.000197535
0.000197436
0.000197217
0.000196867
0.000196388
0.000195758
0.0001949
0.000193655
0.000191751
0.000188788
0.000184364
0.000179531
0.000161503
0.000330379
0.000371796
0.000658881
)
;
    }
    sWall
    {
        type            nutkWallFunction;
        Cmu             0.09;
        kappa           0.41;
        E               9.8;
        value           uniform 0.000185068;
    }
    nWall
    {
        type            nutkWallFunction;
        Cmu             0.09;
        kappa           0.41;
        E               9.8;
        value           nonuniform List<scalar> 6(8.38036e-05 0.000107435 0.000128171 0.000186999 0.000223698 0.000161512);
    }
    sideWalls
    {
        type            empty;
    }
    glass1
    {
        type            nutkWallFunction;
        Cmu             0.09;
        kappa           0.41;
        E               9.8;
        value           nonuniform List<scalar> 9(7.85555e-05 0.000135538 0.000186471 0.000234652 0.000278575 0.000317707 0.000347414 0.000346268 0.000330677);
    }
    glass2
    {
        type            nutkWallFunction;
        Cmu             0.09;
        kappa           0.41;
        E               9.8;
        value           nonuniform List<scalar> 2(0.000145791 0.00016303);
    }
    sun
    {
        type            nutkWallFunction;
        Cmu             0.09;
        kappa           0.41;
        E               9.8;
        value           nonuniform List<scalar> 
14
(
7.86011e-05
8.1117e-05
7.21765e-05
7.37862e-05
7.58827e-05
7.79169e-05
7.99178e-05
8.19833e-05
8.41195e-05
8.60818e-05
8.78369e-05
8.9331e-05
9.04989e-05
9.12349e-05
)
;
    }
    heatsource1
    {
        type            nutkWallFunction;
        Cmu             0.09;
        kappa           0.41;
        E               9.8;
        value           nonuniform List<scalar> 3(7.80705e-05 8.13735e-05 8.38039e-05);
    }
    heatsource2
    {
        type            nutkWallFunction;
        Cmu             0.09;
        kappa           0.41;
        E               9.8;
        value           nonuniform List<scalar> 4(0.000100086 5.99227e-05 5.99226e-05 0.000105253);
    }
    Table_master
    {
        type            nutkWallFunction;
        Cmu             0.09;
        kappa           0.41;
        E               9.8;
        value           nonuniform List<scalar> 9(3.24978e-05 3.48005e-05 3.75305e-05 4.0522e-05 4.40077e-05 4.83291e-05 5.39236e-05 6.16221e-05 7.28145e-05);
    }
    Table_slave
    {
        type            nutkWallFunction;
        Cmu             0.09;
        kappa           0.41;
        E               9.8;
        value           nonuniform List<scalar> 9(6.69692e-05 6.6441e-05 6.62749e-05 6.64308e-05 6.70384e-05 6.82681e-05 7.0402e-05 7.40179e-05 8.04121e-05);
    }
    inlet
    {
        type            calculated;
        value           uniform 3.3541e-05;
    }
    outlet
    {
        type            calculated;
        value           nonuniform List<scalar> 2(0.00155976 0.00210835);
    }
}


// ************************************************************************* //
