// -*- C++ -*-
// File generated by PyFoam - sorry for the ugliness

FoamFile
{
 version 2.0;
 format ascii;
 class volScalarField;
 location "800";
 object T;
}

dimensions [ 0 0 0 1 0 0 0 ];

internalField nonuniform List<scalar> 459
(
  306.938
  306.735
  306.732
  306.736
  306.739
  306.741
  306.743
  306.744
  306.744
  306.743
  306.739
  306.734
  306.726
  306.715
  306.7
  305.787
  305.755
  305.725
  305.703
  305.703
  305.713
  305.728
  305.738
  305.746
  305.752
  305.757
  305.758
  305.76
  305.771
  305.798
  305.845
  305.887
  305.961
  306.048
  307.107
  306.822
  306.806
  306.813
  306.822
  306.828
  306.831
  306.833
  306.832
  306.828
  306.819
  306.806
  306.786
  306.758
  306.722
  306.685
  306.572
  305.904
  305.935
  305.935
  305.939
  305.947
  305.953
  305.955
  305.959
  305.965
  305.977
  305.998
  306.029
  306.063
  306.105
  306.159
  306.217
  306.194
  306.175
  306.259
  307.261
  306.905
  306.87
  306.877
  306.89
  306.901
  306.91
  306.915
  306.917
  306.913
  306.904
  306.886
  306.858
  306.817
  306.762
  306.697
  306.639
  306.207
  306.211
  306.229
  306.247
  306.252
  306.233
  306.167
  306.195
  306.227
  306.26
  306.295
  306.333
  306.379
  306.435
  306.505
  306.571
  306.548
  306.499
  306.493
  307.402
  307.004
  306.949
  306.948
  306.963
  306.977
  306.991
  307.001
  307.007
  307.007
  306.999
  306.982
  306.951
  306.906
  306.84
  306.754
  306.646
  306.541
  306.476
  306.55
  306.61
  306.659
  306.691
  306.713
  306.731
  306.732
  306.734
  306.736
  306.738
  306.74
  306.742
  306.742
  306.74
  306.729
  306.728
  306.721
  306.703
  307.535
  307.121
  307.064
  307.052
  307.057
  307.068
  307.081
  307.093
  307.102
  307.105
  307.1
  307.086
  307.061
  307.022
  306.972
  306.911
  306.847
  306.791
  306.752
  306.751
  306.762
  306.775
  306.783
  306.786
  306.786
  306.785
  306.784
  306.784
  306.785
  306.786
  306.789
  306.791
  306.794
  306.797
  306.802
  306.809
  306.819
  306.833
  306.843
  306.85
  307.658
  307.259
  307.227
  307.217
  307.203
  307.196
  307.197
  307.201
  307.204
  307.205
  307.2
  307.189
  307.167
  307.134
  307.091
  307.039
  306.985
  306.936
  306.899
  306.879
  306.867
  306.86
  306.855
  306.849
  306.844
  306.839
  306.835
  306.831
  306.829
  306.828
  306.828
  306.828
  306.83
  306.831
  306.834
  306.839
  306.846
  306.855
  306.867
  306.877
  307.776
  307.428
  307.455
  307.444
  307.404
  307.371
  307.349
  307.333
  307.32
  307.309
  307.299
  307.285
  307.265
  307.238
  307.2
  307.153
  307.105
  307.06
  307.02
  306.99
  306.967
  306.95
  306.936
  306.924
  306.913
  306.904
  306.896
  306.889
  306.883
  306.877
  306.873
  306.869
  306.866
  306.862
  306.859
  306.857
  306.859
  306.866
  306.877
  306.889
  307.935
  307.692
  307.678
  307.636
  307.584
  307.535
  307.496
  307.465
  307.439
  307.415
  307.393
  307.372
  307.349
  307.323
  307.291
  307.254
  307.213
  307.171
  307.132
  307.098
  307.07
  307.046
  307.026
  307.008
  306.993
  306.98
  306.967
  306.956
  306.946
  306.936
  306.927
  306.918
  306.91
  306.901
  306.892
  306.883
  306.877
  306.875
  306.883
  306.895
  308.151
  308.043
  307.789
  307.707
  307.649
  307.602
  307.562
  307.529
  307.499
  307.474
  307.451
  307.429
  307.406
  307.382
  307.356
  307.326
  307.294
  307.26
  307.226
  307.194
  307.165
  307.139
  307.116
  307.095
  307.076
  307.059
  307.043
  307.027
  307.013
  306.999
  306.985
  306.972
  306.959
  306.946
  306.933
  306.919
  306.905
  306.895
  306.891
  306.896
  306.748
  307.359
  307.485
  307.501
  307.498
  307.487
  307.474
  307.46
  307.446
  307.431
  307.415
  307.399
  307.381
  307.361
  307.339
  307.315
  307.29
  307.264
  307.239
  307.214
  307.191
  307.169
  307.148
  307.128
  307.109
  307.09
  307.072
  307.055
  307.038
  307.021
  307.004
  306.987
  306.97
  306.953
  306.935
  306.918
  306.904
  306.896
  306.868
  307.189
  307.27
  307.342
  307.386
  307.408
  307.416
  307.416
  307.413
  307.407
  307.399
  307.389
  307.378
  307.365
  307.351
  307.335
  307.317
  307.298
  307.277
  307.257
  307.236
  307.215
  307.194
  307.174
  307.153
  307.133
  307.114
  307.094
  307.074
  307.055
  307.035
  307.016
  306.995
  306.974
  306.952
  306.93
  306.908
  306.896
  309.203
  308.796
  307.073
  307.102
  307.15
  307.228
  307.291
  307.327
  307.346
  307.356
  307.36
  307.36
  307.358
  307.354
  307.348
  307.341
  307.333
  307.322
  307.311
  307.298
  307.283
  307.267
  307.251
  307.233
  307.215
  307.196
  307.176
  307.156
  307.136
  307.115
  307.094
  307.073
  307.051
  307.028
  307.004
  306.979
  306.951
  306.919
  306.876
  306.808
)
;

boundaryField
{
  floor
  {
    type wallHeatTransfer;
    Tinf uniform 305.2;
    alphaWall uniform 0.24;
    value nonuniform List<scalar> 29
(
  306.492
  305.637
  305.609
  305.579
  305.554
  305.549
  305.556
  305.568
  305.579
  305.588
  305.596
  305.601
  305.602
  305.603
  305.613
  305.637
  305.681
  305.721
  305.799
  305.854
  305.854
  306.072
  306.299
  306.478
  306.492
  305.637
  305.755
  306.036
  306.366
)
;
  }
  ceiling
  {
    type wallHeatTransfer;
    Tinf uniform 303.2;
    alphaWall uniform 0.24;
    value nonuniform List<scalar> 43
(
  308.719
  308.442
  306.935
  306.938
  306.944
  306.981
  307.022
  307.041
  307.048
  307.05
  307.048
  307.045
  307.042
  307.037
  307.032
  307.025
  307.018
  307.009
  306.999
  306.987
  306.974
  306.959
  306.944
  306.928
  306.911
  306.893
  306.875
  306.856
  306.837
  306.818
  306.798
  306.778
  306.756
  306.734
  306.711
  306.685
  306.655
  306.62
  306.574
  306.485
  307.911
  307.831
  306.774
)
;
  }
  sWall
  {
    type wallHeatTransfer;
    Tinf uniform 315.2;
    alphaWall uniform 0.36;
    value uniform 309.901;
  }
  nWall
  {
    type wallHeatTransfer;
    Tinf uniform 307.2;
    alphaWall uniform 0.36;
    value nonuniform List<scalar> 6
(
  306.922
  306.934
  306.937
  306.931
  306.926
  306.859
)
;
  }
  sideWalls
  {
    type empty;
  }
  glass1
  {
    type wallHeatTransfer;
    Tinf uniform 315.2;
    alphaWall uniform 4.3;
    value nonuniform List<scalar> 9
(
  313.287
  312.584
  312.115
  311.771
  311.524
  311.35
  311.253
  311.344
  311.536
)
;
  }
  glass2
  {
    type wallHeatTransfer;
    Tinf uniform 307.2;
    alphaWall uniform 4.3;
    value nonuniform List<scalar> 2
(
  307.096
  307.089
)
;
  }
  sun
  {
    type wallHeatTransfer;
    Tinf uniform 305.2;
    alphaWall uniform 0.24;
    value nonuniform List<scalar> 14
(
  306.671
  306.504
  306.482
  306.489
  306.497
  306.503
  306.508
  306.513
  306.517
  306.52
  306.52
  306.518
  306.513
  306.505
)
;
  }
  heatsource1
  {
    type fixedGradient;
    gradient uniform 0;
  }
  heatsource2
  {
    type fixedGradient;
    gradient uniform 0;
  }
  Table_master
  {
    type zeroGradient;
  }
  Table_slave
  {
    type zeroGradient;
  }
  inlet
  {
    type fixedValue;
    value uniform 299.15;
  }
  outlet
  {
    type zeroGradient;
  }
} 	// ************************************************************************* //

