// -*- C++ -*-
// File generated by PyFoam - sorry for the ugliness

FoamFile
{
 version 2.0;
 format ascii;
 class volVectorField;
 location "800";
 object U;
}

dimensions [ 0 1 -1 0 0 0 0 ];

internalField nonuniform List<vector> 459
(
  (0.0745099 0.0578063 0)
  (-0.118 0.00298065 0)
  (-0.102958 0.0023127 0)
  (-0.109214 0.00248425 0)
  (-0.11448 0.00154188 0)
  (-0.11832 0.000312505 0)
  (-0.120527 -0.00105914 0)
  (-0.120948 -0.00261244 0)
  (-0.119338 -0.0044718 0)
  (-0.115366 -0.0068193 0)
  (-0.108269 -0.0098258 0)
  (-0.0966541 -0.0138072 0)
  (-0.0789127 -0.0194974 0)
  (-0.0564657 -0.028189 0)
  (-0.0402006 -0.03997 0)
  (-0.0437932 -0.00621526 0)
  (0.0157571 -0.0013624 0)
  (0.0109503 0.00013664 0)
  (0.00432982 -0.000485529 0)
  (0.00447843 -0.000671217 0)
  (0.00638597 -0.000852888 0)
  (0.00830381 -0.00150005 0)
  (0.0104402 -0.0015271 0)
  (0.0123916 -0.00151456 0)
  (0.0139594 -0.00160196 0)
  (0.015162 -0.00173368 0)
  (0.0161367 -0.00169289 0)
  (0.0162278 -0.001247 0)
  (0.0150811 4.2055e-06 0)
  (0.0131544 0.00159041 0)
  (0.0111057 0.00292981 0)
  (0.00790736 0.00461006 0)
  (-0.0168074 0.0075236 0)
  (0.057112 -0.00260585 0)
  (0.241093 0.125141 0)
  (-0.132416 0.0179429 0)
  (-0.0881365 0.0101853 0)
  (-0.0972456 0.00933628 0)
  (-0.102712 0.00738154 0)
  (-0.106554 0.00511327 0)
  (-0.108953 0.00268517 0)
  (-0.109969 -3.92651e-06 0)
  (-0.109404 -0.00314847 0)
  (-0.107216 -0.00697862 0)
  (-0.10299 -0.0117365 0)
  (-0.0960617 -0.0178012 0)
  (-0.085859 -0.0259872 0)
  (-0.0731595 -0.0375344 0)
  (-0.0609785 -0.0516458 0)
  (-0.0515465 -0.0581038 0)
  (0.0315174 0.0152293 0)
  (-0.0660784 -0.00160397 0)
  (0.00102677 0.00345015 0)
  (-0.0112779 0.00332464 0)
  (-0.015114 0.00154317 0)
  (-0.0158872 -7.65987e-06 0)
  (-0.0156199 -0.00142392 0)
  (-0.0148639 -0.00261617 0)
  (-0.0139191 -0.00160444 0)
  (-0.0135714 -0.00051066 0)
  (-0.013915 0.000605692 0)
  (-0.0147831 0.00195681 0)
  (-0.0164152 0.00353785 0)
  (-0.01791 0.00516065 0)
  (-0.0191458 0.00644349 0)
  (-0.0190078 0.00581579 0)
  (-0.0158668 0.00231577 0)
  (-0.0112961 0.00452983 0)
  (-0.0274104 0.00719815 0)
  (0.0926238 -0.00234353 0)
  (0.377592 0.189229 0)
  (-0.164907 0.0393797 0)
  (-0.0694561 0.0197569 0)
  (-0.0817768 0.0151407 0)
  (-0.0869797 0.0110305 0)
  (-0.0899731 0.00721856 0)
  (-0.0917952 0.00349484 0)
  (-0.0927493 -0.000461231 0)
  (-0.0927539 -0.00488973 0)
  (-0.0919475 -0.0100948 0)
  (-0.0902382 -0.0163927 0)
  (-0.0875061 -0.0241421 0)
  (-0.0838147 -0.0337793 0)
  (-0.0796905 -0.0453769 0)
  (-0.0760783 -0.0570871 0)
  (-0.0755732 -0.0643549 0)
  (-0.0862381 -0.0655464 0)
  (-0.0831728 0.0287916 0)
  (-0.0322747 0.0100914 0)
  (-0.0398448 0.00525076 0)
  (-0.0409782 0.00169117 0)
  (-0.040445 -0.00139048 0)
  (-0.0392093 -0.00424102 0)
  (-0.0372977 -0.00604548 0)
  (-0.0416078 -0.00620875 0)
  (-0.043713 -0.00570796 0)
  (-0.0449285 -0.00536352 0)
  (-0.0452541 -0.00513477 0)
  (-0.0446061 -0.00505493 0)
  (-0.0435287 -0.00543564 0)
  (-0.0419807 -0.00676155 0)
  (-0.0381019 -0.0102553 0)
  (-0.0289332 -0.0137197 0)
  (-0.0190111 -0.00968217 0)
  (-0.0301353 -0.00475661 0)
  (0.115784 -0.00358916 0)
  (0.483498 0.240801 0)
  (-0.195141 0.0632927 0)
  (-0.0499115 0.0287777 0)
  (-0.0626064 0.0203926 0)
  (-0.0675943 0.0141659 0)
  (-0.0692095 0.00911667 0)
  (-0.0699029 0.00463893 0)
  (-0.0702017 0.000134783 0)
  (-0.0702083 -0.00473037 0)
  (-0.0702127 -0.0102375 0)
  (-0.0704004 -0.0167157 0)
  (-0.0710472 -0.0244431 0)
  (-0.0726268 -0.0335094 0)
  (-0.0758663 -0.0433533 0)
  (-0.0821705 -0.0520823 0)
  (-0.095232 -0.056288 0)
  (-0.116458 -0.0496648 0)
  (-0.119377 -0.0207181 0)
  (-0.0941934 0.0177092 0)
  (-0.0728293 0.00756304 0)
  (-0.0706621 0.00437941 0)
  (-0.0701295 0.00134433 0)
  (-0.0709818 -0.00171115 0)
  (-0.0724998 -0.00438018 0)
  (-0.0725334 -0.00425798 0)
  (-0.0701862 -0.00391878 0)
  (-0.0677138 -0.00435205 0)
  (-0.0649563 -0.00487697 0)
  (-0.0618468 -0.00557524 0)
  (-0.0581889 -0.0065432 0)
  (-0.0533163 -0.00794955 0)
  (-0.0460718 -0.0102203 0)
  (-0.0367403 -0.0141513 0)
  (-0.0315781 -0.0202691 0)
  (-0.0303525 -0.0222798 0)
  (-0.037688 -0.0213801 0)
  (0.123702 -0.00408022 0)
  (0.562429 0.281554 0)
  (-0.216408 0.0870161 0)
  (-0.0330737 0.0343966 0)
  (-0.037335 0.0225142 0)
  (-0.0409689 0.0155005 0)
  (-0.0415212 0.00973412 0)
  (-0.0413853 0.00475376 0)
  (-0.0412057 9.69729e-05 0)
  (-0.0411103 -0.00458882 0)
  (-0.0415219 -0.00958073 0)
  (-0.0427028 -0.0152174 0)
  (-0.0450258 -0.0216943 0)
  (-0.0489149 -0.0289473 0)
  (-0.054734 -0.0363599 0)
  (-0.0629607 -0.0425316 0)
  (-0.0743187 -0.0450372 0)
  (-0.086214 -0.0392847 0)
  (-0.0890813 -0.0208376 0)
  (-0.0819947 -0.00472635 0)
  (-0.0728069 -0.00016667 0)
  (-0.0675695 0.00126663 0)
  (-0.0640365 0.000509585 0)
  (-0.062057 -0.0010475 0)
  (-0.0612069 -0.00228871 0)
  (-0.0602849 -0.00236669 0)
  (-0.058826 -0.00268243 0)
  (-0.0572467 -0.00302696 0)
  (-0.0556289 -0.00342738 0)
  (-0.0539653 -0.00398145 0)
  (-0.0522298 -0.00481243 0)
  (-0.0502654 -0.00612991 0)
  (-0.0478549 -0.00846095 0)
  (-0.0455597 -0.0127792 0)
  (-0.0456858 -0.0191756 0)
  (-0.0506692 -0.0227973 0)
  (-0.0586147 -0.021555 0)
  (-0.0550061 -0.0107596 0)
  (-0.0439736 -0.00987479 0)
  (-0.0266008 -0.0153368 0)
  (-0.0905272 -0.0120152 0)
  (0.611419 0.316002 0)
  (-0.2319 0.103437 0)
  (-0.0174421 0.029064 0)
  (-0.00201618 0.018325 0)
  (-0.000965045 0.0163486 0)
  (-0.00181335 0.0106838 0)
  (-0.00240823 0.00491693 0)
  (-0.00314052 0.000298178 0)
  (-0.00446484 -0.00400116 0)
  (-0.00608368 -0.00830965 0)
  (-0.00847593 -0.0128505 0)
  (-0.0121043 -0.0178085 0)
  (-0.0174113 -0.0232303 0)
  (-0.0246314 -0.0287493 0)
  (-0.0337873 -0.0333315 0)
  (-0.0444445 -0.0349227 0)
  (-0.0540776 -0.0304533 0)
  (-0.0584303 -0.019394 0)
  (-0.0568413 -0.00980568 0)
  (-0.052844 -0.00522171 0)
  (-0.0494082 -0.00300711 0)
  (-0.0467287 -0.00258203 0)
  (-0.0449786 -0.00314497 0)
  (-0.0439598 -0.00384448 0)
  (-0.0431554 -0.0041432 0)
  (-0.042267 -0.00445508 0)
  (-0.0413325 -0.00483166 0)
  (-0.0403923 -0.00527202 0)
  (-0.0394733 -0.00582663 0)
  (-0.0386221 -0.0065717 0)
  (-0.0378939 -0.00763494 0)
  (-0.0374403 -0.00931151 0)
  (-0.0378101 -0.0120439 0)
  (-0.040053 -0.015631 0)
  (-0.0448357 -0.0181386 0)
  (-0.0505244 -0.0179774 0)
  (-0.0509558 -0.014384 0)
  (-0.04002 -0.0173089 0)
  (-0.0282497 -0.0282505 0)
  (-0.0903294 -0.0406697 0)
  (0.633323 0.346719 0)
  (-0.234905 0.0838774 0)
  (0.0216819 -0.0304838 0)
  (0.0574388 -0.00508539 0)
  (0.0564751 0.0140401 0)
  (0.0510572 0.0127741 0)
  (0.0478539 0.00707199 0)
  (0.045037 0.00278692 0)
  (0.0407057 -0.0011043 0)
  (0.0360129 -0.00517094 0)
  (0.0313071 -0.00908978 0)
  (0.0259595 -0.0127834 0)
  (0.0194604 -0.01646 0)
  (0.0114751 -0.0201849 0)
  (0.0018736 -0.0235516 0)
  (-0.00872848 -0.0250997 0)
  (-0.0179426 -0.0228563 0)
  (-0.0236684 -0.0170256 0)
  (-0.025396 -0.0112035 0)
  (-0.0248603 -0.00745639 0)
  (-0.0237384 -0.00527245 0)
  (-0.0226165 -0.00438537 0)
  (-0.0218276 -0.00434848 0)
  (-0.0213942 -0.00464647 0)
  (-0.0211146 -0.00494632 0)
  (-0.0208262 -0.00529131 0)
  (-0.0205056 -0.00569082 0)
  (-0.0201611 -0.00613843 0)
  (-0.0198165 -0.00665749 0)
  (-0.0195157 -0.0072947 0)
  (-0.0193321 -0.00812436 0)
  (-0.0194291 -0.00927972 0)
  (-0.0201623 -0.0108875 0)
  (-0.0220218 -0.0127233 0)
  (-0.0252997 -0.0139765 0)
  (-0.0295215 -0.0139954 0)
  (-0.0320251 -0.0138411 0)
  (-0.0269357 -0.0198893 0)
  (-0.0233873 -0.0398749 0)
  (-0.102069 -0.078326 0)
  (0.721757 0.351748 0)
  (-0.0404471 0.041736 0)
  (0.105786 -0.0909157 0)
  (0.157411 -0.0376529 0)
  (0.138256 0.0013695 0)
  (0.114044 0.00824616 0)
  (0.103272 0.00672339 0)
  (0.0964817 0.0050678 0)
  (0.0891394 0.0029146 0)
  (0.081272 -5.9463e-05 0)
  (0.073303 -0.00331653 0)
  (0.0654769 -0.00632955 0)
  (0.0574978 -0.00899929 0)
  (0.0489075 -0.0114334 0)
  (0.0395507 -0.0136033 0)
  (0.0297256 -0.0150217 0)
  (0.0205782 -0.0146941 0)
  (0.0136223 -0.0123673 0)
  (0.00952123 -0.0094009 0)
  (0.00751501 -0.00703283 0)
  (0.00657932 -0.00544075 0)
  (0.00611949 -0.00461499 0)
  (0.0057615 -0.00438215 0)
  (0.0053546 -0.00448461 0)
  (0.00492197 -0.00472821 0)
  (0.00452368 -0.00506423 0)
  (0.00417806 -0.00546305 0)
  (0.00387519 -0.00589283 0)
  (0.00358892 -0.0063572 0)
  (0.00329166 -0.00688768 0)
  (0.00294814 -0.0075251 0)
  (0.00248123 -0.00831376 0)
  (0.00173713 -0.00924681 0)
  (0.000528056 -0.0101104 0)
  (-0.00127908 -0.0103774 0)
  (-0.00367839 -0.00950834 0)
  (-0.00583869 -0.00804697 0)
  (-0.00450056 -0.0113754 0)
  (-0.00971645 -0.0350805 0)
  (-0.120195 -0.0972428 0)
  (0.841853 0.346347 0)
  (0.392207 0.194196 0)
  (0.219772 0.0583871 0)
  (0.291937 0.0686799 0)
  (0.222859 0.0636584 0)
  (0.16765 0.0481416 0)
  (0.145432 0.0350416 0)
  (0.133353 0.0257271 0)
  (0.12246 0.0185534 0)
  (0.112737 0.0127532 0)
  (0.104402 0.00811692 0)
  (0.0966551 0.00440267 0)
  (0.0888817 0.0014129 0)
  (0.0809103 -0.00100283 0)
  (0.0726859 -0.00296621 0)
  (0.0643837 -0.00437963 0)
  (0.0564653 -0.0049531 0)
  (0.0497354 -0.00456619 0)
  (0.044715 -0.00363838 0)
  (0.0412295 -0.00267282 0)
  (0.0387936 -0.00189387 0)
  (0.0369926 -0.00140039 0)
  (0.0355311 -0.00119479 0)
  (0.0342311 -0.00120127 0)
  (0.0330191 -0.00134407 0)
  (0.0318786 -0.00158768 0)
  (0.0308081 -0.00190689 0)
  (0.0297799 -0.00226042 0)
  (0.0287539 -0.00264876 0)
  (0.0277138 -0.00310314 0)
  (0.0266606 -0.00365616 0)
  (0.0255924 -0.00432665 0)
  (0.0244962 -0.00507906 0)
  (0.0233789 -0.00574059 0)
  (0.0223261 -0.00593048 0)
  (0.0215107 -0.00509095 0)
  (0.0212536 -0.00291403 0)
  (0.0211951 -0.00206856 0)
  (0.0151203 -0.0182284 0)
  (-0.0682707 -0.0901665 0)
  (-1.11949 -0.0190711 0)
  (0.123798 0.0726627 0)
  (0.0647521 0.0456287 0)
  (0.0727139 0.0383822 0)
  (0.0934627 0.0346333 0)
  (0.105277 0.030005 0)
  (0.108119 0.0252645 0)
  (0.107421 0.0212707 0)
  (0.105605 0.0182179 0)
  (0.10311 0.0159835 0)
  (0.100015 0.01434 0)
  (0.0964142 0.0130432 0)
  (0.092328 0.0118651 0)
  (0.0877786 0.0107107 0)
  (0.0830187 0.0097179 0)
  (0.0784224 0.00900043 0)
  (0.0743378 0.00851031 0)
  (0.0708826 0.0081332 0)
  (0.0679909 0.00779476 0)
  (0.0655405 0.00741387 0)
  (0.0634096 0.00687179 0)
  (0.0614596 0.00622248 0)
  (0.0596044 0.00548749 0)
  (0.0577966 0.00465903 0)
  (0.0560191 0.00372008 0)
  (0.0542373 0.00272208 0)
  (0.0524178 0.00163834 0)
  (0.0505627 0.000401622 0)
  (0.0486874 -0.00104689 0)
  (0.0468056 -0.00275243 0)
  (0.0449408 -0.00471503 0)
  (0.0431632 -0.00682056 0)
  (0.0416595 -0.0087517 0)
  (0.0408116 -0.00990776 0)
  (0.0410725 -0.00951175 0)
  (0.0411808 -0.00848482 0)
  (0.0348713 -0.0189548 0)
  (0.0137332 -0.0876495 0)
  (-0.523496 0.0714818 0)
  (0.202841 0.00441797 0)
  (0.070807 -0.0320113 0)
  (0.0540721 -0.0314481 0)
  (0.0717994 -0.0273271 0)
  (0.0856527 -0.0316834 0)
  (0.092931 -0.0396183 0)
  (0.0971959 -0.0480857 0)
  (0.0998388 -0.0559216 0)
  (0.10113 -0.0626427 0)
  (0.101296 -0.0681039 0)
  (0.100634 -0.0723621 0)
  (0.0993777 -0.0755797 0)
  (0.0976582 -0.0779424 0)
  (0.0955931 -0.0795868 0)
  (0.0933515 -0.0806586 0)
  (0.0911098 -0.0813663 0)
  (0.0889747 -0.0819176 0)
  (0.086973 -0.0824419 0)
  (0.08508 -0.0829807 0)
  (0.0832084 -0.0834724 0)
  (0.0812866 -0.0839392 0)
  (0.0792717 -0.0843821 0)
  (0.0771251 -0.0848091 0)
  (0.0748112 -0.0852081 0)
  (0.0723487 -0.0852687 0)
  (0.0697818 -0.0850798 0)
  (0.0671369 -0.0848348 0)
  (0.0643954 -0.0846188 0)
  (0.061519 -0.0844568 0)
  (0.0584939 -0.0843499 0)
  (0.055385 -0.0842987 0)
  (0.0524342 -0.0843204 0)
  (0.0502482 -0.0844469 0)
  (0.0501023 -0.0846312 0)
  (0.0532538 -0.0849982 0)
  (0.0647632 -0.0935936 0)
  (0.0424127 -0.173661 0)
  (0.580517 0.21053 0)
  (0.219344 -0.231835 0)
  (-0.25222 0.157885 0)
  (0.135173 0.0945681 0)
  (0.0798851 0.127745 0)
  (0.0142327 0.201494 0)
  (0.0267363 0.226053 0)
  (0.0448262 0.238736 0)
  (0.0572416 0.248732 0)
  (0.0668756 0.25729 0)
  (0.0750037 0.264451 0)
  (0.0816896 0.270184 0)
  (0.0869886 0.274542 0)
  (0.0911224 0.27766 0)
  (0.0943249 0.279732 0)
  (0.0967587 0.28096 0)
  (0.0985398 0.281505 0)
  (0.0997786 0.281545 0)
  (0.100571 0.281301 0)
  (0.100975 0.281001 0)
  (0.101011 0.280803 0)
  (0.100685 0.280762 0)
  (0.100009 0.280809 0)
  (0.0990017 0.280953 0)
  (0.0976662 0.281179 0)
  (0.0960021 0.281484 0)
  (0.0940014 0.281871 0)
  (0.0916401 0.281842 0)
  (0.0889181 0.28152 0)
  (0.0857968 0.281204 0)
  (0.0821972 0.281011 0)
  (0.0780119 0.280963 0)
  (0.0730959 0.281068 0)
  (0.0672575 0.281394 0)
  (0.0602573 0.282136 0)
  (0.0517602 0.283673 0)
  (0.0412755 0.286382 0)
  (0.0293041 0.290294 0)
  (0.0379183 0.306356 0)
  (-0.116937 0.46607 0)
)
;

boundaryField
{
  floor
  {
    type noSlip;
  }
  ceiling
  {
    type noSlip;
  }
  sWall
  {
    type noSlip;
  }
  nWall
  {
    type noSlip;
  }
  sideWalls
  {
    type empty;
  }
  glass1
  {
    type noSlip;
  }
  glass2
  {
    type noSlip;
  }
  sun
  {
    type noSlip;
  }
  heatsource1
  {
    type noSlip;
  }
  heatsource2
  {
    type noSlip;
  }
  Table_master
  {
    type noSlip;
  }
  Table_slave
  {
    type noSlip;
  }
  inlet
  {
    type fixedValue;
    value uniform (0.0707107 -0.0707107 0);
  }
  outlet
  {
    type zeroGradient;
  }
} 	// ************************************************************************* //

