/*--------------------------------*- C++ -*----------------------------------*\
  =========                 |
  \\      /  F ield         | OpenFOAM: The Open Source CFD Toolbox
   \\    /   O peration     | Website:  https://openfoam.org
    \\  /    A nd           | Version:  6
     \\/     M anipulation  |
\*---------------------------------------------------------------------------*/
FoamFile
{
    version     2.0;
    format      ascii;
    class       volScalarField;
    location    "1500";
    object      alphat;
}
// * * * * * * * * * * * * * * * * * * * * * * * * * * * * * * * * * * * * * //

dimensions      [1 -1 -1 0 0 0 0];

internalField   nonuniform List<scalar> 
459
(
0.000818166
0.000560337
0.000461347
0.000428933
0.000424144
0.000429296
0.000433295
0.000432103
0.000427546
0.000422592
0.000419681
0.000421629
0.000439381
0.000500317
0.000613514
0.000756501
0.000760892
0.000476318
0.000316306
0.00023843
0.000198319
0.000198474
0.000215995
0.000220624
0.000230874
0.000246489
0.00027306
0.000315329
0.000357708
0.000381266
0.000451947
0.000578526
0.000833997
0.00078152
0.00133459
0.00142542
0.00165105
0.00161646
0.00189495
0.00210491
0.00223405
0.00221156
0.00204597
0.00181741
0.00160387
0.00146379
0.00142263
0.00138679
0.00173076
0.000693605
0.000551017
0.00107229
0.00278839
0.00176392
0.00112634
0.000700431
0.000376716
0.000315984
0.000338418
0.000375049
0.000429083
0.000500481
0.000607319
0.000778392
0.00107202
0.00140517
0.00204003
0.00243047
0.00340201
0.00116677
0.00189819
0.00281519
0.00238108
0.00188723
0.00208656
0.0024716
0.00285309
0.00297098
0.00276393
0.00240012
0.0020372
0.00176647
0.00160959
0.00149414
0.00142962
0.00124596
0.00100344
0.00128282
0.00314763
0.00218371
0.00181554
0.00131446
0.000792748
0.00034661
0.000357913
0.000416116
0.000475095
0.000540441
0.000617558
0.000713015
0.000837289
0.00102027
0.00317424
0.00365509
0.00497381
0.00151331
0.00246958
0.00485119
0.00356731
0.00276745
0.00239232
0.00258829
0.00318259
0.00358552
0.00352919
0.00324932
0.00295981
0.00274629
0.00257042
0.00244269
0.00232371
0.00217073
0.00186794
0.00132536
0.00281017
0.00331361
0.00296281
0.00224513
0.00160551
0.00114062
0.000838459
0.000865741
0.000897032
0.000933633
0.000973483
0.00102016
0.00107859
0.00115853
0.00128657
0.00408086
0.00436135
0.00513041
0.00170154
0.00302108
0.00706935
0.00504068
0.00386156
0.00313716
0.0029614
0.00351057
0.00420745
0.00439714
0.00436326
0.00431431
0.00430771
0.00439784
0.00459895
0.00490156
0.00522202
0.00540829
0.0053752
0.00527771
0.00542462
0.00519422
0.00489803
0.00467433
0.00456472
0.00456921
0.00471254
0.00483037
0.00487948
0.00491689
0.00495322
0.00499164
0.0050324
0.00507838
0.00517175
0.00469817
0.00398815
0.00298467
0.00195734
0.00228505
0.00254696
0.00352806
0.00793779
0.00601828
0.00468075
0.00376907
0.0033387
0.00394876
0.00477537
0.0050518
0.00514912
0.00529428
0.0055236
0.00583155
0.00620463
0.00661467
0.00698965
0.00720127
0.00726344
0.00719872
0.00711032
0.00701467
0.00692535
0.00686309
0.00684438
0.00686434
0.00690051
0.00691066
0.00690304
0.00688632
0.00686336
0.00683153
0.00677623
0.00665708
0.0063942
0.00591221
0.00539065
0.00517311
0.00573257
0.00726781
0.00329821
0.00405482
0.00673864
0.00590588
0.00493902
0.00413831
0.00384065
0.00467066
0.00521558
0.00537678
0.00556792
0.00586731
0.00624008
0.00665186
0.00708049
0.00750595
0.00789525
0.0081947
0.00837313
0.00844658
0.00846337
0.00845057
0.00841362
0.00836441
0.00831211
0.00826011
0.00820684
0.00814797
0.008084
0.00801766
0.0079541
0.00790118
0.00786826
0.00786096
0.00786595
0.00783238
0.00771953
0.00765309
0.0087505
0.0115622
0.00405171
0.00476739
0.00647434
0.00719292
0.0051883
0.00460249
0.00469405
0.00523811
0.00541983
0.00569024
0.00611521
0.00659378
0.00708516
0.00755474
0.00799196
0.00840459
0.00878538
0.00911972
0.00937489
0.00954
0.00962815
0.00965707
0.00963717
0.00958166
0.00950283
0.00941053
0.00931102
0.00920674
0.00909829
0.00898703
0.00887677
0.0087751
0.00869526
0.00865973
0.00870446
0.00887382
0.00914387
0.00925326
0.00958138
0.0133517
0.00491705
0.0058104
0.00760394
0.0145593
0.00619417
0.00464797
0.0053333
0.00560017
0.00605604
0.00670995
0.00737919
0.00797547
0.00852344
0.00899555
0.00938298
0.00971528
0.0100051
0.0102596
0.0104692
0.0106229
0.0107186
0.0107611
0.0107568
0.0107143
0.0106429
0.0105513
0.0104463
0.0103314
0.0102084
0.0100781
0.00994185
0.00980265
0.00966628
0.0095446
0.00946397
0.00948367
0.00970131
0.0100969
0.0106337
0.0138786
0.00502415
0.0229794
0.0140715
0.00608613
0.00698184
0.00768108
0.00834828
0.008921
0.0094541
0.00993555
0.0103957
0.0108184
0.0111846
0.0114843
0.0117178
0.0118939
0.0120227
0.0121113
0.0121647
0.0121874
0.0121824
0.0121527
0.0121011
0.0120306
0.0119439
0.011843
0.011729
0.0116021
0.0114622
0.0113093
0.0111446
0.0109724
0.010805
0.0106766
0.0106693
0.0109275
0.0116301
0.0125375
0.00386288
0.00849538
0.0129247
0.0104119
0.00941651
0.00901961
0.00899848
0.00925699
0.00970442
0.0102658
0.0108734
0.0114609
0.0119753
0.0123876
0.0126942
0.0129091
0.0130534
0.0131475
0.0132072
0.0132434
0.0132625
0.0132681
0.0132618
0.0132443
0.0132161
0.0131771
0.0131268
0.0130648
0.0129899
0.0129007
0.0127957
0.012673
0.0125323
0.0123774
0.0122242
0.0120961
0.012063
0.0109705
0.00324762
0.00234962
0.00257544
0.00439812
0.0043649
0.00415465
0.00391826
0.00369305
0.00349178
0.00332166
0.00318709
0.00309008
0.00302956
0.0030006
0.00299495
0.00300309
0.00301673
0.00303019
0.00304056
0.00304695
0.00304968
0.00304958
0.00304752
0.00304424
0.00304026
0.00303591
0.00303138
0.00302676
0.00302206
0.00301727
0.00301234
0.00300725
0.00300196
0.00299642
0.00299055
0.00298426
0.00297847
0.00298165
0.00303576
0.00301993
0.00275716
)
;

boundaryField
{
    floor
    {
        type            compressible::alphatWallFunction;
        Prt             0.85;
        value           nonuniform List<scalar> 
29
(
8.6931e-05
0.000107935
0.000108567
6.60127e-05
4.07024e-05
2.77925e-05
2.09212e-05
2.09517e-05
2.3982e-05
2.47721e-05
2.65172e-05
2.91566e-05
3.35983e-05
4.05482e-05
4.7393e-05
5.11481e-05
6.22468e-05
8.15934e-05
0.000119161
0.000111592
0.000111591
0.000166135
0.000213426
0.000238639
8.693e-05
0.000107934
0.000152967
0.000182154
0.000188053
)
;
    }
    ceiling
    {
        type            compressible::alphatWallFunction;
        Prt             0.85;
        value           nonuniform List<scalar> 
43
(
0.000323496
0.000352268
0.000576576
0.000572576
0.00054725
0.000518621
0.000491185
0.000466521
0.00044556
0.0004289
0.000416846
0.000409305
0.00040569
0.000404981
0.000405993
0.00040769
0.000409364
0.00041065
0.00041144
0.000411774
0.000411755
0.000411493
0.000411078
0.000410575
0.000410027
0.000409457
0.000408875
0.000408283
0.000407679
0.000407058
0.000406418
0.000405752
0.000405055
0.000404317
0.000403524
0.000402795
0.000403184
0.000409924
0.000407939
0.000375011
0.000743523
0.000950098
0.00105109
)
;
    }
    sWall
    {
        type            compressible::alphatWallFunction;
        Prt             0.85;
        value           uniform 0.000322951;
    }
    nWall
    {
        type            compressible::alphatWallFunction;
        Prt             0.85;
        value           nonuniform List<scalar> 6(0.000348485 0.000442555 0.000534684 0.000511776 0.000436295 0.000375064);
    }
    sideWalls
    {
        type            empty;
    }
    glass1
    {
        type            compressible::alphatWallFunction;
        Prt             0.85;
        value           nonuniform List<scalar> 9(0.000116672 0.000189348 0.000265106 0.000339393 0.000409318 0.000472365 0.000536784 0.000622496 0.000745653);
    }
    glass2
    {
        type            compressible::alphatWallFunction;
        Prt             0.85;
        value           nonuniform List<scalar> 2(0.000645178 0.000657976);
    }
    sun
    {
        type            compressible::alphatWallFunction;
        Prt             0.85;
        value           nonuniform List<scalar> 
14
(
0.000117059
7.89527e-05
6.37948e-05
5.87543e-05
5.80074e-05
5.88164e-05
5.94439e-05
5.92591e-05
5.8547e-05
5.77708e-05
5.73132e-05
5.76167e-05
6.03894e-05
6.98105e-05
)
;
    }
    heatsource1
    {
        type            compressible::alphatWallFunction;
        Prt             0.85;
        value           nonuniform List<scalar> 3(0.000271679 0.00031411 0.00034755);
    }
    heatsource2
    {
        type            compressible::alphatWallFunction;
        Prt             0.85;
        value           nonuniform List<scalar> 4(9.83724e-05 7.71101e-05 7.71092e-05 0.0001429);
    }
    Table_master
    {
        type            compressible::alphatWallFunction;
        Prt             0.85;
        value           nonuniform List<scalar> 9(4.53272e-05 4.71292e-05 5.63435e-05 6.55122e-05 7.55037e-05 8.71033e-05 0.000101219 0.00011926 0.00014526);
    }
    Table_slave
    {
        type            compressible::alphatWallFunction;
        Prt             0.85;
        value           nonuniform List<scalar> 9(0.00011943 0.000123346 0.000127819 0.000133028 0.000138672 0.000145249 0.000153433 0.000164548 0.00018217);
    }
    inlet
    {
        type            fixedValue;
        value           uniform 1.94e-05;
    }
    outlet
    {
        type            zeroGradient;
    }
}


// ************************************************************************* //
