// -*- C++ -*-
// File generated by PyFoam - sorry for the ugliness

FoamFile
{
 version 2.0;
 format ascii;
 class volVectorField;
 location "700";
 object U;
}

dimensions [ 0 1 -1 0 0 0 0 ];

internalField nonuniform List<vector> 459
(
  (0.0344443 0.0849114 0)
  (-0.164955 0.0251838 0)
  (-0.188746 0.0178422 0)
  (-0.219322 0.0126503 0)
  (-0.242156 0.00695916 0)
  (-0.256549 0.000999269 0)
  (-0.261335 -0.00531525 0)
  (-0.25496 -0.0120048 0)
  (-0.237861 -0.0188654 0)
  (-0.210917 -0.0249444 0)
  (-0.176595 -0.0294008 0)
  (-0.137929 -0.0319024 0)
  (-0.0979337 -0.0330624 0)
  (-0.0616674 -0.0347509 0)
  (-0.0442852 -0.0385957 0)
  (0.000398944 0.0065949 0)
  (-0.0192717 -0.0181369 0)
  (0.00550542 -0.0259267 0)
  (0.0250888 -0.0187478 0)
  (0.0404349 -0.0123517 0)
  (0.0512301 -0.00777912 0)
  (0.0573014 -0.00472136 0)
  (0.0602002 -0.00314141 0)
  (0.0615015 -0.00243126 0)
  (0.0621916 -0.00206991 0)
  (0.0626124 -0.0018348 0)
  (0.0627939 -0.00164446 0)
  (0.0626742 -0.00140414 0)
  (0.0620378 -0.000944356 0)
  (0.0603106 0.000119259 0)
  (0.0562877 0.00232947 0)
  (0.0486475 0.00470744 0)
  (0.0409635 0.00662533 0)
  (-0.0114949 0.0201086 0)
  (0.207692 0.173566 0)
  (-0.153854 0.0658345 0)
  (-0.151032 0.0517307 0)
  (-0.182224 0.0409853 0)
  (-0.204417 0.0290159 0)
  (-0.218655 0.0158389 0)
  (-0.223823 0.00109455 0)
  (-0.218089 -0.0151282 0)
  (-0.202322 -0.0311334 0)
  (-0.177789 -0.0445231 0)
  (-0.147277 -0.0533662 0)
  (-0.114096 -0.0568175 0)
  (-0.0815553 -0.0554791 0)
  (-0.0538166 -0.0509843 0)
  (-0.0362437 -0.0439192 0)
  (-0.0217705 -0.0230916 0)
  (-0.00906789 0.00763865 0)
  (0.0635467 0.0287475 0)
  (0.0346375 -0.0201986 0)
  (0.0407153 -0.0297654 0)
  (0.0511856 -0.0244755 0)
  (0.0592202 -0.0162687 0)
  (0.0641871 -0.00903056 0)
  (0.0659762 -0.00355742 0)
  (0.0661319 -0.000606128 0)
  (0.0660189 0.000686874 0)
  (0.0660826 0.00131575 0)
  (0.0662184 0.00172257 0)
  (0.0663124 0.00208648 0)
  (0.0663213 0.00256514 0)
  (0.0661941 0.00350634 0)
  (0.0653897 0.00581923 0)
  (0.0614709 0.0121959 0)
  (0.051625 0.0175949 0)
  (0.0453657 0.0212383 0)
  (-0.0445683 0.0435964 0)
  (0.366329 0.259398 0)
  (-0.170592 0.104602 0)
  (-0.112718 0.0832733 0)
  (-0.142505 0.0639754 0)
  (-0.161673 0.0443095 0)
  (-0.174416 0.0230068 0)
  (-0.17903 -0.000929031 0)
  (-0.172464 -0.0269059 0)
  (-0.156517 -0.0519338 0)
  (-0.133209 -0.0719437 0)
  (-0.105689 -0.0841886 0)
  (-0.0771776 -0.0877671 0)
  (-0.0501786 -0.083685 0)
  (-0.0270914 -0.0733097 0)
  (-0.0102871 -0.0574918 0)
  (0.00329923 -0.0322016 0)
  (0.0118135 0.00149239 0)
  (0.104596 -0.0454819 0)
  (0.0717333 -0.0454671 0)
  (0.0681143 -0.0394375 0)
  (0.0706213 -0.0304468 0)
  (0.0722866 -0.0207982 0)
  (0.0728832 -0.0128151 0)
  (0.070932 -0.0105939 0)
  (0.0673963 -0.00771946 0)
  (0.0650738 -0.00617114 0)
  (0.0640513 -0.00529285 0)
  (0.0636245 -0.00474308 0)
  (0.0634537 -0.00435831 0)
  (0.0635977 -0.00394998 0)
  (0.0645268 -0.00317488 0)
  (0.0674654 -7.63089e-05 0)
  (0.0654738 0.0171885 0)
  (0.0521436 0.0294751 0)
  (0.0514356 0.0380433 0)
  (-0.0732871 0.0687759 0)
  (0.508721 0.328248 0)
  (-0.204913 0.138915 0)
  (-0.0727665 0.109562 0)
  (-0.100479 0.0828793 0)
  (-0.113608 0.0578058 0)
  (-0.122346 0.0302696 0)
  (-0.123895 -0.00222844 0)
  (-0.114196 -0.0383667 0)
  (-0.0969312 -0.0719937 0)
  (-0.0753122 -0.0972659 0)
  (-0.0522521 -0.111411 0)
  (-0.0303966 -0.114127 0)
  (-0.0107377 -0.107434 0)
  (0.00651615 -0.092427 0)
  (0.0203635 -0.0718724 0)
  (0.0347966 -0.0465484 0)
  (0.0573525 -0.0216933 0)
  (0.0876774 -0.00626145 0)
  (0.0967627 -0.0369936 0)
  (0.0835008 -0.0399154 0)
  (0.0755407 -0.0340992 0)
  (0.0722286 -0.0269349 0)
  (0.0703958 -0.0190775 0)
  (0.0700703 -0.0102286 0)
  (0.0724409 -0.00605666 0)
  (0.0765568 -0.00504436 0)
  (0.0799938 -0.00446485 0)
  (0.0824911 -0.00394671 0)
  (0.0841142 -0.00318084 0)
  (0.0842436 -0.00194742 0)
  (0.0817828 -4.37186e-05 0)
  (0.0755307 0.00279661 0)
  (0.0627393 0.00709256 0)
  (0.0519271 0.0275017 0)
  (0.0413233 0.0445142 0)
  (0.0543972 0.0582054 0)
  (-0.1029 0.0919633 0)
  (0.63061 0.381578 0)
  (-0.246257 0.167062 0)
  (-0.0339857 0.123968 0)
  (-0.0569698 0.092964 0)
  (-0.0615559 0.065012 0)
  (-0.0633474 0.0337028 0)
  (-0.0567427 -0.00597457 0)
  (-0.0410095 -0.0517145 0)
  (-0.0227154 -0.0912292 0)
  (-0.00504866 -0.118275 0)
  (0.0106867 -0.131308 0)
  (0.0228091 -0.131111 0)
  (0.0323486 -0.121477 0)
  (0.0397664 -0.104771 0)
  (0.0461032 -0.0835327 0)
  (0.0533395 -0.0603861 0)
  (0.0639941 -0.0404293 0)
  (0.0746118 -0.0332333 0)
  (0.0767832 -0.0378868 0)
  (0.0705873 -0.0354612 0)
  (0.0630643 -0.0294033 0)
  (0.0576865 -0.0230669 0)
  (0.0542347 -0.0169081 0)
  (0.0528557 -0.0109594 0)
  (0.053685 -0.0063373 0)
  (0.0562786 -0.00429107 0)
  (0.0590282 -0.0035167 0)
  (0.0616803 -0.00275903 0)
  (0.0640873 -0.00115504 0)
  (0.0658451 0.00182491 0)
  (0.0657525 0.00625162 0)
  (0.0632634 0.0122548 0)
  (0.0577271 0.0204958 0)
  (0.0510401 0.0360355 0)
  (0.0419383 0.0548448 0)
  (0.0626077 0.0756553 0)
  (-0.0163162 0.104802 0)
  (0.0449035 0.0339389 0)
  (-0.0620509 -0.0350085 0)
  (-0.269059 -0.0572039 0)
  (0.717691 0.426138 0)
  (-0.285669 0.186071 0)
  (-0.00540913 0.118732 0)
  (-0.012498 0.0919622 0)
  (-0.00561809 0.0653077 0)
  (0.00227616 0.0295561 0)
  (0.0253891 -0.019469 0)
  (0.0464987 -0.0692093 0)
  (0.0623945 -0.107234 0)
  (0.072441 -0.130495 0)
  (0.0770242 -0.139511 0)
  (0.0772556 -0.13646 0)
  (0.0745701 -0.124464 0)
  (0.0702425 -0.106426 0)
  (0.0657066 -0.085243 0)
  (0.0623775 -0.063674 0)
  (0.0612403 -0.0452885 0)
  (0.060478 -0.0344928 0)
  (0.0564663 -0.0307644 0)
  (0.04895 -0.0273842 0)
  (0.0409687 -0.0227525 0)
  (0.034871 -0.0180952 0)
  (0.0310237 -0.0138926 0)
  (0.0295037 -0.0101693 0)
  (0.0301204 -0.00755998 0)
  (0.0322922 -0.00678095 0)
  (0.0351435 -0.00675866 0)
  (0.0383748 -0.00635417 0)
  (0.0418252 -0.00465484 0)
  (0.0452471 -0.0008367 0)
  (0.0481931 0.00532574 0)
  (0.0495896 0.0134467 0)
  (0.0497125 0.0237531 0)
  (0.0500382 0.0381523 0)
  (0.0491595 0.0563646 0)
  (0.0709631 0.0795598 0)
  (0.0527158 0.0983324 0)
  (0.0914279 0.06901 0)
  (0.114628 0.0447939 0)
  (-0.129254 -0.00808468 0)
  (0.768784 0.466809 0)
  (-0.304195 0.171851 0)
  (0.0210086 0.0672621 0)
  (0.0469358 0.0648914 0)
  (0.0656704 0.0501794 0)
  (0.0894189 0.0111459 0)
  (0.123111 -0.0426562 0)
  (0.144024 -0.0870596 0)
  (0.152907 -0.117113 0)
  (0.151473 -0.132763 0)
  (0.142022 -0.135668 0)
  (0.12722 -0.128425 0)
  (0.109621 -0.11402 0)
  (0.0913861 -0.0953249 0)
  (0.0743043 -0.0750216 0)
  (0.0595999 -0.0553541 0)
  (0.0479197 -0.0388434 0)
  (0.0384982 -0.0279187 0)
  (0.0294885 -0.0222766 0)
  (0.0205676 -0.0188589 0)
  (0.0128289 -0.0158317 0)
  (0.00725817 -0.0132544 0)
  (0.00395021 -0.0112422 0)
  (0.002762 -0.00974229 0)
  (0.00337598 -0.00904719 0)
  (0.00520758 -0.00935474 0)
  (0.00767379 -0.00996916 0)
  (0.0106024 -0.0100707 0)
  (0.0140671 -0.00884295 0)
  (0.0181988 -0.00530582 0)
  (0.0239806 0.00148168 0)
  (0.0295404 0.0104432 0)
  (0.0347472 0.0208905 0)
  (0.0415157 0.0336181 0)
  (0.0491379 0.0485062 0)
  (0.070859 0.0672494 0)
  (0.0842771 0.0759232 0)
  (0.115941 0.0537242 0)
  (0.155581 0.0444051 0)
  (-0.0372382 0.0926317 0)
  (0.872863 0.469007 0)
  (-0.0675695 0.151035 0)
  (0.107481 -0.0124676 0)
  (0.17734 -0.0331748 0)
  (0.196718 -0.0413418 0)
  (0.228965 -0.06399 0)
  (0.250772 -0.0882785 0)
  (0.256139 -0.107165 0)
  (0.245739 -0.118097 0)
  (0.223308 -0.120514 0)
  (0.19314 -0.115166 0)
  (0.159241 -0.103778 0)
  (0.124849 -0.0882745 0)
  (0.0924426 -0.0706747 0)
  (0.063785 -0.0530133 0)
  (0.0396601 -0.036769 0)
  (0.0207961 -0.0238211 0)
  (0.00678643 -0.0157848 0)
  (-0.00406344 -0.0120735 0)
  (-0.0121071 -0.0106759 0)
  (-0.0181609 -0.00994375 0)
  (-0.0223318 -0.00957969 0)
  (-0.0248828 -0.00953139 0)
  (-0.0260884 -0.00977385 0)
  (-0.0262693 -0.0104061 0)
  (-0.0258527 -0.0114186 0)
  (-0.0251888 -0.0124889 0)
  (-0.0243482 -0.0131936 0)
  (-0.0231522 -0.0130602 0)
  (-0.0212002 -0.0115157 0)
  (-0.0174932 -0.00782626 0)
  (-0.00849579 -0.00128925 0)
  (-0.000440853 0.00697133 0)
  (0.009968 0.0151593 0)
  (0.0216433 0.0223721 0)
  (0.0416308 0.0299283 0)
  (0.0609905 0.0236234 0)
  (0.0814152 -0.00410166 0)
  (0.140642 0.0385732 0)
  (-0.404312 0.202137 0)
  (1.01866 0.423249 0)
  (0.484799 0.279971 0)
  (0.499236 0.185128 0)
  (0.522136 0.11702 0)
  (0.503435 0.0697459 0)
  (0.465249 0.0241491 0)
  (0.419761 -0.0167306 0)
  (0.369303 -0.0470549 0)
  (0.313833 -0.064745 0)
  (0.256081 -0.0707787 0)
  (0.199378 -0.0679325 0)
  (0.146479 -0.059473 0)
  (0.0988534 -0.0477736 0)
  (0.0578744 -0.0347594 0)
  (0.024261 -0.0223175 0)
  (-0.00289756 -0.0117844 0)
  (-0.0209268 -0.00583021 0)
  (-0.0319698 -0.00384109 0)
  (-0.0394206 -0.00390991 0)
  (-0.0448832 -0.00478246 0)
  (-0.0491669 -0.00578395 0)
  (-0.0525169 -0.00678227 0)
  (-0.0551671 -0.00777313 0)
  (-0.0573521 -0.00877456 0)
  (-0.0593445 -0.00984138 0)
  (-0.0614672 -0.0109325 0)
  (-0.0640436 -0.0118382 0)
  (-0.0673536 -0.0122023 0)
  (-0.0717045 -0.0115047 0)
  (-0.0775243 -0.00904693 0)
  (-0.0853543 -0.00402451 0)
  (-0.0951422 0.00408796 0)
  (-0.104879 0.0146783 0)
  (-0.119489 0.0280284 0)
  (-0.14249 0.0443566 0)
  (-0.176401 0.062641 0)
  (-0.224678 0.0790257 0)
  (-0.280522 0.0910082 0)
  (-0.34898 0.098482 0)
  (-0.609821 0.101798 0)
  (-0.162448 0.00661784 0)
  (0.126266 0.0138619 0)
  (0.212402 -0.0168018 0)
  (0.198557 -0.0325264 0)
  (0.184041 -0.0354494 0)
  (0.163613 -0.0344328 0)
  (0.135323 -0.031247 0)
  (0.102095 -0.0260793 0)
  (0.0672849 -0.0193801 0)
  (0.0334015 -0.0117025 0)
  (-0.000782135 -0.00335491 0)
  (-0.028447 0.00308925 0)
  (-0.047055 0.00676612 0)
  (-0.0591054 0.00833399 0)
  (-0.0660372 0.0081894 0)
  (-0.0703163 0.00741431 0)
  (-0.0735071 0.00658651 0)
  (-0.0763415 0.00577971 0)
  (-0.0792091 0.00486246 0)
  (-0.0821256 0.00391074 0)
  (-0.0851582 0.00295955 0)
  (-0.0884068 0.00203951 0)
  (-0.0919842 0.00118142 0)
  (-0.0959797 0.000529246 0)
  (-0.100461 0.000305335 0)
  (-0.105425 0.000785286 0)
  (-0.110795 0.0022691 0)
  (-0.116395 0.00504165 0)
  (-0.121633 0.00954843 0)
  (-0.12569 0.0167255 0)
  (-0.129002 0.0276963 0)
  (-0.131819 0.042834 0)
  (-0.134805 0.0613853 0)
  (-0.138415 0.0799827 0)
  (-0.13966 0.0890093 0)
  (-0.122606 0.0677601 0)
  (-0.0817768 -0.0227965 0)
  (-0.274406 -0.198035 0)
  (0.00326558 0.197529 0)
  (0.0453403 0.0757007 0)
  (0.00497752 0.00979331 0)
  (-0.00541238 0.000869648 0)
  (-0.01347 0.00121795 0)
  (-0.0251774 -0.000455157 0)
  (-0.0404462 -0.0009466 0)
  (-0.0568714 0.000386187 0)
  (-0.0717344 0.00231679 0)
  (-0.0827199 0.00345837 0)
  (-0.0888468 0.00254182 0)
  (-0.0924557 -0.000672123 0)
  (-0.0939249 -0.00535989 0)
  (-0.0942507 -0.0106396 0)
  (-0.0943037 -0.0162977 0)
  (-0.0947711 -0.0217894 0)
  (-0.0958155 -0.0265894 0)
  (-0.0973575 -0.0304044 0)
  (-0.0993108 -0.0330724 0)
  (-0.101734 -0.034794 0)
  (-0.104536 -0.0356103 0)
  (-0.107601 -0.0354969 0)
  (-0.110864 -0.0348581 0)
  (-0.114249 -0.0336906 0)
  (-0.117605 -0.0318753 0)
  (-0.120668 -0.0291615 0)
  (-0.123044 -0.0251198 0)
  (-0.12423 -0.0190684 0)
  (-0.123788 -0.0110493 0)
  (-0.120893 -0.000873912 0)
  (-0.114174 0.0121885 0)
  (-0.102337 0.0287908 0)
  (-0.0849241 0.0485138 0)
  (-0.062727 0.0675862 0)
  (-0.0385118 0.078925 0)
  (0.000812217 0.0634828 0)
  (0.143542 -0.007407 0)
  (-0.205219 -0.108502 0)
  (-0.0433589 -0.319862 0)
  (-0.412655 -0.122262 0)
  (-0.300653 0.0667276 0)
  (-0.24306 -0.0181595 0)
  (-0.202047 -0.0256919 0)
  (-0.188162 -0.0148299 0)
  (-0.182623 -0.00500479 0)
  (-0.179426 0.003221 0)
  (-0.176063 0.0110305 0)
  (-0.171246 0.0187924 0)
  (-0.164508 0.026631 0)
  (-0.1559 0.0346176 0)
  (-0.145985 0.0426241 0)
  (-0.135936 0.0505242 0)
  (-0.126701 0.0583588 0)
  (-0.118901 0.0660969 0)
  (-0.112763 0.0735512 0)
  (-0.108223 0.0803833 0)
  (-0.105051 0.0861225 0)
  (-0.102991 0.0904213 0)
  (-0.101795 0.0931429 0)
  (-0.101295 0.0944138 0)
  (-0.101386 0.0942571 0)
  (-0.10198 0.0926592 0)
  (-0.102991 0.0902476 0)
  (-0.104337 0.08712 0)
  (-0.105882 0.0833589 0)
  (-0.107396 0.0790287 0)
  (-0.10849 0.0741471 0)
  (-0.108497 0.0686903 0)
  (-0.106157 0.0638969 0)
  (-0.0996356 0.0607796 0)
  (-0.0865791 0.0601903 0)
  (-0.065132 0.0630652 0)
  (-0.0355908 0.0699548 0)
  (0.00982093 0.080073 0)
  (0.0539569 0.0814618 0)
  (0.0951879 0.0684968 0)
  (0.161205 0.0424893 0)
  (-0.233003 -0.00798617 0)
)
;

boundaryField
{
  floor
  {
    type noSlip;
  }
  ceiling
  {
    type noSlip;
  }
  sWall
  {
    type noSlip;
  }
  nWall
  {
    type noSlip;
  }
  sideWalls
  {
    type empty;
  }
  glass1
  {
    type noSlip;
  }
  glass2
  {
    type noSlip;
  }
  sun
  {
    type noSlip;
  }
  heatsource1
  {
    type noSlip;
  }
  heatsource2
  {
    type noSlip;
  }
  Table_master
  {
    type noSlip;
  }
  Table_slave
  {
    type noSlip;
  }
  inlet
  {
    type fixedValue;
    value uniform (0.277164 -0.114805 0);
  }
  outlet
  {
    type zeroGradient;
  }
} 	// ************************************************************************* //

