// -*- C++ -*-
// File generated by PyFoam - sorry for the ugliness

FoamFile
{
 version 2.0;
 format ascii;
 class volVectorField;
 location "200";
 object U;
}

dimensions [ 0 1 -1 0 0 0 0 ];

internalField nonuniform List<vector> 459
(
  (0.0879469 0.0632999 0)
  (-0.12815 0.00291219 0)
  (-0.112307 0.00539023 0)
  (-0.124915 0.00622692 0)
  (-0.137197 0.00529475 0)
  (-0.14796 0.00361427 0)
  (-0.156246 0.00142433 0)
  (-0.1613 -0.0012411 0)
  (-0.162372 -0.00441843 0)
  (-0.158646 -0.00824691 0)
  (-0.149081 -0.0129227 0)
  (-0.132057 -0.018681 0)
  (-0.106551 -0.0264443 0)
  (-0.0775608 -0.0379702 0)
  (-0.0656809 -0.0526992 0)
  (0.0321059 0.006464 0)
  (-0.020575 -0.00203938 0)
  (-0.0141227 -0.0025401 0)
  (-0.00964388 -0.000926008 0)
  (-0.0076742 -0.000584267 0)
  (-0.00488971 -0.00237599 0)
  (-0.00067471 -0.00685788 0)
  (0.00519154 -0.00577307 0)
  (0.0104024 -0.00459002 0)
  (0.0142641 -0.00380952 0)
  (0.0170622 -0.00333549 0)
  (0.0189987 -0.00279884 0)
  (0.0200974 -0.00186717 0)
  (0.0189287 5.5326e-05 0)
  (0.0168485 0.00217685 0)
  (0.0155998 0.00172808 0)
  (0.0172723 -0.00266307 0)
  (0.0258729 -0.002948 0)
  (-0.0119017 0.0100092 0)
  (0.275251 0.137416 0)
  (-0.14776 0.0186733 0)
  (-0.1003 0.0187771 0)
  (-0.117517 0.019643 0)
  (-0.130529 0.0181493 0)
  (-0.141628 0.0152106 0)
  (-0.150265 0.011137 0)
  (-0.155917 0.00596051 0)
  (-0.157949 -0.000385924 0)
  (-0.155674 -0.00798973 0)
  (-0.148679 -0.016722 0)
  (-0.136285 -0.0265412 0)
  (-0.118441 -0.0382048 0)
  (-0.0972571 -0.0532232 0)
  (-0.0774878 -0.070021 0)
  (-0.0615357 -0.0765608 0)
  (0.0405767 0.0150475 0)
  (0.0871962 0.00476066 0)
  (0.0119877 0.00754722 0)
  (-0.0117903 0.00628451 0)
  (-0.0122073 0.00328831 0)
  (-0.0126538 0.000179672 0)
  (-0.011753 -0.00385225 0)
  (-0.0116349 -0.00785134 0)
  (-0.0120936 -0.00615557 0)
  (-0.0117015 -0.0040215 0)
  (-0.0125548 -0.00220469 0)
  (-0.014075 -0.000255149 0)
  (-0.0166144 0.00201626 0)
  (-0.0192888 0.00424144 0)
  (-0.0211789 0.00537934 0)
  (-0.0223459 0.00314466 0)
  (-0.0195659 -0.00451568 0)
  (-0.00999729 -0.00838271 0)
  (-0.000296039 -0.0021829 0)
  (-0.0809602 0.0221164 0)
  (0.43239 0.20945 0)
  (-0.188931 0.0435606 0)
  (-0.0823208 0.0359382 0)
  (-0.105563 0.0328717 0)
  (-0.118416 0.0292458 0)
  (-0.129311 0.0239943 0)
  (-0.13804 0.0171207 0)
  (-0.144253 0.00860606 0)
  (-0.147422 -0.00155033 0)
  (-0.146766 -0.0131801 0)
  (-0.142538 -0.0260623 0)
  (-0.134975 -0.0397738 0)
  (-0.124947 -0.0542425 0)
  (-0.114007 -0.0691264 0)
  (-0.104027 -0.0815301 0)
  (-0.0983633 -0.0855245 0)
  (-0.106444 -0.0801711 0)
  (-0.00558084 0.0289374 0)
  (-0.0436476 0.0157641 0)
  (-0.045367 0.0104903 0)
  (-0.0426107 0.0029056 0)
  (-0.0399774 -0.00381132 0)
  (-0.0359487 -0.00905198 0)
  (-0.0286908 -0.00730832 0)
  (-0.039623 -0.00661322 0)
  (-0.0441255 -0.00524626 0)
  (-0.0468645 -0.00428115 0)
  (-0.0480528 -0.0035302 0)
  (-0.0475208 -0.00293526 0)
  (-0.0460001 -0.00270235 0)
  (-0.044303 -0.0034846 0)
  (-0.0407036 -0.00683141 0)
  (-0.0281107 -0.011979 0)
  (-0.0215147 -0.00558272 0)
  (-0.0315988 0.000481529 0)
  (-0.0951928 0.00435114 0)
  (0.559686 0.269145 0)
  (-0.23186 0.0728039 0)
  (-0.060583 0.053548 0)
  (-0.0906635 0.0461225 0)
  (-0.102629 0.0406525 0)
  (-0.112241 0.0336689 0)
  (-0.120119 0.024813 0)
  (-0.126004 0.0138785 0)
  (-0.129408 0.000796009 0)
  (-0.129587 -0.0140457 0)
  (-0.127162 -0.0296398 0)
  (-0.123425 -0.044975 0)
  (-0.120006 -0.0594129 0)
  (-0.118695 -0.0719376 0)
  (-0.121656 -0.0797963 0)
  (-0.132986 -0.0776385 0)
  (-0.153431 -0.055117 0)
  (-0.150061 0.0019588 0)
  (-0.106563 0.0209768 0)
  (-0.0948522 0.0122878 0)
  (-0.0848659 0.00590611 0)
  (-0.0813012 -0.000757902 0)
  (-0.0801698 -0.00660506 0)
  (-0.0811619 -0.0104538 0)
  (-0.0788081 -0.00801404 0)
  (-0.0713702 -0.00721131 0)
  (-0.0642524 -0.0073996 0)
  (-0.0571309 -0.00761262 0)
  (-0.0499676 -0.00783687 0)
  (-0.042687 -0.00814841 0)
  (-0.0347931 -0.00873702 0)
  (-0.0252558 -0.00999074 0)
  (-0.013946 -0.0126124 0)
  (-0.0101416 -0.0182046 0)
  (-0.00185282 -0.0133186 0)
  (0.0127333 -0.00822764 0)
  (-0.0309141 -0.000124585 0)
  (0.660149 0.318263 0)
  (-0.268722 0.103562 0)
  (-0.0387273 0.0683691 0)
  (-0.0731382 0.0574787 0)
  (-0.0839478 0.0501484 0)
  (-0.0910829 0.0414893 0)
  (-0.0966671 0.0309298 0)
  (-0.10064 0.0180274 0)
  (-0.102498 0.00255914 0)
  (-0.101221 -0.0147528 0)
  (-0.0983395 -0.0317511 0)
  (-0.0956183 -0.0467412 0)
  (-0.0947336 -0.0591548 0)
  (-0.0969294 -0.068568 0)
  (-0.103038 -0.0738927 0)
  (-0.113115 -0.0728894 0)
  (-0.122825 -0.0607842 0)
  (-0.123117 -0.0328662 0)
  (-0.111777 -0.00940979 0)
  (-0.0975449 -0.000880198 0)
  (-0.0866638 -0.00115859 0)
  (-0.0800272 -0.00414545 0)
  (-0.0764033 -0.00764517 0)
  (-0.0745154 -0.00977898 0)
  (-0.0720157 -0.00930608 0)
  (-0.0681873 -0.00937915 0)
  (-0.0640351 -0.00957975 0)
  (-0.0598056 -0.0097997 0)
  (-0.0555377 -0.0100427 0)
  (-0.0511942 -0.0104759 0)
  (-0.0465332 -0.0114704 0)
  (-0.0411375 -0.0136198 0)
  (-0.0349609 -0.0176195 0)
  (-0.0283205 -0.0236729 0)
  (-0.0186733 -0.0269238 0)
  (0.000775592 -0.0284813 0)
  (0.0286803 -0.0258239 0)
  (0.0642224 -0.0306314 0)
  (0.0988743 -0.0083915 0)
  (-0.0447532 0.040501 0)
  (0.724975 0.36222 0)
  (-0.298368 0.131364 0)
  (-0.0230968 0.0752259 0)
  (-0.0512511 0.0667529 0)
  (-0.0614157 0.0575334 0)
  (-0.0656596 0.0464681 0)
  (-0.0675929 0.0341002 0)
  (-0.0680217 0.0195434 0)
  (-0.0663769 0.00192158 0)
  (-0.0611945 -0.0175813 0)
  (-0.0567621 -0.034862 0)
  (-0.0541228 -0.0481648 0)
  (-0.0544357 -0.057569 0)
  (-0.0582578 -0.0634439 0)
  (-0.0655393 -0.0654205 0)
  (-0.0751004 -0.0619527 0)
  (-0.0832464 -0.0508674 0)
  (-0.0854107 -0.0335529 0)
  (-0.0809016 -0.0186052 0)
  (-0.0734055 -0.0109112 0)
  (-0.0668373 -0.0084605 0)
  (-0.0624154 -0.00885851 0)
  (-0.0599763 -0.0104327 0)
  (-0.058802 -0.0116794 0)
  (-0.0578093 -0.0119528 0)
  (-0.0565654 -0.0121916 0)
  (-0.0553063 -0.0124319 0)
  (-0.0542401 -0.0125808 0)
  (-0.0535403 -0.0126656 0)
  (-0.0533526 -0.0129309 0)
  (-0.0537059 -0.013916 0)
  (-0.0545097 -0.0164235 0)
  (-0.0556521 -0.0212262 0)
  (-0.0565142 -0.0284242 0)
  (-0.0547384 -0.036961 0)
  (-0.0470979 -0.0475238 0)
  (-0.0330011 -0.0594538 0)
  (-0.0155147 -0.0657718 0)
  (0.0684821 -0.0114019 0)
  (-0.0849671 0.0892161 0)
  (0.743766 0.402501 0)
  (-0.311675 0.132394 0)
  (-0.00769765 0.0516848 0)
  (-0.0104098 0.0728981 0)
  (-0.0249497 0.066422 0)
  (-0.029639 0.0479729 0)
  (-0.0275699 0.0321187 0)
  (-0.02328 0.0158888 0)
  (-0.0143496 -0.00407865 0)
  (-0.00631604 -0.0244255 0)
  (-0.00181027 -0.0398214 0)
  (-0.000694279 -0.0498151 0)
  (-0.00299414 -0.0554563 0)
  (-0.00863049 -0.0578535 0)
  (-0.017117 -0.0573744 0)
  (-0.0270494 -0.0532812 0)
  (-0.0357095 -0.0446036 0)
  (-0.0403694 -0.0328525 0)
  (-0.0406373 -0.022208 0)
  (-0.0385408 -0.0153953 0)
  (-0.0362836 -0.0120745 0)
  (-0.0348924 -0.011098 0)
  (-0.0345754 -0.011362 0)
  (-0.0350621 -0.0118725 0)
  (-0.0358563 -0.0121467 0)
  (-0.0367353 -0.0122988 0)
  (-0.0378195 -0.0122465 0)
  (-0.0393423 -0.0118475 0)
  (-0.0416706 -0.0110649 0)
  (-0.045346 -0.0101566 0)
  (-0.0510003 -0.00985332 0)
  (-0.0591677 -0.0112551 0)
  (-0.0699438 -0.0152375 0)
  (-0.082711 -0.0221517 0)
  (-0.0961972 -0.0323161 0)
  (-0.108446 -0.0463082 0)
  (-0.11574 -0.061441 0)
  (-0.113067 -0.0635095 0)
  (-0.101826 -0.0148987 0)
  (-0.153299 0.160556 0)
  (0.839119 0.423854 0)
  (-0.132757 0.109031 0)
  (0.0625916 -0.0151201 0)
  (0.0965707 0.0340904 0)
  (0.0659867 0.0474761 0)
  (0.0474929 0.0288641 0)
  (0.0471339 0.0110813 0)
  (0.0516002 -0.00484227 0)
  (0.0620268 -0.0202916 0)
  (0.0667125 -0.0332843 0)
  (0.066301 -0.0427553 0)
  (0.0624117 -0.048403 0)
  (0.0559661 -0.0507071 0)
  (0.0474877 -0.0503718 0)
  (0.0373727 -0.0479586 0)
  (0.0263866 -0.0435713 0)
  (0.016148 -0.0369734 0)
  (0.00857655 -0.0288279 0)
  (0.00427485 -0.021158 0)
  (0.00215103 -0.015576 0)
  (0.000799598 -0.0122552 0)
  (-0.000616868 -0.010708 0)
  (-0.00241554 -0.0102883 0)
  (-0.0045868 -0.0103318 0)
  (-0.0069336 -0.0104168 0)
  (-0.00934636 -0.0103703 0)
  (-0.0118707 -0.00996357 0)
  (-0.0146235 -0.00891428 0)
  (-0.0178466 -0.00696737 0)
  (-0.0220082 -0.00404434 0)
  (-0.0277601 -0.000381906 0)
  (-0.0367423 0.00301173 0)
  (-0.0515802 0.00392146 0)
  (-0.0741239 -0.000524377 0)
  (-0.104585 -0.0123093 0)
  (-0.140281 -0.0309379 0)
  (-0.175602 -0.0529592 0)
  (-0.211713 -0.0749795 0)
  (-0.264906 -0.0905863 0)
  (-0.481173 -0.090736 0)
  (0.969369 0.407121 0)
  (0.460444 0.266031 0)
  (0.425167 0.186597 0)
  (0.395698 0.168885 0)
  (0.304524 0.134704 0)
  (0.243706 0.0906289 0)
  (0.214883 0.053511 0)
  (0.198395 0.0247994 0)
  (0.181096 0.00111097 0)
  (0.16299 -0.0170731 0)
  (0.146323 -0.0290688 0)
  (0.131055 -0.0356126 0)
  (0.116788 -0.0379552 0)
  (0.103259 -0.0372532 0)
  (0.090309 -0.0344264 0)
  (0.0779595 -0.0301757 0)
  (0.0666736 -0.0250297 0)
  (0.0572887 -0.0195778 0)
  (0.0501986 -0.0145902 0)
  (0.0449493 -0.010723 0)
  (0.0407795 -0.00815565 0)
  (0.0371126 -0.00672463 0)
  (0.0336198 -0.00610264 0)
  (0.0301684 -0.0059224 0)
  (0.02676 -0.00587859 0)
  (0.0234179 -0.00574909 0)
  (0.0201528 -0.00529667 0)
  (0.0170091 -0.00423208 0)
  (0.0140685 -0.00223868 0)
  (0.0115402 0.000912206 0)
  (0.00982522 0.00545412 0)
  (0.00828485 0.011125 0)
  (0.00688593 0.016718 0)
  (0.0053434 0.0200065 0)
  (0.0039948 0.0188982 0)
  (0.00396759 0.012378 0)
  (0.00323438 0.00130803 0)
  (0.011334 -0.0112855 0)
  (0.0535174 -0.0759399 0)
  (-0.369366 -0.194288 0)
  (-0.80358 0.101988 0)
  (0.20531 0.161775 0)
  (0.186987 0.128362 0)
  (0.186969 0.0906948 0)
  (0.199136 0.0583317 0)
  (0.204343 0.0328258 0)
  (0.201266 0.0142775 0)
  (0.193156 0.00117523 0)
  (0.182374 -0.00832514 0)
  (0.169944 -0.0144269 0)
  (0.156525 -0.0173758 0)
  (0.142836 -0.0175311 0)
  (0.129518 -0.0154207 0)
  (0.117083 -0.0117346 0)
  (0.105954 -0.00727967 0)
  (0.0965096 -0.0028951 0)
  (0.0888113 0.000841657 0)
  (0.0825599 0.00348267 0)
  (0.0773516 0.00492164 0)
  (0.0728293 0.0053326 0)
  (0.0687226 0.00502385 0)
  (0.0648567 0.00433608 0)
  (0.0611465 0.00356996 0)
  (0.0575699 0.00296411 0)
  (0.054161 0.00273529 0)
  (0.0510395 0.00311093 0)
  (0.0484224 0.00431003 0)
  (0.0467909 0.00628258 0)
  (0.0461621 0.00918982 0)
  (0.0471999 0.0128992 0)
  (0.0502273 0.0160455 0)
  (0.0551292 0.016096 0)
  (0.0614467 0.0104591 0)
  (0.0695477 -0.00260828 0)
  (0.0762264 -0.0194539 0)
  (0.0839378 -0.0364539 0)
  (0.107523 -0.0663418 0)
  (-0.0487123 -0.12563 0)
  (-0.451355 0.135404 0)
  (0.201311 0.0791817 0)
  (0.120312 0.0582694 0)
  (0.137253 0.0460075 0)
  (0.168089 0.0249886 0)
  (0.187141 0.00190375 0)
  (0.194583 -0.0192146 0)
  (0.194798 -0.0373406 0)
  (0.189708 -0.0497632 0)
  (0.180849 -0.0582413 0)
  (0.169668 -0.0639737 0)
  (0.157432 -0.0678299 0)
  (0.14516 -0.0703933 0)
  (0.133625 -0.0719614 0)
  (0.123359 -0.0726282 0)
  (0.114661 -0.072408 0)
  (0.107672 -0.070618 0)
  (0.102358 -0.068172 0)
  (0.0984018 -0.0658749 0)
  (0.0953186 -0.0640716 0)
  (0.092655 -0.0627974 0)
  (0.0901007 -0.0619241 0)
  (0.0875079 -0.0612689 0)
  (0.0848637 -0.0606496 0)
  (0.082262 -0.0598957 0)
  (0.0799003 -0.058838 0)
  (0.0781153 -0.0572619 0)
  (0.0771893 -0.0546031 0)
  (0.0774667 -0.0507135 0)
  (0.0794213 -0.0462446 0)
  (0.083277 -0.0429853 0)
  (0.0885271 -0.0436886 0)
  (0.0941657 -0.0489092 0)
  (0.0978206 -0.0550397 0)
  (0.0982426 -0.0613648 0)
  (0.0960361 -0.0665837 0)
  (0.119274 -0.0762907 0)
  (-0.0364136 -0.0950851 0)
  (0.730126 0.160065 0)
  (0.0296157 -0.28887 0)
  (-0.33811 0.153775 0)
  (0.148221 0.0694153 0)
  (0.0532661 0.0854785 0)
  (0.0815394 0.0991839 0)
  (0.120882 0.103737 0)
  (0.146657 0.109291 0)
  (0.15812 0.119359 0)
  (0.159564 0.133686 0)
  (0.155628 0.146976 0)
  (0.148819 0.15977 0)
  (0.140805 0.172363 0)
  (0.132827 0.184552 0)
  (0.125807 0.195681 0)
  (0.120297 0.204877 0)
  (0.116464 0.211401 0)
  (0.11416 0.21495 0)
  (0.113074 0.214423 0)
  (0.112827 0.211527 0)
  (0.113014 0.207903 0)
  (0.113292 0.204442 0)
  (0.113435 0.201486 0)
  (0.113329 0.199064 0)
  (0.112951 0.197057 0)
  (0.112347 0.195295 0)
  (0.111613 0.19359 0)
  (0.110892 0.191747 0)
  (0.110378 0.189517 0)
  (0.110342 0.186339 0)
  (0.111145 0.181936 0)
  (0.113011 0.176546 0)
  (0.115688 0.171139 0)
  (0.118035 0.167415 0)
  (0.117551 0.164626 0)
  (0.111091 0.158473 0)
  (0.0958111 0.148496 0)
  (0.0729558 0.131696 0)
  (0.114257 0.121411 0)
  (-0.414784 0.232893 0)
)
;

boundaryField
{
  floor
  {
    type noSlip;
  }
  ceiling
  {
    type noSlip;
  }
  sWall
  {
    type noSlip;
  }
  nWall
  {
    type noSlip;
  }
  sideWalls
  {
    type empty;
  }
  glass1
  {
    type noSlip;
  }
  glass2
  {
    type noSlip;
  }
  sun
  {
    type noSlip;
  }
  heatsource1
  {
    type noSlip;
  }
  heatsource2
  {
    type noSlip;
  }
  Table_master
  {
    type noSlip;
  }
  Table_slave
  {
    type noSlip;
  }
  inlet
  {
    type fixedValue;
    value uniform (0.0707107 -0.0707107 0);
  }
  outlet
  {
    type zeroGradient;
  }
} 	// ************************************************************************* //

