// -*- C++ -*-
// File generated by PyFoam - sorry for the ugliness

FoamFile
{
 version 2.0;
 format ascii;
 class volVectorField;
 location "130";
 object U;
}

dimensions [ 0 1 -1 0 0 0 0 ];

internalField nonuniform List<vector> 459
(
  (-0.0976588 -0.108602 0)
  (0.154461 -0.055212 0)
  (0.202797 -0.0458819 0)
  (0.229132 -0.0339028 0)
  (0.251998 -0.0219639 0)
  (0.264075 -0.0136451 0)
  (0.265621 -0.00812151 0)
  (0.260416 -0.00393137 0)
  (0.251345 -0.000415984 0)
  (0.239093 0.00283096 0)
  (0.223315 0.00628686 0)
  (0.202924 0.0106978 0)
  (0.175542 0.0176338 0)
  (0.133521 0.0324157 0)
  (0.116441 0.0731534 0)
  (-0.134537 0.00426653 0)
  (0.0267815 0.00755867 0)
  (-0.0086995 -0.0139024 0)
  (0.0205716 -0.0242463 0)
  (0.0398355 -0.0186903 0)
  (0.0563948 -0.0124455 0)
  (0.06729 -0.00752687 0)
  (0.0732787 -0.00494705 0)
  (0.0762789 -0.00386074 0)
  (0.0780571 -0.00334299 0)
  (0.0793972 -0.00299399 0)
  (0.0804018 -0.00267347 0)
  (0.0809011 -0.00223971 0)
  (0.0804038 -0.00137645 0)
  (0.0778724 0.000518226 0)
  (0.071273 0.00444454 0)
  (0.0596602 0.0103036 0)
  (0.000890888 0.0239502 0)
  (0.126308 0.00486044 0)
  (-0.250293 -0.149173 0)
  (0.162475 -0.0781527 0)
  (0.153073 -0.074849 0)
  (0.176021 -0.0468669 0)
  (0.196649 -0.0210424 0)
  (0.205087 -0.0044063 0)
  (0.204518 0.00580005 0)
  (0.199105 0.0126106 0)
  (0.191224 0.0176907 0)
  (0.18146 0.0221177 0)
  (0.169824 0.0269808 0)
  (0.156193 0.0335507 0)
  (0.140965 0.043589 0)
  (0.124336 0.0602141 0)
  (0.1239 0.0924236 0)
  (0.113729 0.0819852 0)
  (0.0696681 0.0700404 0)
  (-0.177083 0.00714694 0)
  (0.0438914 -0.000691978 0)
  (0.0331488 -0.0285944 0)
  (0.0471597 -0.0346267 0)
  (0.0610089 -0.0271074 0)
  (0.070862 -0.0167753 0)
  (0.0749773 -0.00751005 0)
  (0.076024 -0.00236469 0)
  (0.0761998 -0.000289282 0)
  (0.0764934 0.000569538 0)
  (0.0768718 0.00105223 0)
  (0.0771689 0.00149331 0)
  (0.0773479 0.002296 0)
  (0.0772364 0.0040418 0)
  (0.0761115 0.00806023 0)
  (0.0706606 0.0181235 0)
  (0.0612515 0.0284071 0)
  (-0.0019673 0.0441385 0)
  (0.195798 0.0282113 0)
  (-0.357921 -0.193055 0)
  (0.179211 -0.137446 0)
  (0.0903002 -0.122615 0)
  (0.117115 -0.0708646 0)
  (0.132366 -0.0331918 0)
  (0.133965 -0.0106738 0)
  (0.129876 0.00360446 0)
  (0.12518 0.0135761 0)
  (0.120651 0.0210001 0)
  (0.1161 0.027361 0)
  (0.111353 0.0340828 0)
  (0.106449 0.0424997 0)
  (0.101916 0.0538975 0)
  (0.0972958 0.0692742 0)
  (0.0981728 0.0900895 0)
  (0.0881505 0.0858864 0)
  (0.0668609 0.105171 0)
  (-0.214597 0.00103423 0)
  (0.081519 -0.0486679 0)
  (0.0709997 -0.0548544 0)
  (0.0761698 -0.0491021 0)
  (0.0826698 -0.0368293 0)
  (0.0864005 -0.0242813 0)
  (0.0832027 -0.0193234 0)
  (0.0762184 -0.0133063 0)
  (0.0711426 -0.00994881 0)
  (0.0684968 -0.00798653 0)
  (0.0669562 -0.00671328 0)
  (0.0658218 -0.00579333 0)
  (0.0651551 -0.00487957 0)
  (0.0659588 -0.00323485 0)
  (0.0705161 0.0017994 0)
  (0.0686004 0.0241234 0)
  (0.0613737 0.0402561 0)
  (-0.00813359 0.0591662 0)
  (0.236372 0.0593969 0)
  (-0.431429 -0.211947 0)
  (0.182286 -0.17717 0)
  (0.0132338 -0.149971 0)
  (0.0577871 -0.0751931 0)
  (0.0636004 -0.029758 0)
  (0.0575208 -0.00494286 0)
  (0.052891 0.00948902 0)
  (0.0524142 0.0181842 0)
  (0.0535608 0.0242766 0)
  (0.055336 0.0298067 0)
  (0.0574737 0.0360707 0)
  (0.0600519 0.0439991 0)
  (0.0635089 0.0542916 0)
  (0.0677408 0.0673293 0)
  (0.0773164 0.0843723 0)
  (0.089901 0.0931099 0)
  (0.10588 0.114019 0)
  (0.136558 -0.00658973 0)
  (0.125006 -0.0217669 0)
  (0.12372 -0.0484252 0)
  (0.110314 -0.0549365 0)
  (0.101148 -0.0483936 0)
  (0.0962801 -0.036238 0)
  (0.0935062 -0.0214736 0)
  (0.0950562 -0.0119967 0)
  (0.0980981 -0.00712259 0)
  (0.0972954 -0.00388186 0)
  (0.0928681 -0.00158858 0)
  (0.0862295 0.000221787 0)
  (0.0780514 0.00181714 0)
  (0.0682624 0.00344559 0)
  (0.0561716 0.00549503 0)
  (0.0351263 0.00887089 0)
  (0.0339418 0.0344527 0)
  (0.0453445 0.0481691 0)
  (-0.0161057 0.0647128 0)
  (0.261907 0.099321 0)
  (-0.457578 -0.207084 0)
  (0.143765 -0.189842 0)
  (-0.0543213 -0.1662 0)
  (0.0091502 -0.0720888 0)
  (0.0039178 -0.0210512 0)
  (-0.00393188 0.000929017 0)
  (-0.00469022 0.010511 0)
  (-0.00181294 0.015966 0)
  (0.00276495 0.0206492 0)
  (0.00821566 0.0255528 0)
  (0.0144917 0.0313059 0)
  (0.021757 0.0383943 0)
  (0.0306007 0.0471296 0)
  (0.0414083 0.0577249 0)
  (0.0577259 0.0707304 0)
  (0.078642 0.0780072 0)
  (0.104354 0.0787712 0)
  (0.127577 0.0205492 0)
  (0.130943 -0.0108806 0)
  (0.121484 -0.0346488 0)
  (0.107853 -0.0419726 0)
  (0.094924 -0.0378231 0)
  (0.0845612 -0.0282246 0)
  (0.0768624 -0.0164587 0)
  (0.0718943 -0.00462788 0)
  (0.0676418 0.00306456 0)
  (0.0625654 0.00739042 0)
  (0.0563938 0.0100303 0)
  (0.0496544 0.0120414 0)
  (0.0425237 0.0139693 0)
  (0.0349351 0.0161985 0)
  (0.0271203 0.0191175 0)
  (0.0169306 0.0228649 0)
  (0.014912 0.0329624 0)
  (0.0356467 0.0412982 0)
  (0.00202686 0.0484134 0)
  (0.142249 0.0943427 0)
  (0.11263 0.084031 0)
  (-0.126971 0.0751191 0)
  (0.42501 -0.0112719 0)
  (-0.471224 -0.181996 0)
  (0.0876379 -0.180692 0)
  (-0.0859284 -0.173535 0)
  (-0.0338083 -0.0774235 0)
  (-0.0358777 -0.0215367 0)
  (-0.0384899 -0.000905256 0)
  (-0.0375563 0.00680687 0)
  (-0.0345561 0.0108183 0)
  (-0.0298563 0.0143177 0)
  (-0.0237238 0.0182217 0)
  (-0.0162198 0.0227784 0)
  (-0.00725806 0.0282022 0)
  (0.00436421 0.0349774 0)
  (0.0180363 0.0424292 0)
  (0.0360349 0.0498894 0)
  (0.0574552 0.0513643 0)
  (0.0828025 0.0429316 0)
  (0.0996038 0.0113671 0)
  (0.101513 -0.0134203 0)
  (0.0933465 -0.0268696 0)
  (0.0808106 -0.0300686 0)
  (0.0674896 -0.0258834 0)
  (0.0555477 -0.0177742 0)
  (0.0458306 -0.00801654 0)
  (0.0379254 0.00174693 0)
  (0.0322221 0.00836892 0)
  (0.0272644 0.0122411 0)
  (0.0222854 0.0148282 0)
  (0.0172163 0.0170602 0)
  (0.012065 0.0193977 0)
  (0.00700284 0.0220916 0)
  (0.00281114 0.0251333 0)
  (-0.00120689 0.027278 0)
  (-0.000419745 0.0263873 0)
  (0.0169084 0.0251394 0)
  (-0.00476768 0.0153717 0)
  (0.0531094 0.0568874 0)
  (0.0589028 0.0705505 0)
  (-0.14988 0.0780071 0)
  (0.395903 -0.0368125 0)
  (-0.495563 -0.14362 0)
  (0.0445945 -0.157845 0)
  (-0.111626 -0.187389 0)
  (-0.0617261 -0.0894046 0)
  (-0.0583421 -0.0256204 0)
  (-0.0564741 -0.00316813 0)
  (-0.0545145 0.00388253 0)
  (-0.0517961 0.00657274 0)
  (-0.0477083 0.00859119 0)
  (-0.0421382 0.0109658 0)
  (-0.0350659 0.0138604 0)
  (-0.0264227 0.0172469 0)
  (-0.0157742 0.0211797 0)
  (-0.00268675 0.0254788 0)
  (0.014056 0.0290605 0)
  (0.0322547 0.0281113 0)
  (0.0509987 0.0206324 0)
  (0.0610582 0.00417077 0)
  (0.060945 -0.00942512 0)
  (0.0533646 -0.0166105 0)
  (0.0418721 -0.0175323 0)
  (0.0295387 -0.0135985 0)
  (0.0183059 -0.00688651 0)
  (0.00865733 0.00097234 0)
  (0.00204809 0.00808061 0)
  (-0.00203336 0.0130409 0)
  (-0.00521224 0.0162364 0)
  (-0.00819549 0.0187111 0)
  (-0.0110996 0.0209813 0)
  (-0.0137794 0.0232161 0)
  (-0.0157616 0.0252851 0)
  (-0.01621 0.0265352 0)
  (-0.0151027 0.0251975 0)
  (-0.0116009 0.0194267 0)
  (-0.00331993 0.0141901 0)
  (-0.0163947 0.00784701 0)
  (0.0121749 0.0452792 0)
  (0.0451892 0.0867282 0)
  (-0.199713 0.100522 0)
  (0.477962 -0.0465931 0)
  (-0.533051 -0.0837675 0)
  (0.0203835 -0.119934 0)
  (-0.129908 -0.217978 0)
  (-0.0764321 -0.114166 0)
  (-0.069581 -0.0333841 0)
  (-0.0649487 -0.00586847 0)
  (-0.0630028 0.00168764 0)
  (-0.0609921 0.00344737 0)
  (-0.0578293 0.00412689 0)
  (-0.0533818 0.00504857 0)
  (-0.0476741 0.00644125 0)
  (-0.0407208 0.00820285 0)
  (-0.0324141 0.0102062 0)
  (-0.0225957 0.0122378 0)
  (-0.0109931 0.0138765 0)
  (0.00168474 0.0135211 0)
  (0.0127052 0.00986888 0)
  (0.0170702 0.00243545 0)
  (0.0152408 -0.00403245 0)
  (0.00828551 -0.00708787 0)
  (-0.00163864 -0.0061908 0)
  (-0.0118186 -0.00231295 0)
  (-0.0205662 0.00279419 0)
  (-0.0264084 0.00775871 0)
  (-0.0297653 0.0121028 0)
  (-0.0315939 0.0155902 0)
  (-0.0327216 0.0183804 0)
  (-0.0335171 0.0207462 0)
  (-0.0339651 0.0227781 0)
  (-0.0337895 0.0243577 0)
  (-0.0324788 0.0251059 0)
  (-0.029464 0.0242999 0)
  (-0.0247923 0.0209284 0)
  (-0.0188626 0.0151284 0)
  (-0.0120034 0.0108842 0)
  (-0.0106645 0.0098569 0)
  (0.00877576 0.0353713 0)
  (0.0610354 0.0872463 0)
  (-0.166965 0.0897404 0)
  (0.81672 0.0141006 0)
  (-0.607292 0.175471 0)
  (0.00661764 -0.0830847 0)
  (-0.129677 -0.253168 0)
  (-0.0613168 -0.131978 0)
  (-0.064446 -0.0298665 0)
  (-0.0673443 -0.00172245 0)
  (-0.0689171 0.0042741 0)
  (-0.0683971 0.00462822 0)
  (-0.0665788 0.00415824 0)
  (-0.0638241 0.00402401 0)
  (-0.060292 0.00439835 0)
  (-0.0561012 0.005147 0)
  (-0.0512834 0.00613641 0)
  (-0.0458554 0.00724365 0)
  (-0.0399077 0.00830752 0)
  (-0.0340341 0.00883229 0)
  (-0.029644 0.00822968 0)
  (-0.0288533 0.00613427 0)
  (-0.0316793 0.00420132 0)
  (-0.0369338 0.00381298 0)
  (-0.0433078 0.00521775 0)
  (-0.0488644 0.00761518 0)
  (-0.0527189 0.010331 0)
  (-0.0548926 0.0131356 0)
  (-0.0556037 0.0159234 0)
  (-0.0552455 0.0185371 0)
  (-0.0541766 0.0208761 0)
  (-0.0525548 0.0228668 0)
  (-0.050342 0.0243565 0)
  (-0.0473729 0.0250727 0)
  (-0.0434215 0.0246032 0)
  (-0.0383522 0.0224429 0)
  (-0.0323831 0.0182481 0)
  (-0.0259144 0.0125971 0)
  (-0.0189885 0.00736901 0)
  (-0.0116944 0.00479016 0)
  (0.00811586 0.0180798 0)
  (0.0553853 0.0591536 0)
  (-0.129159 0.0525615 0)
  (0.800908 0.0552143 0)
  (-0.0716361 -0.187506 0)
  (-0.014716 -0.109838 0)
  (-0.0538264 -0.00646389 0)
  (-0.0742167 0.0106041 0)
  (-0.0773043 0.0117518 0)
  (-0.0768072 0.010276 0)
  (-0.0760285 0.00885483 0)
  (-0.0752248 0.00804646 0)
  (-0.0742929 0.00807735 0)
  (-0.0731631 0.0086413 0)
  (-0.0718264 0.00947064 0)
  (-0.0703564 0.0103653 0)
  (-0.0687982 0.011471 0)
  (-0.0673619 0.0126366 0)
  (-0.0665385 0.0135549 0)
  (-0.0670193 0.0139722 0)
  (-0.0688338 0.0143113 0)
  (-0.0713219 0.015108 0)
  (-0.0736473 0.016445 0)
  (-0.0751577 0.018027 0)
  (-0.0756129 0.0196496 0)
  (-0.0750134 0.0212405 0)
  (-0.0734214 0.0227381 0)
  (-0.0709518 0.0240166 0)
  (-0.0677317 0.0249268 0)
  (-0.0638583 0.0253223 0)
  (-0.0594035 0.0250357 0)
  (-0.0544483 0.0238574 0)
  (-0.0491297 0.0215266 0)
  (-0.0437225 0.017769 0)
  (-0.0387444 0.0124289 0)
  (-0.0349151 0.00565544 0)
  (-0.0327856 -0.00242483 0)
  (-0.0306262 -0.00608943 0)
  (-0.0222964 0.00556629 0)
  (-0.0134407 0.0321632 0)
  (-0.176965 0.0275698 0)
  (0.482754 0.0847345 0)
  (-0.245458 -0.185221 0)
  (-0.0863972 -0.111575 0)
  (-0.0969447 -0.106268 0)
  (-0.091826 -0.107875 0)
  (-0.0868588 -0.108619 0)
  (-0.084588 -0.108964 0)
  (-0.0841934 -0.109167 0)
  (-0.084861 -0.109161 0)
  (-0.0860558 -0.108741 0)
  (-0.0873469 -0.108022 0)
  (-0.088479 -0.106815 0)
  (-0.0893197 -0.104985 0)
  (-0.0897866 -0.102813 0)
  (-0.0898204 -0.100695 0)
  (-0.0895618 -0.0991932 0)
  (-0.0893266 -0.098744 0)
  (-0.0892965 -0.0991717 0)
  (-0.0893631 -0.0999521 0)
  (-0.0892565 -0.10068 0)
  (-0.0887318 -0.101174 0)
  (-0.0876415 -0.101289 0)
  (-0.085889 -0.100915 0)
  (-0.083398 -0.100037 0)
  (-0.0801288 -0.0987499 0)
  (-0.0760894 -0.0972093 0)
  (-0.0713378 -0.0956138 0)
  (-0.0659908 -0.0942364 0)
  (-0.0602509 -0.0934646 0)
  (-0.0544564 -0.0938108 0)
  (-0.0491748 -0.0958272 0)
  (-0.0453118 -0.0998296 0)
  (-0.0440232 -0.105248 0)
  (-0.0461725 -0.109188 0)
  (-0.0499229 -0.109554 0)
  (-0.0522708 -0.098226 0)
  (-0.0666351 -0.0680536 0)
  (-0.14031 -0.0524531 0)
  (0.376084 -0.0134393 0)
  (-0.526269 -0.0795139 0)
  (0.0275072 0.0791728 0)
  (-0.0309851 0.536932 0)
  (-0.0518393 0.374875 0)
  (-0.0689534 0.368619 0)
  (-0.0774548 0.373721 0)
  (-0.0823053 0.372908 0)
  (-0.0863968 0.370725 0)
  (-0.0903227 0.368855 0)
  (-0.0940751 0.367371 0)
  (-0.0975702 0.365782 0)
  (-0.100735 0.364318 0)
  (-0.10346 0.362736 0)
  (-0.105561 0.360923 0)
  (-0.106852 0.359233 0)
  (-0.107217 0.358076 0)
  (-0.106696 0.357915 0)
  (-0.105513 0.358999 0)
  (-0.103904 0.361128 0)
  (-0.101979 0.363869 0)
  (-0.0997265 0.366841 0)
  (-0.0971056 0.369787 0)
  (-0.0940659 0.372504 0)
  (-0.0905395 0.374854 0)
  (-0.0864605 0.376771 0)
  (-0.0818061 0.378231 0)
  (-0.0766275 0.379213 0)
  (-0.0710667 0.379686 0)
  (-0.0653654 0.379652 0)
  (-0.0598716 0.379195 0)
  (-0.0550487 0.37855 0)
  (-0.051529 0.378156 0)
  (-0.0501536 0.37859 0)
  (-0.0513988 0.379926 0)
  (-0.0534353 0.379156 0)
  (-0.0532993 0.375961 0)
  (-0.0578531 0.365987 0)
  (-0.0946588 0.346009 0)
  (-0.166647 0.345468 0)
  (0.482232 0.384379 0)
)
;

boundaryField
{
  floor
  {
    type noSlip;
  }
  ceiling
  {
    type noSlip;
  }
  sWall
  {
    type noSlip;
  }
  nWall
  {
    type noSlip;
  }
  sideWalls
  {
    type empty;
  }
  glass1
  {
    type noSlip;
  }
  glass2
  {
    type noSlip;
  }
  sun
  {
    type noSlip;
  }
  heatsource1
  {
    type noSlip;
  }
  heatsource2
  {
    type noSlip;
  }
  Table_master
  {
    type noSlip;
  }
  Table_slave
  {
    type noSlip;
  }
  inlet
  {
    type fixedValue;
    value uniform (0.277164 -0.114805 0);
  }
  outlet
  {
    type zeroGradient;
  }
} 	// ************************************************************************* //

