/*--------------------------------*- C++ -*----------------------------------*\
  =========                 |
  \\      /  F ield         | OpenFOAM: The Open Source CFD Toolbox
   \\    /   O peration     | Website:  https://openfoam.org
    \\  /    A nd           | Version:  6
     \\/     M anipulation  |
\*---------------------------------------------------------------------------*/
FoamFile
{
    version     2.0;
    format      ascii;
    class       volScalarField;
    location    "300";
    object      nut;
}
// * * * * * * * * * * * * * * * * * * * * * * * * * * * * * * * * * * * * * //

dimensions      [0 2 -1 0 0 0 0];

internalField   nonuniform List<scalar> 
459
(
0.00248483
0.00238652
0.00229326
0.0022133
0.00214601
0.00208774
0.00203599
0.00198819
0.00194205
0.00189549
0.00184631
0.00179172
0.00172718
0.00164316
0.00153246
0.000160839
0.000169761
0.000182023
0.000174658
0.00016892
0.000161235
0.000140482
0.000135775
0.000142127
0.000156086
0.000172836
0.000188943
0.000199443
0.000199979
0.000203313
0.000214484
0.00021491
0.000201751
0.000177051
0.00281391
0.00305469
0.00305849
0.0029644
0.0029086
0.00289334
0.00290176
0.00289697
0.00286599
0.00280669
0.00271799
0.0025969
0.002432
0.00218543
0.00185015
0.00145583
0.00127166
0.000271029
0.000444475
0.000583
0.000652437
0.000589044
0.000363667
0.000206832
0.000210281
0.000272104
0.000366726
0.000472365
0.000572038
0.00064278
0.000664481
0.000694833
0.000915418
0.000827753
0.000596167
0.000258307
0.00302398
0.0033785
0.00309981
0.00279709
0.00268906
0.00270288
0.00277792
0.00286597
0.00293496
0.00296648
0.0029479
0.0028699
0.00272187
0.0024774
0.00215976
0.00186374
0.00128113
0.000386088
0.00114184
0.00113066
0.00101046
0.000830647
0.000593873
0.000202988
0.000207513
0.000232396
0.000259252
0.000288328
0.000320949
0.000359839
0.000410984
0.000488486
0.00149246
0.00154482
0.00136138
0.000435958
0.00318642
0.00364145
0.00281486
0.00229315
0.0023014
0.00252345
0.00278933
0.00297712
0.00307759
0.00310371
0.00307543
0.00299724
0.00285851
0.00262896
0.0023325
0.00205895
0.00162341
0.000662353
0.00144972
0.00149789
0.00129286
0.00107125
0.000862044
0.000679222
0.00053422
0.000549763
0.000566792
0.000582186
0.000598419
0.000618137
0.000644535
0.000682414
0.000741411
0.0021796
0.00229363
0.00212314
0.000724466
0.00333376
0.00375654
0.00229335
0.00193849
0.0027498
0.00352553
0.00400031
0.00408541
0.00378398
0.00346453
0.00323458
0.00306764
0.00290095
0.00266549
0.00237359
0.00209468
0.00175386
0.00158171
0.00215987
0.00248302
0.00248707
0.00250986
0.00258125
0.00268548
0.00278816
0.00288462
0.00290927
0.00289961
0.0028661
0.00282001
0.00277586
0.0027498
0.0027571
0.00281869
0.00272705
0.00259059
0.00241817
0.000922313
0.000823523
0.000707112
0.00348603
0.00371199
0.00180981
0.00234901
0.00384893
0.00439669
0.00456704
0.00449453
0.0039701
0.00351464
0.00321754
0.00301781
0.00283078
0.00259059
0.0023228
0.00208888
0.00189544
0.00223084
0.00290664
0.00336196
0.00352432
0.00368612
0.00386157
0.00402814
0.00415992
0.00424096
0.00426387
0.00424037
0.00416801
0.0040435
0.00386973
0.00366054
0.00343638
0.0032104
0.00297828
0.00273588
0.00245131
0.00203554
0.00160052
0.000708614
0.00366459
0.00356631
0.00181323
0.00215476
0.00361546
0.00397807
0.00394373
0.00380039
0.00356204
0.00328404
0.00305601
0.00287362
0.00269263
0.00247899
0.00226382
0.00211628
0.00210246
0.00285424
0.00358299
0.00397151
0.00419857
0.0044166
0.00461917
0.00479374
0.0049252
0.0050157
0.00507355
0.00510272
0.00509642
0.0050366
0.0048967
0.00465486
0.00431489
0.0039124
0.003487
0.00305566
0.00261415
0.00216142
0.0016825
0.000935008
0.00391549
0.00382179
0.00246646
0.00158974
0.00282971
0.00326688
0.00324941
0.00317702
0.00310332
0.00298367
0.0028496
0.00271512
0.00256933
0.00240438
0.00225467
0.00220525
0.00237493
0.00343947
0.00411535
0.00447898
0.00476911
0.00501248
0.00520136
0.00534369
0.00543992
0.00550787
0.00556324
0.00561804
0.00567839
0.0057402
0.00578194
0.00575833
0.00560812
0.00529037
0.00481594
0.00423722
0.00360753
0.00304321
0.00261694
0.00142544
0.00433404
0.00494759
0.00476403
0.00213215
0.0023743
0.00292682
0.0029546
0.00290048
0.0028459
0.00279696
0.00273165
0.0026521
0.00255552
0.00244298
0.00234731
0.00236942
0.00268469
0.00384088
0.00455552
0.00506963
0.0054349
0.00568954
0.00583754
0.00590184
0.00591735
0.00591189
0.00590488
0.00591055
0.00593977
0.00600021
0.00609385
0.00621097
0.00632334
0.0063872
0.00638192
0.00629678
0.00608545
0.00558418
0.00503729
0.00152368
0.00763547
0.00318806
0.00295856
0.00320209
0.00319192
0.00314926
0.00306875
0.00298479
0.00292646
0.00287396
0.00281202
0.00273477
0.00266766
0.00272885
0.00317137
0.00410825
0.00500885
0.00572981
0.00618925
0.006463
0.00657556
0.00657607
0.00651603
0.00643523
0.00635967
0.00630414
0.00627577
0.00627681
0.00630573
0.00635577
0.0064109
0.00644336
0.00642025
0.00630751
0.00606218
0.00560897
0.00470118
0.00158258
0.00341317
0.00284997
0.00386453
0.00371763
0.00356617
0.00336927
0.00317368
0.00296783
0.00286656
0.00282657
0.00280928
0.00278568
0.00275336
0.00278327
0.00311436
0.00384644
0.00478789
0.00574772
0.00646182
0.00685085
0.00697209
0.00693002
0.00681732
0.00669558
0.0065968
0.00653144
0.00649656
0.00648213
0.00647526
0.00646225
0.00642862
0.00635781
0.00622887
0.00601355
0.00567236
0.00513716
0.00446504
0.0017291
0.0012302
0.0012151
0.00205486
0.00140691
0.0012395
0.00120636
0.00119864
0.00119759
0.00120199
0.00121189
0.00121925
0.00122765
0.00123697
0.00124498
0.00124754
0.00123355
0.00122085
0.00122919
0.00126214
0.00131483
0.00139196
0.00146764
0.00152402
0.00155666
0.0015692
0.00156811
0.00155957
0.00154825
0.00153701
0.00152706
0.00151832
0.00150986
0.00150036
0.00148839
0.00147235
0.00144977
0.00141601
0.00136165
0.00131107
0.00128295
)
;

boundaryField
{
    floor
    {
        type            nutkWallFunction;
        Cmu             0.09;
        kappa           0.41;
        E               9.8;
        value           nonuniform List<scalar> 
29
(
0.000181926
1.36153e-05
1.49361e-05
1.67352e-05
1.56577e-05
1.48138e-05
1.3675e-05
1.05619e-05
9.84598e-06
1.08094e-05
1.29067e-05
1.53887e-05
1.77433e-05
1.92625e-05
1.93397e-05
1.98202e-05
2.14217e-05
2.14823e-05
1.95956e-05
1.60079e-05
1.60078e-05
2.75945e-05
5.14263e-05
8.7718e-05
0.000181926
1.36152e-05
2.93556e-05
4.48868e-05
8.008e-05
)
;
    }
    ceiling
    {
        type            nutkWallFunction;
        Cmu             0.09;
        kappa           0.41;
        E               9.8;
        value           nonuniform List<scalar> 
43
(
0.000147633
0.000145889
0.000239672
0.000167732
0.000148622
0.000144806
0.000143915
0.000143795
0.000144302
0.000145444
0.000146292
0.00014726
0.000148332
0.000149252
0.000149545
0.000147934
0.000146468
0.000147427
0.000151212
0.000157243
0.000166022
0.000174584
0.000180932
0.000184594
0.000185999
0.000185876
0.000184918
0.000183648
0.000182386
0.000181268
0.000180284
0.000179331
0.000178262
0.000176914
0.000175105
0.000172556
0.000168737
0.000162566
0.000156798
0.000153584
0.00047716
0.00053857
0.00038326
)
;
    }
    sWall
    {
        type            nutkWallFunction;
        Cmu             0.09;
        kappa           0.41;
        E               9.8;
        value           uniform 0.000147657;
    }
    nWall
    {
        type            nutkWallFunction;
        Cmu             0.09;
        kappa           0.41;
        E               9.8;
        value           nonuniform List<scalar> 6(8.55916e-05 8.57808e-05 0.000113042 0.000187497 0.000203806 0.000153593);
    }
    sideWalls
    {
        type            empty;
    }
    glass1
    {
        type            nutkWallFunction;
        Cmu             0.09;
        kappa           0.41;
        E               9.8;
        value           nonuniform List<scalar> 9(0.000286228 0.000321131 0.000343185 0.000360128 0.000375419 0.000391149 0.000409505 0.000435146 0.000477561);
    }
    glass2
    {
        type            nutkWallFunction;
        Cmu             0.09;
        kappa           0.41;
        E               9.8;
        value           nonuniform List<scalar> 2(0.000169836 0.000180915);
    }
    sun
    {
        type            nutkWallFunction;
        Cmu             0.09;
        kappa           0.41;
        E               9.8;
        value           nonuniform List<scalar> 
14
(
0.000285975
0.000275458
0.000265444
0.000256824
0.000249545
0.000243223
0.000237592
0.000232378
0.000227331
0.000222226
0.00021682
0.0002108
0.000203658
0.000194315
)
;
    }
    heatsource1
    {
        type            nutkWallFunction;
        Cmu             0.09;
        kappa           0.41;
        E               9.8;
        value           nonuniform List<scalar> 3(0.000111569 9.97395e-05 8.55927e-05);
    }
    heatsource2
    {
        type            nutkWallFunction;
        Cmu             0.09;
        kappa           0.41;
        E               9.8;
        value           nonuniform List<scalar> 4(0.000173299 0.000152337 0.000152337 0.000153422);
    }
    Table_master
    {
        type            nutkWallFunction;
        Cmu             0.09;
        kappa           0.41;
        E               9.8;
        value           nonuniform List<scalar> 9(1.97727e-05 2.04223e-05 2.39619e-05 2.77256e-05 3.17426e-05 3.61868e-05 4.14096e-05 4.81699e-05 5.82171e-05);
    }
    Table_slave
    {
        type            nutkWallFunction;
        Cmu             0.09;
        kappa           0.41;
        E               9.8;
        value           nonuniform List<scalar> 9(6.40404e-05 6.60092e-05 6.81585e-05 7.00948e-05 7.21298e-05 7.45929e-05 7.78756e-05 8.25578e-05 8.97892e-05);
    }
    inlet
    {
        type            calculated;
        value           uniform 0.00763547;
    }
    outlet
    {
        type            calculated;
        value           nonuniform List<scalar> 2(0.0012302 0.0012151);
    }
}


// ************************************************************************* //
