/*--------------------------------*- C++ -*----------------------------------*\
  =========                 |
  \\      /  F ield         | OpenFOAM: The Open Source CFD Toolbox
   \\    /   O peration     | Website:  https://openfoam.org
    \\  /    A nd           | Version:  6
     \\/     M anipulation  |
\*---------------------------------------------------------------------------*/
FoamFile
{
    version     2.0;
    format      ascii;
    class       volScalarField;
    location    "260";
    object      alphat;
}
// * * * * * * * * * * * * * * * * * * * * * * * * * * * * * * * * * * * * * //

dimensions      [1 -1 -1 0 0 0 0];

internalField   nonuniform List<scalar> 
459
(
0.000964783
0.00110936
0.00119274
0.00130505
0.00139526
0.001454
0.00143242
0.00138148
0.00131898
0.00125333
0.00118773
0.00112677
0.00106397
0.000991548
0.000906391
0.00056655
0.000720412
0.000804969
0.000842516
0.000830576
0.000803274
0.000757095
0.000709261
0.000666103
0.000628216
0.000595005
0.000565732
0.000539572
0.000516087
0.000494042
0.00047197
0.000447801
0.000411903
0.000374858
0.00118647
0.00368268
0.00412281
0.00444146
0.00452115
0.00465586
0.00488311
0.00481555
0.00456044
0.00424459
0.00387937
0.00336414
0.00276847
0.00212836
0.00149279
0.000911515
0.000801708
0.000773873
0.00249399
0.00244726
0.00274346
0.00300134
0.00294967
0.00215408
0.0018041
0.00157534
0.00140973
0.00128414
0.00118628
0.00110968
0.00102908
0.000936427
0.000845735
0.000789663
0.000659538
0.000427588
0.00138339
0.00530099
0.00536185
0.00510197
0.00456471
0.00459569
0.00512356
0.00532404
0.00521289
0.00499086
0.00472791
0.00431416
0.00372555
0.00299533
0.00221951
0.00150555
0.00082478
0.000821502
0.00258232
0.00259919
0.00313995
0.00364804
0.003515
0.000992909
0.000874533
0.000776683
0.000696884
0.000631749
0.000578291
0.000534274
0.000499939
0.000476045
0.000541194
0.000676415
0.000751687
0.000467858
0.00157752
0.0065401
0.0062027
0.00528357
0.00417433
0.00424953
0.00499826
0.00538887
0.00533742
0.00513355
0.00493086
0.00464205
0.00417766
0.00353595
0.00279111
0.00203389
0.00125132
0.000830292
0.00124939
0.00191942
0.00295564
0.00396739
0.00463071
0.00437812
0.0010914
0.000996054
0.00092048
0.000855406
0.00079476
0.000735217
0.000674672
0.000611378
0.000541067
0.000517682
0.00062452
0.000895785
0.000528022
0.00176534
0.00763416
0.00703167
0.00528745
0.00383741
0.00408382
0.00502745
0.00557019
0.00552063
0.00527099
0.00508522
0.00487192
0.00450994
0.00399658
0.00339085
0.00277576
0.00223322
0.00222485
0.00287172
0.00390142
0.00494171
0.00573145
0.00615952
0.00611033
0.00511629
0.00450889
0.00395934
0.00342937
0.00291271
0.0024068
0.00190877
0.00142889
0.000972339
0.000690322
0.000675057
0.000960762
0.000773906
0.000596215
0.000568862
0.000522701
0.00192956
0.00840783
0.00772913
0.00488146
0.0035968
0.004046
0.00519153
0.00587071
0.00581207
0.00557097
0.00550401
0.00533671
0.00504877
0.0046913
0.0043156
0.00402719
0.00396221
0.00454637
0.0055241
0.00641432
0.00705966
0.00739874
0.00744007
0.00719681
0.00663135
0.00592438
0.00513825
0.00434303
0.00356674
0.00282106
0.00210583
0.00151309
0.00107246
0.00086964
0.000876163
0.00105301
0.00105011
0.000945688
0.00097875
0.000574933
0.00199764
0.00819111
0.00671608
0.00413355
0.00333391
0.00408825
0.00546224
0.00624461
0.0061824
0.00610205
0.00607264
0.00593507
0.0057848
0.00565641
0.00559045
0.00570005
0.00609953
0.00689324
0.00766735
0.00814946
0.00833685
0.0082439
0.00792247
0.00740215
0.00668263
0.0058595
0.00499455
0.00413217
0.00331259
0.00257762
0.00197269
0.00155115
0.00131173
0.00123893
0.00127545
0.0012838
0.00133102
0.00131539
0.00142834
0.000645835
0.00196484
0.00585387
0.00424611
0.00297717
0.00301144
0.00424066
0.00586865
0.00668162
0.00664738
0.00650089
0.00634093
0.00626172
0.00629682
0.00642557
0.00665694
0.00703249
0.00757914
0.0081756
0.00857014
0.00864642
0.00841979
0.0079323
0.00726862
0.0065171
0.0057354
0.0049481
0.00416758
0.00342128
0.00275103
0.00219871
0.00179007
0.00152247
0.00135827
0.00126333
0.00121947
0.00119775
0.00120519
0.00117655
0.00112065
0.000717682
0.00188402
0.00201571
0.0017423
0.00185607
0.00287723
0.00470227
0.00652635
0.00723437
0.00700146
0.00661339
0.00639988
0.00640966
0.00655626
0.00679073
0.00709773
0.00746038
0.0078234
0.00805012
0.00801488
0.00768735
0.00712224
0.00641922
0.00567938
0.00497933
0.00435447
0.00380454
0.00332227
0.00291427
0.00259168
0.00235191
0.0021694
0.00200211
0.00181372
0.00160332
0.00140692
0.00126044
0.00116655
0.00111211
0.0011115
0.00120805
0.000407877
0.00201229
0.0041452
0.00612423
0.00757648
0.00735697
0.00697045
0.00676125
0.00675151
0.00683745
0.00695811
0.00709007
0.00721741
0.00731232
0.00732732
0.0072051
0.00692855
0.00653438
0.00608688
0.00564629
0.00525096
0.00491716
0.00464578
0.00443243
0.00427413
0.0041684
0.00410579
0.00406222
0.0039963
0.00385541
0.00359429
0.00320571
0.00274796
0.00232534
0.00201394
0.00187766
0.00199008
0.00139387
0.00264213
0.00824786
0.0087034
0.00817493
0.00751156
0.00702707
0.00684426
0.00687647
0.00697699
0.00706905
0.00713166
0.00716556
0.00717419
0.00715607
0.00710362
0.00700849
0.00687091
0.00670305
0.00652277
0.00634649
0.00618523
0.00604592
0.00593416
0.0058559
0.00581624
0.00581667
0.00585066
0.0058993
0.00592801
0.00588637
0.00571455
0.00536202
0.00482229
0.0041667
0.00354109
0.00333155
0.00373812
0.00170363
0.00176823
0.00189179
0.00205039
0.00212586
0.00202687
0.00191131
0.00181555
0.00175809
0.0017332
0.00172463
0.00172265
0.00172365
0.00172647
0.00173045
0.00173464
0.00173759
0.00173756
0.00173328
0.00172487
0.00171374
0.00170175
0.00169053
0.00168115
0.00167431
0.00167046
0.00166984
0.00167242
0.00167771
0.00168447
0.00169047
0.00169243
0.00168627
0.00166792
0.00163433
0.00158417
0.00151722
0.0014393
0.0014023
0.00144114
0.00137789
)
;

boundaryField
{
    floor
    {
        type            compressible::alphatWallFunction;
        Prt             0.85;
        value           nonuniform List<scalar> 
29
(
0.000129265
7.95839e-05
0.00010244
0.000114739
0.000120151
0.000118433
0.000114495
0.000107797
0.000100806
9.44488e-05
8.88271e-05
8.38647e-05
7.94624e-05
7.55044e-05
7.19304e-05
6.85571e-05
6.51606e-05
6.1418e-05
5.58105e-05
4.99578e-05
4.99572e-05
5.827e-05
6.45293e-05
7.3756e-05
0.000129264
7.95829e-05
0.000110235
0.000117122
0.00011837
)
;
    }
    ceiling
    {
        type            compressible::alphatWallFunction;
        Prt             0.85;
        value           nonuniform List<scalar> 
43
(
0.000247015
0.000263268
0.000283966
0.000293757
0.000280918
0.000265842
0.000253275
0.000245702
0.000242415
0.000241282
0.000241022
0.000241155
0.00024153
0.000242057
0.000242613
0.000243003
0.000242999
0.000242434
0.00024132
0.000239844
0.000238255
0.000236765
0.00023552
0.000234611
0.000234099
0.000234015
0.000234357
0.000235059
0.000235957
0.000236753
0.000237012
0.000236195
0.000233757
0.000229287
0.000222593
0.00021362
0.00020312
0.00019811
0.000203368
0.000194804
0.000262198
0.000279395
0.000359755
)
;
    }
    sWall
    {
        type            compressible::alphatWallFunction;
        Prt             0.85;
        value           uniform 0.000246786;
    }
    nWall
    {
        type            compressible::alphatWallFunction;
        Prt             0.85;
        value           nonuniform List<scalar> 6(7.27571e-05 8.06618e-05 9.12514e-05 0.000196742 0.000238257 0.00019459);
    }
    sideWalls
    {
        type            empty;
    }
    glass1
    {
        type            compressible::alphatWallFunction;
        Prt             0.85;
        value           nonuniform List<scalar> 9(0.000136851 0.000167739 0.000194629 0.000220723 0.000245634 0.000267179 0.000276058 0.000271799 0.000261262);
    }
    glass2
    {
        type            compressible::alphatWallFunction;
        Prt             0.85;
        value           nonuniform List<scalar> 2(0.000101722 0.000171221);
    }
    sun
    {
        type            compressible::alphatWallFunction;
        Prt             0.85;
        value           nonuniform List<scalar> 
14
(
0.000137547
0.000157828
0.000169386
0.000184809
0.000197085
0.00020503
0.000202112
0.000195213
0.000186707
0.000177726
0.000168698
0.000160256
0.000151503
0.000141335
)
;
    }
    heatsource1
    {
        type            compressible::alphatWallFunction;
        Prt             0.85;
        value           nonuniform List<scalar> 3(8.3923e-05 7.98106e-05 7.28144e-05);
    }
    heatsource2
    {
        type            compressible::alphatWallFunction;
        Prt             0.85;
        value           nonuniform List<scalar> 4(0.000129891 0.00011414 0.000114139 0.000117468);
    }
    Table_master
    {
        type            compressible::alphatWallFunction;
        Prt             0.85;
        value           nonuniform List<scalar> 9(0.000141423 0.000124614 0.000110516 9.88612e-05 8.9228e-05 8.12306e-05 7.45769e-05 6.93392e-05 6.56677e-05);
    }
    Table_slave
    {
        type            compressible::alphatWallFunction;
        Prt             0.85;
        value           nonuniform List<scalar> 9(0.000155232 0.000141869 0.000131171 0.000121876 0.000113138 0.00010448 9.55896e-05 8.61906e-05 7.56073e-05);
    }
    inlet
    {
        type            fixedValue;
        value           uniform 1.94e-05;
    }
    outlet
    {
        type            zeroGradient;
    }
}


// ************************************************************************* //
