// -*- C++ -*-
// File generated by PyFoam - sorry for the ugliness

FoamFile
{
 version 2.0;
 format ascii;
 class volVectorField;
 location "1100";
 object U;
}

dimensions [ 0 1 -1 0 0 0 0 ];

internalField nonuniform List<vector> 459
(
  (0.0330085 0.0854373 0)
  (-0.166074 0.0256561 0)
  (-0.190641 0.0178429 0)
  (-0.22124 0.0123298 0)
  (-0.243562 0.00630503 0)
  (-0.256767 -1.26921e-05 0)
  (-0.259522 -0.00667829 0)
  (-0.250616 -0.0136946 0)
  (-0.230715 -0.0205877 0)
  (-0.201273 -0.0263049 0)
  (-0.165284 -0.0300045 0)
  (-0.12617 -0.0314213 0)
  (-0.0871828 -0.0310818 0)
  (-0.0530763 -0.0306375 0)
  (-0.03751 -0.031831 0)
  (-0.00262908 0.00741541 0)
  (-0.0223611 -0.0174931 0)
  (0.00134389 -0.0262172 0)
  (0.0222468 -0.0194532 0)
  (0.0379592 -0.0130815 0)
  (0.0495895 -0.00836102 0)
  (0.0564711 -0.00500843 0)
  (0.0599074 -0.00325705 0)
  (0.0614692 -0.00250255 0)
  (0.0622872 -0.00213972 0)
  (0.0628039 -0.00190539 0)
  (0.0630754 -0.00171349 0)
  (0.0630355 -0.00147597 0)
  (0.0624736 -0.0010203 0)
  (0.0608195 3.68655e-05 0)
  (0.056867 0.00223833 0)
  (0.0492915 0.00463326 0)
  (0.0414286 0.00671906 0)
  (-0.01036 0.020394 0)
  (0.205324 0.174559 0)
  (-0.15429 0.0671358 0)
  (-0.152607 0.0521472 0)
  (-0.183851 0.0406687 0)
  (-0.205648 0.0278278 0)
  (-0.218816 0.0136165 0)
  (-0.222005 -0.00222215 0)
  (-0.213809 -0.0192422 0)
  (-0.195422 -0.0353218 0)
  (-0.168674 -0.0479559 0)
  (-0.136778 -0.0553633 0)
  (-0.103151 -0.0570878 0)
  (-0.0710112 -0.0538143 0)
  (-0.0441017 -0.0471325 0)
  (-0.0270156 -0.0382281 0)
  (-0.0134707 -0.0187202 0)
  (-0.00714409 0.0133498 0)
  (0.0600699 0.0312981 0)
  (0.0314857 -0.0198462 0)
  (0.0385199 -0.0305752 0)
  (0.0492962 -0.0259337 0)
  (0.0577459 -0.0178749 0)
  (0.0633513 -0.0105034 0)
  (0.0655719 -0.00432961 0)
  (0.0658889 -0.000906404 0)
  (0.0657986 0.00055521 0)
  (0.065878 0.00123203 0)
  (0.0660409 0.00165777 0)
  (0.0661574 0.00202818 0)
  (0.0661848 0.00251188 0)
  (0.0660699 0.00344793 0)
  (0.065279 0.00574457 0)
  (0.0613859 0.0120767 0)
  (0.0516027 0.0174824 0)
  (0.045217 0.0213557 0)
  (-0.0438016 0.0440465 0)
  (0.363203 0.260832 0)
  (-0.17001 0.106459 0)
  (-0.113993 0.0839105 0)
  (-0.143788 0.0635011 0)
  (-0.162747 0.0424358 0)
  (-0.174543 0.0194488 0)
  (-0.177001 -0.00623113 0)
  (-0.1679 -0.0334089 0)
  (-0.149506 -0.0583025 0)
  (-0.124407 -0.0768613 0)
  (-0.0960988 -0.0867033 0)
  (-0.0675372 -0.087736 0)
  (-0.0410081 -0.0811228 0)
  (-0.0187163 -0.0684405 0)
  (-0.00246732 -0.0507157 0)
  (0.00993642 -0.0251255 0)
  (0.0166499 0.00921088 0)
  (0.105529 -0.0391074 0)
  (0.0728885 -0.0431017 0)
  (0.0689505 -0.0394192 0)
  (0.071136 -0.0316253 0)
  (0.0726949 -0.0225278 0)
  (0.0735594 -0.0149055 0)
  (0.071886 -0.0121241 0)
  (0.067872 -0.0086691 0)
  (0.0650933 -0.00679773 0)
  (0.063839 -0.00573261 0)
  (0.063293 -0.00505784 0)
  (0.0630282 -0.00458701 0)
  (0.0630785 -0.00412869 0)
  (0.0639171 -0.00331986 0)
  (0.0667574 -0.000181476 0)
  (0.0647183 0.0170698 0)
  (0.0514408 0.0293013 0)
  (0.0508275 0.0379836 0)
  (-0.0732569 0.0691622 0)
  (0.505247 0.33002 0)
  (-0.203367 0.141115 0)
  (-0.0737616 0.110471 0)
  (-0.101305 0.082395 0)
  (-0.114431 0.0553778 0)
  (-0.122259 0.0253152 0)
  (-0.121014 -0.00986874 0)
  (-0.108586 -0.0475749 0)
  (-0.0893953 -0.0804875 0)
  (-0.06671 -0.103399 0)
  (-0.0437577 -0.114133 0)
  (-0.0223075 -0.11374 0)
  (-0.0031286 -0.104009 0)
  (0.0132104 -0.0867236 0)
  (0.0266047 -0.0647616 0)
  (0.0409261 -0.038772 0)
  (0.062984 -0.0121251 0)
  (0.0934949 0.000208736 0)
  (0.10111 -0.0328606 0)
  (0.0875649 -0.0382223 0)
  (0.0790123 -0.0340729 0)
  (0.0748436 -0.0278468 0)
  (0.0721086 -0.020507 0)
  (0.0707805 -0.0119862 0)
  (0.0724999 -0.00704543 0)
  (0.0766607 -0.00555374 0)
  (0.0801155 -0.00472032 0)
  (0.0824645 -0.00407608 0)
  (0.0839096 -0.00324828 0)
  (0.0838968 -0.00197989 0)
  (0.0813537 -4.81027e-05 0)
  (0.0750353 0.00283445 0)
  (0.0621466 0.00719914 0)
  (0.0511599 0.0274874 0)
  (0.0404725 0.0443101 0)
  (0.0537213 0.0578706 0)
  (-0.103633 0.0919938 0)
  (0.627242 0.383519 0)
  (-0.244124 0.169339 0)
  (-0.0347074 0.125134 0)
  (-0.0572032 0.0925782 0)
  (-0.0619589 0.0622352 0)
  (-0.0626695 0.0272445 0)
  (-0.0516027 -0.016628 0)
  (-0.0336312 -0.063579 0)
  (-0.0146954 -0.101026 0)
  (0.00299848 -0.124676 0)
  (0.0174416 -0.133233 0)
  (0.028775 -0.12982 0)
  (0.0375088 -0.117457 0)
  (0.0443631 -0.0986856 0)
  (0.0504773 -0.0761726 0)
  (0.0578193 -0.0525712 0)
  (0.0689809 -0.0333271 0)
  (0.0794198 -0.0287636 0)
  (0.0809792 -0.0346104 0)
  (0.0744432 -0.0334332 0)
  (0.0664343 -0.0285296 0)
  (0.0603139 -0.0230123 0)
  (0.0559923 -0.0173131 0)
  (0.0536842 -0.011448 0)
  (0.0537826 -0.00628351 0)
  (0.0559407 -0.0039174 0)
  (0.0583538 -0.00307559 0)
  (0.060703 -0.00237434 0)
  (0.0628892 -0.000871725 0)
  (0.0645385 0.00199337 0)
  (0.0644676 0.00634193 0)
  (0.0620813 0.0123364 0)
  (0.0566813 0.020619 0)
  (0.0501058 0.0360762 0)
  (0.0410747 0.0546113 0)
  (0.0619673 0.0751059 0)
  (-0.0170692 0.104297 0)
  (0.0452904 0.0339433 0)
  (-0.0613444 -0.0344384 0)
  (-0.268868 -0.056712 0)
  (0.714949 0.428052 0)
  (-0.283426 0.188144 0)
  (-0.00562296 0.119969 0)
  (-0.0117474 0.0916775 0)
  (-0.0049172 0.0622211 0)
  (0.00539623 0.0204413 0)
  (0.034258 -0.0340536 0)
  (0.0553263 -0.0821956 0)
  (0.0701194 -0.116439 0)
  (0.0786126 -0.135454 0)
  (0.0815918 -0.140462 0)
  (0.0805577 -0.1342 0)
  (0.0768802 -0.119702 0)
  (0.0719693 -0.0999546 0)
  (0.0673024 -0.0778533 0)
  (0.0642371 -0.0560845 0)
  (0.0636578 -0.0383689 0)
  (0.063189 -0.0292845 0)
  (0.0591569 -0.0269825 0)
  (0.051551 -0.0248607 0)
  (0.0433185 -0.021287 0)
  (0.0367191 -0.0173459 0)
  (0.0321786 -0.0135076 0)
  (0.0298706 -0.00983937 0)
  (0.0297856 -0.00699556 0)
  (0.031456 -0.00606137 0)
  (0.0339511 -0.00605803 0)
  (0.0369276 -0.0057906 0)
  (0.0402243 -0.00429185 0)
  (0.0436165 -0.000699436 0)
  (0.0466473 0.00528606 0)
  (0.0482484 0.0133504 0)
  (0.0486172 0.0236843 0)
  (0.0491622 0.038041 0)
  (0.0484609 0.0560076 0)
  (0.0703781 0.0788568 0)
  (0.0522441 0.0973979 0)
  (0.0913818 0.0683466 0)
  (0.114416 0.0445478 0)
  (-0.128391 -0.0074794 0)
  (0.767855 0.468657 0)
  (-0.301998 0.173506 0)
  (0.0221106 0.06776 0)
  (0.0495888 0.0629074 0)
  (0.0703509 0.043792 0)
  (0.103551 -0.00408752 0)
  (0.135237 -0.0577286 0)
  (0.153484 -0.0986455 0)
  (0.159426 -0.124269 0)
  (0.155152 -0.135608 0)
  (0.143302 -0.134825 0)
  (0.12674 -0.124774 0)
  (0.108009 -0.108355 0)
  (0.0892628 -0.0884874 0)
  (0.0722504 -0.0677515 0)
  (0.0580725 -0.0482066 0)
  (0.0472343 -0.0325044 0)
  (0.0386143 -0.0230157 0)
  (0.0302199 -0.0187611 0)
  (0.021686 -0.0164266 0)
  (0.0140152 -0.0141684 0)
  (0.0081771 -0.0120484 0)
  (0.00437322 -0.0102339 0)
  (0.00260511 -0.00874789 0)
  (0.00271566 -0.00795581 0)
  (0.00420602 -0.00824694 0)
  (0.00646086 -0.00898761 0)
  (0.00926225 -0.00932085 0)
  (0.012661 -0.00839214 0)
  (0.016787 -0.00519804 0)
  (0.0225541 0.00125165 0)
  (0.0283474 0.0100959 0)
  (0.0338384 0.0205541 0)
  (0.0408449 0.0332546 0)
  (0.0486649 0.0479496 0)
  (0.0704239 0.0663793 0)
  (0.0839808 0.0747588 0)
  (0.115806 0.0526914 0)
  (0.155368 0.0439549 0)
  (-0.0363859 0.0925078 0)
  (0.872654 0.469974 0)
  (-0.0642889 0.152144 0)
  (0.110056 -0.0139233 0)
  (0.181873 -0.0413428 0)
  (0.21284 -0.0531381 0)
  (0.244287 -0.0756494 0)
  (0.261941 -0.0978573 0)
  (0.262588 -0.113614 0)
  (0.247842 -0.120974 0)
  (0.221795 -0.12001 0)
  (0.188952 -0.111966 0)
  (0.153346 -0.098655 0)
  (0.118124 -0.0818361 0)
  (0.0856737 -0.0636964 0)
  (0.0576017 -0.0461488 0)
  (0.0345185 -0.0303888 0)
  (0.0172172 -0.0185653 0)
  (0.00475174 -0.0119714 0)
  (-0.00481287 -0.00941432 0)
  (-0.01214 -0.00866499 0)
  (-0.0179681 -0.00826858 0)
  (-0.0222243 -0.00806262 0)
  (-0.0250107 -0.00807006 0)
  (-0.0264706 -0.0083285 0)
  (-0.026831 -0.00898852 0)
  (-0.0264983 -0.0101143 0)
  (-0.0258592 -0.0113934 0)
  (-0.0250231 -0.0123733 0)
  (-0.0238343 -0.0125546 0)
  (-0.0219014 -0.0113461 0)
  (-0.0182615 -0.00800117 0)
  (-0.00968915 -0.00181318 0)
  (-0.00124706 0.00627127 0)
  (0.0093291 0.0145444 0)
  (0.021067 0.0216649 0)
  (0.0409099 0.0290521 0)
  (0.0600217 0.0226782 0)
  (0.0801106 -0.00454948 0)
  (0.139076 0.0390233 0)
  (-0.405659 0.202559 0)
  (1.01959 0.423031 0)
  (0.485043 0.279568 0)
  (0.499914 0.182986 0)
  (0.526469 0.111593 0)
  (0.507473 0.06013 0)
  (0.465443 0.0129149 0)
  (0.41658 -0.0263272 0)
  (0.362911 -0.0531121 0)
  (0.304747 -0.0667084 0)
  (0.245002 -0.0691634 0)
  (0.187151 -0.06387 0)
  (0.133776 -0.0539804 0)
  (0.0864626 -0.0413749 0)
  (0.0467538 -0.0282668 0)
  (0.0147252 -0.0164553 0)
  (-0.0106708 -0.00700127 0)
  (-0.0255402 -0.0027997 0)
  (-0.0347224 -0.0017774 0)
  (-0.0408948 -0.00228587 0)
  (-0.0456996 -0.0032802 0)
  (-0.0496395 -0.004296 0)
  (-0.0528481 -0.00530184 0)
  (-0.0554308 -0.00631955 0)
  (-0.057545 -0.00738326 0)
  (-0.0594307 -0.00854205 0)
  (-0.0614384 -0.00977655 0)
  (-0.0639213 -0.0108795 0)
  (-0.0671785 -0.0114814 0)
  (-0.0715292 -0.0110493 0)
  (-0.0774046 -0.00887292 0)
  (-0.0853526 -0.00412282 0)
  (-0.095367 0.00377427 0)
  (-0.105572 0.0142936 0)
  (-0.120356 0.0276394 0)
  (-0.143575 0.043926 0)
  (-0.177726 0.0620886 0)
  (-0.226162 0.0782576 0)
  (-0.281907 0.0898595 0)
  (-0.349885 0.0968344 0)
  (-0.60947 0.0996935 0)
  (-0.1505 0.00183399 0)
  (0.121182 0.00132945 0)
  (0.200031 -0.0321051 0)
  (0.187089 -0.0420161 0)
  (0.170986 -0.0399806 0)
  (0.148872 -0.0350538 0)
  (0.119404 -0.0288226 0)
  (0.0856677 -0.0214305 0)
  (0.0511797 -0.0133409 0)
  (0.0162998 -0.00515961 0)
  (-0.0170636 0.00238234 0)
  (-0.0393374 0.00664878 0)
  (-0.0546977 0.00896748 0)
  (-0.0638506 0.00945197 0)
  (-0.0689149 0.00861941 0)
  (-0.0724305 0.00768914 0)
  (-0.0752137 0.00692301 0)
  (-0.0776712 0.00631852 0)
  (-0.0801343 0.005796 0)
  (-0.0827395 0.0050964 0)
  (-0.085465 0.00429386 0)
  (-0.0883884 0.00341531 0)
  (-0.0916326 0.00251835 0)
  (-0.0953417 0.00172659 0)
  (-0.099598 0.00127935 0)
  (-0.104398 0.00149162 0)
  (-0.109669 0.00269721 0)
  (-0.115228 0.00520322 0)
  (-0.120465 0.00951909 0)
  (-0.124614 0.0165395 0)
  (-0.128047 0.0273989 0)
  (-0.130966 0.0424827 0)
  (-0.134044 0.0609714 0)
  (-0.137719 0.0794402 0)
  (-0.138956 0.0883617 0)
  (-0.121448 0.067236 0)
  (-0.0782357 -0.0230574 0)
  (-0.273941 -0.198492 0)
  (0.0159122 0.194526 0)
  (0.0411811 0.0701967 0)
  (0.000369881 0.00579123 0)
  (-0.0128188 -0.00229514 0)
  (-0.0263297 -0.000265182 0)
  (-0.0413374 9.27551e-05 0)
  (-0.0576275 0.00122759 0)
  (-0.0730833 0.00349499 0)
  (-0.0852263 0.00561045 0)
  (-0.0918471 0.00592949 0)
  (-0.0961119 0.0039753 0)
  (-0.097856 -4.82468e-05 0)
  (-0.0981221 -0.00458927 0)
  (-0.0975491 -0.0094582 0)
  (-0.0970382 -0.0146443 0)
  (-0.0971132 -0.0196716 0)
  (-0.0977999 -0.0242566 0)
  (-0.0990061 -0.028152 0)
  (-0.100614 -0.0311851 0)
  (-0.102549 -0.033265 0)
  (-0.104881 -0.0345579 0)
  (-0.107525 -0.0350356 0)
  (-0.110384 -0.0346435 0)
  (-0.113369 -0.0335294 0)
  (-0.116356 -0.0317357 0)
  (-0.119107 -0.0290306 0)
  (-0.121244 -0.0249908 0)
  (-0.122286 -0.0189989 0)
  (-0.121798 -0.0111116 0)
  (-0.1189 -0.00102626 0)
  (-0.112222 0.0119806 0)
  (-0.100481 0.0285499 0)
  (-0.0832338 0.0481851 0)
  (-0.0612474 0.0669458 0)
  (-0.0374194 0.0778846 0)
  (0.00250342 0.0618816 0)
  (0.14299 -0.00834708 0)
  (-0.204765 -0.108527 0)
  (-0.0433576 -0.319806 0)
  (-0.413182 -0.123238 0)
  (-0.301228 0.0642715 0)
  (-0.250025 -0.017215 0)
  (-0.21026 -0.0225331 0)
  (-0.199083 -0.0115293 0)
  (-0.194647 -0.00187598 0)
  (-0.191164 0.00611531 0)
  (-0.186605 0.0136165 0)
  (-0.180081 0.0210812 0)
  (-0.17143 0.0285915 0)
  (-0.160977 0.0360484 0)
  (-0.149877 0.0432901 0)
  (-0.139279 0.0503058 0)
  (-0.129971 0.0573626 0)
  (-0.122219 0.0643978 0)
  (-0.116062 0.0713407 0)
  (-0.11133 0.0779523 0)
  (-0.107783 0.0838271 0)
  (-0.105218 0.0886051 0)
  (-0.103454 0.0920642 0)
  (-0.102334 0.0941109 0)
  (-0.101768 0.0948328 0)
  (-0.101715 0.0941933 0)
  (-0.102136 0.0921532 0)
  (-0.102953 0.0890467 0)
  (-0.10404 0.0851834 0)
  (-0.105186 0.0806528 0)
  (-0.106011 0.0754978 0)
  (-0.105844 0.0698116 0)
  (-0.103422 0.0648367 0)
  (-0.0969058 0.0614934 0)
  (-0.0839192 0.0606775 0)
  (-0.0626612 0.0633617 0)
  (-0.0335893 0.0700808 0)
  (0.0121718 0.0799033 0)
  (0.0551758 0.0808373 0)
  (0.0959981 0.0680457 0)
  (0.160926 0.0423927 0)
  (-0.231888 -0.00768934 0)
)
;

boundaryField
{
  floor
  {
    type noSlip;
  }
  ceiling
  {
    type noSlip;
  }
  sWall
  {
    type noSlip;
  }
  nWall
  {
    type noSlip;
  }
  sideWalls
  {
    type empty;
  }
  glass1
  {
    type noSlip;
  }
  glass2
  {
    type noSlip;
  }
  sun
  {
    type noSlip;
  }
  heatsource1
  {
    type noSlip;
  }
  heatsource2
  {
    type noSlip;
  }
  Table_master
  {
    type noSlip;
  }
  Table_slave
  {
    type noSlip;
  }
  inlet
  {
    type fixedValue;
    value uniform (0.277164 -0.114805 0);
  }
  outlet
  {
    type zeroGradient;
  }
} 	// ************************************************************************* //

