// -*- C++ -*-
// File generated by PyFoam - sorry for the ugliness

FoamFile
{
 version 2.0;
 format ascii;
 class volScalarField;
 location "700";
 object T;
}

dimensions [ 0 0 0 1 0 0 0 ];

internalField nonuniform List<scalar> 459
(
  303.429
  303.269
  303.266
  303.268
  303.27
  303.271
  303.272
  303.272
  303.272
  303.271
  303.268
  303.262
  303.256
  303.25
  303.242
  303.206
  303.241
  303.252
  303.252
  303.246
  303.239
  303.232
  303.224
  303.215
  303.207
  303.199
  303.191
  303.183
  303.174
  303.165
  303.154
  303.139
  303.1
  303.074
  303.554
  303.313
  303.308
  303.315
  303.321
  303.326
  303.329
  303.33
  303.328
  303.323
  303.314
  303.299
  303.282
  303.267
  303.258
  303.258
  303.263
  303.274
  303.295
  303.303
  303.305
  303.305
  303.301
  303.296
  303.294
  303.293
  303.291
  303.289
  303.288
  303.285
  303.28
  303.271
  303.254
  303.228
  303.175
  303.17
  303.677
  303.35
  303.336
  303.349
  303.361
  303.371
  303.379
  303.383
  303.384
  303.377
  303.361
  303.335
  303.303
  303.274
  303.256
  303.251
  303.258
  303.29
  303.304
  303.315
  303.321
  303.323
  303.322
  303.321
  303.321
  303.322
  303.323
  303.324
  303.325
  303.325
  303.324
  303.319
  303.307
  303.281
  303.239
  303.231
  303.798
  303.387
  303.359
  303.376
  303.395
  303.414
  303.431
  303.443
  303.448
  303.442
  303.418
  303.378
  303.329
  303.283
  303.252
  303.244
  303.255
  303.273
  303.292
  303.312
  303.327
  303.335
  303.339
  303.338
  303.343
  303.348
  303.353
  303.359
  303.364
  303.37
  303.376
  303.382
  303.387
  303.353
  303.32
  303.284
  303.265
  303.915
  303.431
  303.379
  303.395
  303.42
  303.447
  303.473
  303.496
  303.509
  303.504
  303.475
  303.419
  303.352
  303.289
  303.247
  303.236
  303.252
  303.279
  303.306
  303.33
  303.348
  303.358
  303.361
  303.362
  303.365
  303.37
  303.375
  303.381
  303.387
  303.393
  303.398
  303.402
  303.402
  303.386
  303.357
  303.327
  303.295
  303.298
  303.356
  303.49
  304.02
  303.486
  303.406
  303.408
  303.433
  303.461
  303.492
  303.523
  303.547
  303.548
  303.514
  303.446
  303.365
  303.29
  303.24
  303.228
  303.249
  303.286
  303.323
  303.353
  303.373
  303.383
  303.386
  303.386
  303.388
  303.392
  303.398
  303.403
  303.409
  303.414
  303.418
  303.42
  303.419
  303.409
  303.39
  303.373
  303.332
  303.319
  303.387
  303.51
  304.107
  303.575
  303.477
  303.446
  303.453
  303.473
  303.5
  303.53
  303.563
  303.563
  303.522
  303.449
  303.36
  303.278
  303.225
  303.216
  303.247
  303.297
  303.345
  303.38
  303.4
  303.409
  303.411
  303.41
  303.412
  303.415
  303.42
  303.426
  303.43
  303.435
  303.438
  303.438
  303.436
  303.428
  303.415
  303.399
  303.355
  303.341
  303.406
  303.536
  304.242
  303.826
  303.704
  303.612
  303.564
  303.549
  303.555
  303.582
  303.594
  303.569
  303.505
  303.417
  303.323
  303.241
  303.196
  303.201
  303.25
  303.316
  303.372
  303.409
  303.426
  303.432
  303.434
  303.434
  303.435
  303.439
  303.443
  303.447
  303.451
  303.454
  303.455
  303.455
  303.452
  303.446
  303.435
  303.418
  303.381
  303.365
  303.419
  303.577
  304.427
  304.239
  304.103
  303.965
  303.854
  303.778
  303.732
  303.7
  303.631
  303.537
  303.431
  303.328
  303.238
  303.173
  303.153
  303.188
  303.264
  303.346
  303.405
  303.434
  303.446
  303.451
  303.453
  303.454
  303.455
  303.458
  303.461
  303.464
  303.466
  303.468
  303.468
  303.467
  303.464
  303.46
  303.452
  303.438
  303.413
  303.399
  303.441
  303.581
  301.796
  302.562
  302.974
  303.161
  303.235
  303.245
  303.236
  303.208
  303.17
  303.13
  303.095
  303.079
  303.109
  303.191
  303.299
  303.385
  303.429
  303.449
  303.459
  303.463
  303.465
  303.466
  303.468
  303.469
  303.471
  303.473
  303.474
  303.475
  303.475
  303.474
  303.472
  303.469
  303.465
  303.458
  303.447
  303.443
  303.476
  303.553
  301.839
  302.374
  302.664
  302.827
  302.912
  302.946
  302.96
  302.97
  302.976
  302.979
  302.984
  303.011
  303.103
  303.233
  303.344
  303.407
  303.439
  303.455
  303.462
  303.466
  303.468
  303.47
  303.471
  303.472
  303.474
  303.475
  303.475
  303.476
  303.476
  303.476
  303.475
  303.475
  303.475
  303.474
  303.475
  303.48
  303.505
  303.544
  302.22
  302.158
  302.156
  302.434
  302.645
  302.752
  302.8
  302.823
  302.834
  302.848
  302.862
  302.879
  302.902
  302.959
  303.145
  303.303
  303.381
  303.419
  303.437
  303.445
  303.45
  303.452
  303.454
  303.455
  303.456
  303.457
  303.458
  303.459
  303.459
  303.46
  303.461
  303.462
  303.464
  303.466
  303.471
  303.476
  303.484
  303.494
  303.512
  303.536
)
;

boundaryField
{
  floor
  {
    type wallHeatTransfer;
    Tinf uniform 298.85;
    alphaWall uniform 0.24;
    value nonuniform List<scalar> 29
(
  302.777
  302.521
  302.624
  302.604
  302.56
  302.504
  302.448
  302.389
  302.328
  302.268
  302.209
  302.153
  302.099
  302.047
  301.996
  301.944
  301.89
  301.873
  302.088
  302.258
  302.258
  302.431
  302.528
  302.595
  302.777
  302.521
  302.706
  302.812
  302.863
)
;
  }
  ceiling
  {
    type wallHeatTransfer;
    Tinf uniform 298.85;
    alphaWall uniform 0.24;
    value nonuniform List<scalar> 43
(
  301.92
  301.879
  301.891
  302.165
  302.359
  302.45
  302.485
  302.496
  302.499
  302.512
  302.534
  302.56
  302.591
  302.652
  302.837
  302.993
  303.067
  303.1
  303.114
  303.119
  303.122
  303.123
  303.124
  303.124
  303.125
  303.127
  303.128
  303.129
  303.13
  303.132
  303.133
  303.135
  303.137
  303.139
  303.14
  303.144
  303.155
  303.178
  303.205
  303.201
  304.125
  303.993
  301.608
)
;
  }
  sWall
  {
    type wallHeatTransfer;
    Tinf uniform 311.144;
    alphaWall uniform 0.36;
    value uniform 303.364;
  }
  nWall
  {
    type wallHeatTransfer;
    Tinf uniform 299.15;
    alphaWall uniform 0.36;
    value nonuniform List<scalar> 6
(
  302.873
  303.01
  303.132
  303.213
  303.151
  303.082
)
;
  }
  sideWalls
  {
    type empty;
  }
  glass1
  {
    type wallHeatTransfer;
    Tinf uniform 311.144;
    alphaWall uniform 4.3;
    value nonuniform List<scalar> 9
(
  309.092
  308.699
  308.433
  308.218
  308.034
  307.866
  307.716
  307.729
  307.843
)
;
  }
  glass2
  {
    type wallHeatTransfer;
    Tinf uniform 299.15;
    alphaWall uniform 4.3;
    value nonuniform List<scalar> 2
(
  301.441
  301.54
)
;
  }
  sun
  {
    type wallHeatTransfer;
    Tinf uniform 298.85;
    alphaWall uniform 0.24;
    value nonuniform List<scalar> 14
(
  302.827
  302.719
  302.722
  302.74
  302.755
  302.768
  302.778
  302.788
  302.797
  302.803
  302.806
  302.804
  302.797
  302.788
)
;
  }
  heatsource1
  {
    type fixedGradient;
    gradient uniform 0;
  }
  heatsource2
  {
    type fixedGradient;
    gradient uniform 0;
  }
  Table_master
  {
    type zeroGradient;
  }
  Table_slave
  {
    type zeroGradient;
  }
  inlet
  {
    type fixedValue;
    value uniform 300.15;
  }
  outlet
  {
    type zeroGradient;
  }
} 	// ************************************************************************* //

