// -*- C++ -*-
// File generated by PyFoam - sorry for the ugliness

FoamFile
{
 version 2.0;
 format ascii;
 class volVectorField;
 location "500";
 object U;
}

dimensions [ 0 1 -1 0 0 0 0 ];

internalField nonuniform List<vector> 459
(
  (0.0335011 0.0851871 0)
  (-0.165528 0.0254881 0)
  (-0.189812 0.0178848 0)
  (-0.220449 0.0125264 0)
  (-0.243075 0.0066698 0)
  (-0.256936 0.000537505 0)
  (-0.260794 -0.00594376 0)
  (-0.253248 -0.0127919 0)
  (-0.234839 -0.0196795 0)
  (-0.206705 -0.025606 0)
  (-0.171556 -0.0297257 0)
  (-0.132615 -0.0317348 0)
  (-0.0930203 -0.0321968 0)
  (-0.057675 -0.0328676 0)
  (-0.0409087 -0.0354479 0)
  (-0.0014225 0.00699508 0)
  (-0.0206662 -0.0178351 0)
  (0.00366975 -0.0261444 0)
  (0.0239067 -0.0191522 0)
  (0.0395237 -0.0127495 0)
  (0.0507814 -0.00809123 0)
  (0.05728 -0.00489069 0)
  (0.0604656 -0.00322829 0)
  (0.0619197 -0.00249376 0)
  (0.0626987 -0.002127 0)
  (0.0631903 -0.00188731 0)
  (0.0634354 -0.00169101 0)
  (0.063368 -0.00144657 0)
  (0.0627726 -0.000980874 0)
  (0.0610707 9.24487e-05 0)
  (0.0570452 0.00232159 0)
  (0.049355 0.00475409 0)
  (0.0413293 0.00683727 0)
  (-0.0103992 0.020327 0)
  (0.206082 0.174044 0)
  (-0.153966 0.0665914 0)
  (-0.151833 0.0520077 0)
  (-0.183067 0.0408922 0)
  (-0.20509 0.0284963 0)
  (-0.218843 0.0148248 0)
  (-0.223107 -0.000435976 0)
  (-0.216225 -0.0170418 0)
  (-0.199234 -0.0331061 0)
  (-0.173643 -0.0461799 0)
  (-0.142442 -0.0543881 0)
  (-0.108993 -0.0570652 0)
  (-0.0765712 -0.0548358 0)
  (-0.0491382 -0.0492899 0)
  (-0.0316834 -0.0413593 0)
  (-0.0175805 -0.0209555 0)
  (-0.00815025 0.0106509 0)
  (0.0607843 0.0301131 0)
  (0.0332499 -0.0202923 0)
  (0.0399207 -0.0303644 0)
  (0.0505781 -0.0253236 0)
  (0.0588557 -0.0171283 0)
  (0.0641507 -0.009779 0)
  (0.0661499 -0.00396484 0)
  (0.0663855 -0.000791478 0)
  (0.0662872 0.000581331 0)
  (0.0663618 0.00123489 0)
  (0.0665128 0.00165348 0)
  (0.0666191 0.00202473 0)
  (0.0666386 0.00251491 0)
  (0.066517 0.00346873 0)
  (0.0657142 0.00580105 0)
  (0.0617889 0.012208 0)
  (0.0519292 0.017706 0)
  (0.0453141 0.021612 0)
  (-0.0432725 0.0439524 0)
  (0.364188 0.260056 0)
  (-0.170069 0.105638 0)
  (-0.113309 0.0836632 0)
  (-0.143067 0.0638182 0)
  (-0.162128 0.043477 0)
  (-0.174426 0.0213778 0)
  (-0.178042 -0.00337384 0)
  (-0.170312 -0.0299235 0)
  (-0.153216 -0.0549288 0)
  (-0.129043 -0.0743202 0)
  (-0.10112 -0.0854896 0)
  (-0.0725376 -0.0879221 0)
  (-0.0457132 -0.0826777 0)
  (-0.0229286 -0.0711707 0)
  (-0.00646426 -0.0545716 0)
  (0.00677281 -0.0285804 0)
  (0.0138888 0.00560373 0)
  (0.104959 -0.042552 0)
  (0.0726843 -0.0445996 0)
  (0.0689935 -0.0396973 0)
  (0.0713427 -0.0312084 0)
  (0.0729504 -0.0217325 0)
  (0.0736528 -0.0138434 0)
  (0.0717747 -0.0113481 0)
  (0.0679675 -0.00818611 0)
  (0.0653961 -0.0064763 0)
  (0.0642348 -0.00550292 0)
  (0.0637246 -0.00488884 0)
  (0.0634863 -0.0044588 0)
  (0.0635688 -0.00402221 0)
  (0.0644495 -0.00322149 0)
  (0.0673595 -8.27518e-05 0)
  (0.0653673 0.0172258 0)
  (0.052089 0.0296103 0)
  (0.051042 0.0384515 0)
  (-0.0720043 0.0692267 0)
  (0.506307 0.329024 0)
  (-0.203813 0.140086 0)
  (-0.0732016 0.110061 0)
  (-0.100747 0.0827002 0)
  (-0.113843 0.0567003 0)
  (-0.122133 0.0279854 0)
  (-0.122379 -0.00575129 0)
  (-0.111399 -0.0426401 0)
  (-0.0932095 -0.0759962 0)
  (-0.0710521 -0.100249 0)
  (-0.048025 -0.112845 0)
  (-0.0263216 -0.114162 0)
  (-0.00688832 -0.106107 0)
  (0.0100465 -0.0898984 0)
  (0.0236311 -0.0686744 0)
  (0.0381174 -0.0428553 0)
  (0.0606465 -0.017116 0)
  (0.091236 -0.00365784 0)
  (0.0996695 -0.0353731 0)
  (0.0862369 -0.039425 0)
  (0.0778986 -0.0343591 0)
  (0.0740934 -0.0275529 0)
  (0.0717772 -0.0198418 0)
  (0.0709444 -0.0110565 0)
  (0.0729813 -0.00648553 0)
  (0.0770513 -0.0052319 0)
  (0.0804045 -0.0045223 0)
  (0.0827249 -0.00393864 0)
  (0.0841539 -0.00314326 0)
  (0.0841 -0.00189973 0)
  (0.081519 -3.46037e-06 0)
  (0.0751996 0.00282271 0)
  (0.0623619 0.00710598 0)
  (0.0515934 0.02753 0)
  (0.0411183 0.0445899 0)
  (0.053878 0.0584609 0)
  (-0.101392 0.0924353 0)
  (0.628189 0.38238 0)
  (-0.244813 0.168215 0)
  (-0.0343024 0.124555 0)
  (-0.0569245 0.0927983 0)
  (-0.0615465 0.0637162 0)
  (-0.062791 0.0306994 0)
  (-0.0540797 -0.0108986 0)
  (-0.0372264 -0.0572526 0)
  (-0.0185863 -0.0958718 0)
  (-0.000859591 -0.121436 0)
  (0.0142456 -0.132376 0)
  (0.0260224 -0.130734 0)
  (0.0351794 -0.119857 0)
  (0.0423472 -0.10215 0)
  (0.0485955 -0.0802613 0)
  (0.055945 -0.0567761 0)
  (0.0669686 -0.0370857 0)
  (0.0775898 -0.0312105 0)
  (0.0794762 -0.0364827 0)
  (0.0730622 -0.0346759 0)
  (0.0652418 -0.0291453 0)
  (0.0594503 -0.0231385 0)
  (0.0555381 -0.0171249 0)
  (0.0536816 -0.0111484 0)
  (0.0541222 -0.00622535 0)
  (0.0564531 -0.00399564 0)
  (0.0589715 -0.00316314 0)
  (0.0613957 -0.0024128 0)
  (0.063606 -0.000849011 0)
  (0.0652068 0.00204998 0)
  (0.0650399 0.00638166 0)
  (0.0625514 0.0123018 0)
  (0.0570659 0.0204849 0)
  (0.0504752 0.0359959 0)
  (0.0415682 0.0547979 0)
  (0.0621322 0.0756491 0)
  (-0.015756 0.105069 0)
  (0.0451319 0.0345504 0)
  (-0.0616284 -0.0347737 0)
  (-0.268603 -0.0569486 0)
  (0.715565 0.426865 0)
  (-0.284151 0.187061 0)
  (-0.00549679 0.119316 0)
  (-0.0119812 0.0917964 0)
  (-0.00507185 0.063808 0)
  (0.00400693 0.0252518 0)
  (0.0299299 -0.026372 0)
  (0.0510927 -0.0753513 0)
  (0.0665107 -0.111624 0)
  (0.0758399 -0.132944 0)
  (0.0796627 -0.140133 0)
  (0.0792949 -0.13563 0)
  (0.076123 -0.122488 0)
  (0.0715024 -0.10363 0)
  (0.0668971 -0.0819727 0)
  (0.0637081 -0.0602375 0)
  (0.062883 -0.0421248 0)
  (0.0622894 -0.0321625 0)
  (0.0582503 -0.0291352 0)
  (0.0506473 -0.0263425 0)
  (0.0425002 -0.0221749 0)
  (0.0361241 -0.0178 0)
  (0.031918 -0.013704 0)
  (0.0300026 -0.00994203 0)
  (0.0302634 -0.00716711 0)
  (0.0321666 -0.00626929 0)
  (0.0348072 -0.00621807 0)
  (0.0378642 -0.00584871 0)
  (0.0411748 -0.00422705 0)
  (0.0445254 -0.00052743 0)
  (0.0473859 0.00547241 0)
  (0.0487924 0.0134469 0)
  (0.0489848 0.0236533 0)
  (0.0494046 0.0379951 0)
  (0.0486833 0.0561727 0)
  (0.0704577 0.0793362 0)
  (0.0526284 0.0982766 0)
  (0.0913014 0.0690287 0)
  (0.114401 0.0448059 0)
  (-0.128727 -0.00779947 0)
  (0.76763 0.467447 0)
  (-0.302703 0.172607 0)
  (0.0215848 0.067472 0)
  (0.0483581 0.0638657 0)
  (0.0681344 0.0470717 0)
  (0.0964819 0.00379139 0)
  (0.129297 -0.0498922 0)
  (0.148995 -0.0926001 0)
  (0.156518 -0.120565 0)
  (0.153748 -0.13422 0)
  (0.143146 -0.135433 0)
  (0.12748 -0.126913 0)
  (0.109301 -0.111583 0)
  (0.0907762 -0.0923274 0)
  (0.0736855 -0.0717868 0)
  (0.0592029 -0.0521282 0)
  (0.0479122 -0.0359661 0)
  (0.0388615 -0.0257222 0)
  (0.030121 -0.0207435 0)
  (0.0213584 -0.0178251 0)
  (0.0136313 -0.01513 0)
  (0.00792041 -0.0127221 0)
  (0.00437286 -0.0107452 0)
  (0.00291255 -0.00918878 0)
  (0.0032921 -0.00838709 0)
  (0.00496187 -0.00863299 0)
  (0.00732015 -0.00925928 0)
  (0.010171 -0.00942883 0)
  (0.0135747 -0.00831122 0)
  (0.017661 -0.00492248 0)
  (0.0234025 0.00167084 0)
  (0.0289031 0.0104208 0)
  (0.0341366 0.020721 0)
  (0.0409566 0.0333659 0)
  (0.0486563 0.0482042 0)
  (0.0703481 0.0668996 0)
  (0.0838986 0.0756732 0)
  (0.115589 0.0535963 0)
  (0.155188 0.0443864 0)
  (-0.0371398 0.0925094 0)
  (0.872036 0.469152 0)
  (-0.0657475 0.151476 0)
  (0.10879 -0.0132764 0)
  (0.179654 -0.0372809 0)
  (0.204931 -0.0471023 0)
  (0.236831 -0.0695971 0)
  (0.256625 -0.0928448 0)
  (0.259731 -0.11024 0)
  (0.247258 -0.1195 0)
  (0.223089 -0.120352 0)
  (0.191607 -0.113769 0)
  (0.156837 -0.101514 0)
  (0.121975 -0.0854067 0)
  (0.0894745 -0.0675484 0)
  (0.0610283 -0.0499153 0)
  (0.0373498 -0.0338625 0)
  (0.0191879 -0.021424 0)
  (0.00589233 -0.0140841 0)
  (-0.00435273 -0.0109357 0)
  (-0.0120593 -0.00983472 0)
  (-0.0180083 -0.00923433 0)
  (-0.0222157 -0.0089057 0)
  (-0.024865 -0.00883579 0)
  (-0.0261682 -0.00903218 0)
  (-0.0264064 -0.00962053 0)
  (-0.0260032 -0.0106317 0)
  (-0.0253274 -0.0117475 0)
  (-0.0244682 -0.0125336 0)
  (-0.0232567 -0.0125094 0)
  (-0.0212962 -0.0110976 0)
  (-0.0175964 -0.00755896 0)
  (-0.0087366 -0.00121024 0)
  (-0.000813889 0.00683622 0)
  (0.00958156 0.0149372 0)
  (0.0212358 0.0221103 0)
  (0.0411484 0.0296427 0)
  (0.0605149 0.0234348 0)
  (0.0809632 -0.00408608 0)
  (0.14008 0.0386201 0)
  (-0.403433 0.201731 0)
  (1.01837 0.422923 0)
  (0.484519 0.279656 0)
  (0.499252 0.18385 0)
  (0.524136 0.114139 0)
  (0.505446 0.0649012 0)
  (0.465509 0.0186053 0)
  (0.41849 -0.0214303 0)
  (0.366556 -0.0500265 0)
  (0.309823 -0.065744 0)
  (0.251104 -0.0700682 0)
  (0.193802 -0.0660696 0)
  (0.140606 -0.0569597 0)
  (0.0930279 -0.0448428 0)
  (0.0525726 -0.0317833 0)
  (0.0196449 -0.0196239 0)
  (-0.00667318 -0.00959603 0)
  (-0.0232099 -0.00448869 0)
  (-0.0333684 -0.00297032 0)
  (-0.0402594 -0.00324382 0)
  (-0.0454183 -0.00417264 0)
  (-0.0495435 -0.00516844 0)
  (-0.0528226 -0.0061498 0)
  (-0.0554249 -0.00712643 0)
  (-0.0575464 -0.00812155 0)
  (-0.0594498 -0.00918388 0)
  (-0.0614784 -0.010293 0)
  (-0.0639655 -0.0112422 0)
  (-0.0672001 -0.011674 0)
  (-0.0714939 -0.0110668 0)
  (-0.0772736 -0.00872286 0)
  (-0.0850834 -0.00383427 0)
  (-0.0948173 0.00411123 0)
  (-0.104596 0.014556 0)
  (-0.119219 0.0277953 0)
  (-0.142162 0.0440425 0)
  (-0.175943 0.0622751 0)
  (-0.224005 0.0786565 0)
  (-0.279646 0.0906725 0)
  (-0.347982 0.0982123 0)
  (-0.608399 0.10162 0)
  (-0.156398 0.00375658 0)
  (0.123827 0.00712509 0)
  (0.207127 -0.0247132 0)
  (0.19351 -0.0373382 0)
  (0.178054 -0.0377488 0)
  (0.156718 -0.0347945 0)
  (0.12781 -0.0301179 0)
  (0.09429 -0.0238707 0)
  (0.0595777 -0.0165011 0)
  (0.0251739 -0.00857159 0)
  (-0.00884828 -0.000565075 0)
  (-0.0339268 0.00477157 0)
  (-0.0510353 0.00778982 0)
  (-0.0617843 0.00886362 0)
  (-0.0678106 0.00839376 0)
  (-0.0717506 0.00757644 0)
  (-0.0747371 0.00681313 0)
  (-0.0774249 0.00616466 0)
  (-0.0801323 0.00551112 0)
  (-0.0829195 0.00476585 0)
  (-0.0858067 0.00397508 0)
  (-0.0888797 0.00315847 0)
  (-0.0922626 0.00236185 0)
  (-0.0960793 0.00169716 0)
  (-0.100394 0.00139829 0)
  (-0.105209 0.00175026 0)
  (-0.110455 0.00305806 0)
  (-0.115961 0.00560392 0)
  (-0.121107 0.00989815 0)
  (-0.125158 0.0168806 0)
  (-0.128487 0.0276608 0)
  (-0.131333 0.0426272 0)
  (-0.134328 0.0610407 0)
  (-0.13791 0.0795623 0)
  (-0.139096 0.0886407 0)
  (-0.122003 0.0676449 0)
  (-0.0810635 -0.0224087 0)
  (-0.273568 -0.19742 0)
  (0.0101243 0.195406 0)
  (0.0432767 0.0721818 0)
  (0.00142193 0.00737454 0)
  (-0.00913332 -0.000817223 0)
  (-0.019928 0.00037089 0)
  (-0.0332327 -0.000350794 0)
  (-0.0489805 -9.14873e-05 0)
  (-0.0649451 0.00165036 0)
  (-0.0785068 0.00362047 0)
  (-0.0873467 0.00429377 0)
  (-0.0926152 0.00280897 0)
  (-0.0953522 -0.000886373 0)
  (-0.0962699 -0.00556845 0)
  (-0.0961941 -0.0107175 0)
  (-0.0960076 -0.0162328 0)
  (-0.0963313 -0.021596 0)
  (-0.0972529 -0.0264119 0)
  (-0.0986895 -0.0304093 0)
  (-0.100534 -0.0334128 0)
  (-0.102792 -0.0354751 0)
  (-0.105444 -0.0366793 0)
  (-0.108379 -0.0369879 0)
  (-0.111494 -0.0364432 0)
  (-0.114708 -0.0352873 0)
  (-0.117879 -0.0334174 0)
  (-0.120754 -0.0305896 0)
  (-0.122948 -0.0263757 0)
  (-0.123978 -0.0201261 0)
  (-0.123442 -0.0119921 0)
  (-0.12049 -0.00170658 0)
  (-0.113763 0.0114402 0)
  (-0.101969 0.0280892 0)
  (-0.0846261 0.047811 0)
  (-0.0624936 0.0668415 0)
  (-0.0383394 0.0781441 0)
  (0.0010012 0.0626609 0)
  (0.143349 -0.00801485 0)
  (-0.204701 -0.107781 0)
  (-0.0420946 -0.319101 0)
  (-0.412141 -0.122611 0)
  (-0.30033 0.0653295 0)
  (-0.246284 -0.0172821 0)
  (-0.206128 -0.0234724 0)
  (-0.193762 -0.0124403 0)
  (-0.188935 -0.00262931 0)
  (-0.185664 0.00556674 0)
  (-0.181748 0.0133031 0)
  (-0.176114 0.0210166 0)
  (-0.168453 0.0288211 0)
  (-0.158944 0.0366971 0)
  (-0.148452 0.0444797 0)
  (-0.13815 0.0520828 0)
  (-0.128915 0.0596632 0)
  (-0.12119 0.0671869 0)
  (-0.115103 0.0745468 0)
  (-0.110531 0.0814657 0)
  (-0.107232 0.087508 0)
  (-0.104968 0.0923124 0)
  (-0.103522 0.0956865 0)
  (-0.102731 0.0976413 0)
  (-0.102499 0.0982098 0)
  (-0.102765 0.0973447 0)
  (-0.103465 0.0951509 0)
  (-0.10451 0.0920899 0)
  (-0.105779 0.0882498 0)
  (-0.107055 0.0837009 0)
  (-0.107956 0.0784683 0)
  (-0.107818 0.0725923 0)
  (-0.105382 0.0674275 0)
  (-0.0988414 0.0638983 0)
  (-0.0858488 0.0628835 0)
  (-0.0645569 0.0653431 0)
  (-0.0352549 0.0718405 0)
  (0.00981904 0.0815227 0)
  (0.0535677 0.0828216 0)
  (0.0944895 0.0701562 0)
  (0.160798 0.0446431 0)
  (-0.234593 -0.00508313 0)
)
;

boundaryField
{
  floor
  {
    type noSlip;
  }
  ceiling
  {
    type noSlip;
  }
  sWall
  {
    type noSlip;
  }
  nWall
  {
    type noSlip;
  }
  sideWalls
  {
    type empty;
  }
  glass1
  {
    type noSlip;
  }
  glass2
  {
    type noSlip;
  }
  sun
  {
    type noSlip;
  }
  heatsource1
  {
    type noSlip;
  }
  heatsource2
  {
    type noSlip;
  }
  Table_master
  {
    type noSlip;
  }
  Table_slave
  {
    type noSlip;
  }
  inlet
  {
    type fixedValue;
    value uniform (0.277164 -0.114805 0);
  }
  outlet
  {
    type zeroGradient;
  }
} 	// ************************************************************************* //

