// -*- C++ -*-
// File generated by PyFoam - sorry for the ugliness

FoamFile
{
 version 2.0;
 format ascii;
 class volScalarField;
 location "900";
 object T;
}

dimensions [ 0 0 0 1 0 0 0 ];

internalField nonuniform List<scalar> 459
(
  304.203
  303.931
  303.922
  303.921
  303.92
  303.919
  303.918
  303.916
  303.914
  303.912
  303.908
  303.902
  303.894
  303.884
  303.873
  303.76
  303.74
  303.732
  303.727
  303.724
  303.721
  303.719
  303.717
  303.715
  303.713
  303.711
  303.708
  303.706
  303.703
  303.701
  303.698
  303.694
  303.69
  303.694
  304.402
  303.966
  303.946
  303.951
  303.955
  303.959
  303.962
  303.964
  303.964
  303.962
  303.955
  303.943
  303.924
  303.898
  303.868
  303.843
  303.822
  303.755
  303.741
  303.73
  303.724
  303.721
  303.718
  303.714
  303.709
  303.704
  303.699
  303.694
  303.689
  303.684
  303.68
  303.675
  303.672
  303.67
  303.668
  303.681
  304.599
  304.012
  303.974
  303.985
  303.998
  304.01
  304.021
  304.029
  304.034
  304.034
  304.027
  304.008
  303.979
  303.94
  303.896
  303.855
  303.823
  303.755
  303.739
  303.73
  303.726
  303.725
  303.724
  303.718
  303.711
  303.703
  303.696
  303.688
  303.681
  303.674
  303.668
  303.662
  303.66
  303.658
  303.657
  303.674
  304.786
  304.07
  304.001
  304.015
  304.037
  304.059
  304.08
  304.097
  304.11
  304.114
  304.107
  304.084
  304.045
  303.992
  303.933
  303.874
  303.821
  303.788
  303.761
  303.745
  303.734
  303.73
  303.731
  303.732
  303.733
  303.732
  303.732
  303.731
  303.73
  303.728
  303.726
  303.722
  303.718
  303.698
  303.677
  303.662
  303.671
  304.959
  304.144
  304.031
  304.038
  304.065
  304.094
  304.124
  304.153
  304.175
  304.187
  304.184
  304.16
  304.113
  304.05
  303.98
  303.911
  303.852
  303.807
  303.773
  303.75
  303.737
  303.735
  303.738
  303.742
  303.745
  303.746
  303.747
  303.747
  303.746
  303.743
  303.739
  303.733
  303.726
  303.712
  303.692
  303.671
  303.668
  303.709
  303.742
  303.751
  305.108
  304.239
  304.09
  304.064
  304.084
  304.114
  304.147
  304.182
  304.215
  304.239
  304.243
  304.218
  304.167
  304.097
  304.019
  303.943
  303.876
  303.823
  303.782
  303.753
  303.739
  303.738
  303.744
  303.751
  303.755
  303.758
  303.759
  303.759
  303.758
  303.755
  303.749
  303.741
  303.732
  303.719
  303.701
  303.681
  303.671
  303.684
  303.693
  303.721
  305.228
  304.397
  304.248
  304.165
  304.14
  304.145
  304.168
  304.198
  304.231
  304.268
  304.276
  304.248
  304.193
  304.119
  304.039
  303.96
  303.89
  303.831
  303.785
  303.753
  303.739
  303.742
  303.751
  303.759
  303.765
  303.768
  303.77
  303.77
  303.769
  303.764
  303.758
  303.747
  303.736
  303.723
  303.708
  303.691
  303.679
  303.68
  303.684
  303.707
  305.428
  304.808
  304.647
  304.496
  304.377
  304.308
  304.279
  304.277
  304.293
  304.308
  304.295
  304.251
  304.184
  304.105
  304.025
  303.949
  303.882
  303.827
  303.782
  303.75
  303.737
  303.744
  303.756
  303.766
  303.773
  303.777
  303.779
  303.78
  303.778
  303.775
  303.769
  303.76
  303.745
  303.733
  303.722
  303.711
  303.706
  303.712
  303.726
  303.837
  305.706
  305.437
  305.162
  304.934
  304.75
  304.612
  304.518
  304.457
  304.417
  304.362
  304.288
  304.205
  304.12
  304.039
  303.965
  303.901
  303.847
  303.802
  303.765
  303.74
  303.734
  303.746
  303.76
  303.771
  303.779
  303.785
  303.788
  303.79
  303.79
  303.789
  303.788
  303.788
  303.791
  303.796
  303.808
  303.828
  303.854
  303.881
  303.9
  303.947
  297.905
  301.842
  303.221
  303.71
  303.917
  304.003
  304.027
  304.027
  304.006
  303.974
  303.934
  303.893
  303.853
  303.816
  303.785
  303.759
  303.738
  303.725
  303.731
  303.746
  303.762
  303.774
  303.783
  303.79
  303.796
  303.801
  303.804
  303.808
  303.811
  303.815
  303.819
  303.825
  303.837
  303.852
  303.87
  303.886
  303.897
  303.907
  298.667
  301.708
  302.699
  303.239
  303.521
  303.657
  303.716
  303.737
  303.748
  303.752
  303.75
  303.743
  303.735
  303.726
  303.719
  303.713
  303.708
  303.712
  303.725
  303.742
  303.758
  303.771
  303.781
  303.79
  303.798
  303.804
  303.81
  303.815
  303.819
  303.823
  303.828
  303.834
  303.842
  303.853
  303.865
  303.876
  303.868
  303.891
  300.731
  300.654
  300.65
  302.389
  302.907
  303.225
  303.463
  303.541
  303.579
  303.597
  303.61
  303.621
  303.632
  303.641
  303.65
  303.658
  303.665
  303.672
  303.681
  303.696
  303.713
  303.728
  303.741
  303.752
  303.762
  303.77
  303.778
  303.785
  303.792
  303.799
  303.805
  303.812
  303.818
  303.824
  303.831
  303.841
  303.848
  303.85
  303.848
  303.883
)
;

boundaryField
{
  floor
  {
    type wallHeatTransfer;
    Tinf uniform 305.2;
    alphaWall uniform 0.24;
    value nonuniform List<scalar> 29
(
  304.033
  304.062
  304.02
  304.005
  303.996
  303.992
  303.992
  303.998
  304.006
  304.014
  304.021
  304.029
  304.036
  304.043
  304.05
  304.058
  304.066
  304.075
  304.082
  304.106
  304.106
  304.044
  304.007
  303.98
  304.033
  304.062
  303.977
  303.946
  303.942
)
;
  }
  ceiling
  {
    type wallHeatTransfer;
    Tinf uniform 303.2;
    alphaWall uniform 0.24;
    value nonuniform List<scalar> 43
(
  300.898
  300.815
  300.802
  302.435
  302.925
  303.224
  303.445
  303.517
  303.55
  303.564
  303.573
  303.581
  303.588
  303.593
  303.597
  303.6
  303.603
  303.61
  303.619
  303.631
  303.646
  303.659
  303.67
  303.679
  303.686
  303.693
  303.699
  303.705
  303.711
  303.717
  303.725
  303.734
  303.742
  303.751
  303.76
  303.773
  303.78
  303.78
  303.776
  303.803
  305.587
  305.346
  298.919
)
;
  }
  sWall
  {
    type wallHeatTransfer;
    Tinf uniform 315.2;
    alphaWall uniform 0.36;
    value uniform 302.153;
  }
  nWall
  {
    type wallHeatTransfer;
    Tinf uniform 307.2;
    alphaWall uniform 0.36;
    value nonuniform List<scalar> 6
(
  304.418
  304.377
  304.319
  304.385
  304.362
  304.432
)
;
  }
  sideWalls
  {
    type empty;
  }
  glass1
  {
    type wallHeatTransfer;
    Tinf uniform 315.2;
    alphaWall uniform 4.3;
    value nonuniform List<scalar> 9
(
  312.45
  311.731
  311.239
  310.84
  310.51
  310.227
  309.991
  310.032
  310.226
)
;
  }
  glass2
  {
    type wallHeatTransfer;
    Tinf uniform 307.2;
    alphaWall uniform 4.3;
    value nonuniform List<scalar> 2
(
  305.966
  306.037
)
;
  }
  sun
  {
    type wallHeatTransfer;
    Tinf uniform 305.2;
    alphaWall uniform 0.24;
    value nonuniform List<scalar> 14
(
  304.343
  304.103
  304.097
  304.092
  304.088
  304.084
  304.08
  304.077
  304.073
  304.069
  304.064
  304.058
  304.051
  304.043
)
;
  }
  heatsource1
  {
    type fixedGradient;
    gradient uniform 0;
  }
  heatsource2
  {
    type fixedGradient;
    gradient uniform 0;
  }
  Table_master
  {
    type zeroGradient;
  }
  Table_slave
  {
    type zeroGradient;
  }
  inlet
  {
    type fixedValue;
    value uniform 293.15;
  }
  outlet
  {
    type zeroGradient;
  }
} 	// ************************************************************************* //

