/*--------------------------------*- C++ -*----------------------------------*\
  =========                 |
  \\      /  F ield         | OpenFOAM: The Open Source CFD Toolbox
   \\    /   O peration     | Website:  https://openfoam.org
    \\  /    A nd           | Version:  6
     \\/     M anipulation  |
\*---------------------------------------------------------------------------*/
FoamFile
{
    version     2.0;
    format      ascii;
    class       volScalarField;
    location    "400";
    object      nut;
}
// * * * * * * * * * * * * * * * * * * * * * * * * * * * * * * * * * * * * * //

dimensions      [0 2 -1 0 0 0 0];

internalField   nonuniform List<scalar> 
459
(
0.00101603
0.00110169
0.00111439
0.00116458
0.00121053
0.00125273
0.00129297
0.00133359
0.00136688
0.00138581
0.00138518
0.00136092
0.00131254
0.00124662
0.00117545
0.000437622
0.000536386
0.000587032
0.000571464
0.000546868
0.000519329
0.000488939
0.00045976
0.000433227
0.000409429
0.000388108
0.000369117
0.000352032
0.000336428
0.000321826
0.00030752
0.000292454
0.000285553
0.000263864
0.00140987
0.00326157
0.00305522
0.00354466
0.00400136
0.00446708
0.0049018
0.00524083
0.00552874
0.00577221
0.00593089
0.00595096
0.00574862
0.00514735
0.00365289
0.0011885
0.000784655
0.000496756
0.000927006
0.00122236
0.00142425
0.00152208
0.00151704
0.00128471
0.00113813
0.00102821
0.000940956
0.000869547
0.000807069
0.000750874
0.000698618
0.000649232
0.000606807
0.000565881
0.000686184
0.000365588
0.00174194
0.00447074
0.00371552
0.00478167
0.00525983
0.005604
0.00586545
0.0060678
0.0062709
0.00649148
0.00670286
0.00686293
0.00691096
0.00678206
0.00634291
0.00515241
0.00114956
0.000993697
0.00133149
0.00160806
0.00183955
0.00199085
0.00193339
0.000689734
0.000616236
0.00055694
0.000508796
0.000469309
0.000436574
0.000409213
0.000386331
0.000367544
0.000396694
0.000454649
0.000771172
0.000431483
0.00206428
0.00583528
0.00367909
0.00508118
0.00556059
0.00569973
0.00574868
0.00580918
0.00593555
0.00613693
0.0063861
0.00664558
0.00684478
0.00693806
0.00687366
0.00645213
0.00499923
0.00131891
0.00166004
0.00208505
0.00242992
0.00267416
0.0028198
0.00264596
0.000771818
0.000713552
0.000674566
0.00064647
0.000622495
0.000597413
0.000572976
0.000546434
0.000514246
0.000484391
0.000489007
0.000900186
0.000481033
0.0023929
0.00760397
0.00407227
0.00482157
0.0055325
0.00559567
0.00549983
0.00544557
0.0055445
0.00574322
0.00601396
0.00632654
0.00658126
0.0067129
0.00668186
0.00644982
0.0058932
0.00479892
0.00435007
0.0041358
0.00401829
0.00396006
0.00393189
0.00383763
0.00334328
0.00313775
0.00303133
0.00294492
0.0028391
0.00268494
0.00241333
0.00206108
0.00165843
0.00124454
0.000915949
0.000902639
0.000644794
0.000600643
0.000721845
0.000808706
0.00273914
0.00951848
0.00576422
0.00462575
0.00517843
0.00545827
0.00543353
0.00528938
0.00538705
0.00557036
0.00584062
0.00615677
0.00643058
0.0065671
0.00650627
0.00624916
0.00585316
0.00540963
0.00511034
0.0049079
0.00475426
0.00464199
0.00454985
0.00443895
0.00426103
0.00410786
0.00396948
0.00382879
0.00367628
0.00350528
0.00327058
0.00293405
0.00249549
0.00197936
0.00149663
0.0010878
0.000862369
0.000754351
0.00108993
0.000844409
0.00306202
0.0109103
0.00840623
0.00601053
0.00543626
0.00549536
0.00553621
0.00546209
0.00545576
0.00558351
0.00584854
0.00618134
0.00646654
0.00658753
0.00647455
0.00614618
0.00572273
0.00538083
0.00520775
0.00509577
0.00495378
0.00476801
0.00455344
0.00434262
0.00415708
0.00400613
0.00387076
0.0037394
0.00361024
0.00348714
0.00337107
0.00317295
0.00283705
0.00239286
0.00194773
0.00152639
0.00124797
0.00118037
0.00123214
0.000960607
0.0031296
0.00995209
0.00868004
0.00777391
0.00704127
0.00657133
0.00605997
0.00567317
0.00554976
0.00569351
0.00602127
0.00639788
0.00667461
0.00672718
0.00649849
0.00604374
0.00554322
0.00522884
0.00512352
0.00492387
0.00461004
0.00426403
0.003962
0.00373812
0.00358301
0.00346953
0.0033757
0.00329498
0.00323082
0.00319195
0.0031886
0.00320296
0.00303964
0.00273943
0.00247106
0.0023494
0.0024957
0.00295611
0.00367319
0.00150325
0.00305072
0.00363607
0.00408621
0.00428244
0.00438848
0.00441841
0.00453297
0.00482629
0.00529925
0.00588158
0.0064491
0.00686618
0.00702298
0.00684901
0.00634909
0.00568298
0.005174
0.00485082
0.00455014
0.00414166
0.00370863
0.00335811
0.00311942
0.00296814
0.00286871
0.0027939
0.00272824
0.00266456
0.00259887
0.00252777
0.00244824
0.00235968
0.00228468
0.00223042
0.0022191
0.00224238
0.00223752
0.00214734
0.00200408
0.00140382
0.00172914
0.00331749
0.00439161
0.00517559
0.00591141
0.00656842
0.00712096
0.00751088
0.00766318
0.00753165
0.00711543
0.00641817
0.00551496
0.00471164
0.00420515
0.00380101
0.0033534
0.00291944
0.00259963
0.00240141
0.00228754
0.00222222
0.0021826
0.0021562
0.00213696
0.00212241
0.00211224
0.002108
0.0021131
0.00213704
0.00216722
0.00220232
0.0022364
0.00224448
0.00218546
0.00204625
0.00183853
0.00115171
0.00208093
0.00453092
0.0060945
0.00671281
0.00725692
0.00765236
0.00772546
0.00758727
0.00710186
0.0062978
0.00533077
0.00439088
0.00362758
0.00306749
0.00262789
0.00222788
0.00192257
0.00174019
0.00163791
0.00158906
0.0015752
0.00158357
0.00160782
0.00164503
0.00169378
0.00175295
0.00182071
0.00189342
0.00197296
0.00206283
0.00216115
0.00226228
0.00235211
0.00241495
0.00240204
0.0024249
0.00237093
0.00116963
0.00181333
0.00191808
0.0019946
0.00210936
0.00199552
0.00186447
0.00174627
0.00162942
0.00152127
0.00139765
0.00125529
0.00109208
0.000923022
0.000768559
0.000646936
0.000565671
0.000520379
0.000500797
0.000497637
0.000504518
0.000517732
0.000534914
0.000554935
0.00057754
0.000602677
0.000630415
0.000660942
0.000694614
0.000732078
0.0007745
0.000822496
0.000875273
0.000933468
0.00099775
0.00106816
0.00115463
0.00118039
0.00115061
0.00107783
0.000999254
)
;

boundaryField
{
    floor
    {
        type            nutkWallFunction;
        Cmu             0.09;
        kappa           0.41;
        E               9.8;
        value           nonuniform List<scalar> 
29
(
0.000141174
5.16723e-05
6.4341e-05
7.07229e-05
6.87688e-05
6.5668e-05
6.21758e-05
5.82952e-05
5.45409e-05
5.11011e-05
4.79931e-05
4.51891e-05
4.26751e-05
4.03989e-05
3.83078e-05
3.63393e-05
3.43996e-05
3.23437e-05
3.13976e-05
2.84032e-05
2.84031e-05
4.22062e-05
5.08742e-05
5.72808e-05
0.000141174
5.16722e-05
5.92938e-05
0.000119983
0.000157639
)
;
    }
    ceiling
    {
        type            nutkWallFunction;
        Cmu             0.09;
        kappa           0.41;
        E               9.8;
        value           nonuniform List<scalar> 
43
(
0.000212847
0.000224332
0.00023268
0.000245221
0.000232892
0.000218579
0.000205571
0.000192612
0.000180524
0.000166586
0.000150362
0.000131502
0.000111624
9.30895e-05
7.81855e-05
6.80405e-05
6.23101e-05
5.98137e-05
5.94095e-05
6.02887e-05
6.19728e-05
6.4155e-05
6.66868e-05
6.95321e-05
7.26802e-05
7.61356e-05
7.99173e-05
8.40646e-05
8.86506e-05
9.38103e-05
9.96079e-05
0.000105937
0.000112866
0.000120461
0.000128716
0.00013877
0.000141748
0.000138304
0.000129845
0.000120638
0.00034542
0.000405904
0.00024195
)
;
    }
    sWall
    {
        type            nutkWallFunction;
        Cmu             0.09;
        kappa           0.41;
        E               9.8;
        value           uniform 0.000212906;
    }
    nWall
    {
        type            nutkWallFunction;
        Cmu             0.09;
        kappa           0.41;
        E               9.8;
        value           nonuniform List<scalar> 6(9.79474e-05 0.000102243 0.000116084 0.000138441 0.000140514 0.000120644);
    }
    sideWalls
    {
        type            empty;
    }
    glass1
    {
        type            nutkWallFunction;
        Cmu             0.09;
        kappa           0.41;
        E               9.8;
        value           nonuniform List<scalar> 9(0.000122694 0.00016818 0.000205407 0.000240802 0.000276277 0.0003131 0.000347001 0.000354058 0.000345847);
    }
    glass2
    {
        type            nutkWallFunction;
        Cmu             0.09;
        kappa           0.41;
        E               9.8;
        value           nonuniform List<scalar> 2(0.000178584 0.000167358);
    }
    sun
    {
        type            nutkWallFunction;
        Cmu             0.09;
        kappa           0.41;
        E               9.8;
        value           nonuniform List<scalar> 
14
(
0.000122613
0.000132625
0.000134102
0.000139921
0.000145223
0.000150072
0.00015468
0.000159315
0.000163101
0.000165249
0.000165177
0.000162422
0.000156912
0.000149369
)
;
    }
    heatsource1
    {
        type            nutkWallFunction;
        Cmu             0.09;
        kappa           0.41;
        E               9.8;
        value           nonuniform List<scalar> 3(7.24285e-05 8.74017e-05 9.79464e-05);
    }
    heatsource2
    {
        type            nutkWallFunction;
        Cmu             0.09;
        kappa           0.41;
        E               9.8;
        value           nonuniform List<scalar> 4(0.000142677 9.50397e-05 9.50397e-05 0.000138176);
    }
    Table_master
    {
        type            nutkWallFunction;
        Cmu             0.09;
        kappa           0.41;
        E               9.8;
        value           nonuniform List<scalar> 9(8.34671e-05 7.43747e-05 6.69435e-05 6.08389e-05 5.57786e-05 5.15435e-05 4.7973e-05 4.49638e-05 4.24762e-05);
    }
    Table_slave
    {
        type            nutkWallFunction;
        Cmu             0.09;
        kappa           0.41;
        E               9.8;
        value           nonuniform List<scalar> 9(9.34863e-05 8.63881e-05 8.16005e-05 7.81297e-05 7.51536e-05 7.20252e-05 6.8962e-05 6.56167e-05 6.1533e-05);
    }
    inlet
    {
        type            calculated;
        value           uniform 0.000100623;
    }
    outlet
    {
        type            calculated;
        value           nonuniform List<scalar> 2(0.00181333 0.00191808);
    }
}


// ************************************************************************* //
