/*--------------------------------*- C++ -*----------------------------------*\
  =========                 |
  \\      /  F ield         | OpenFOAM: The Open Source CFD Toolbox
   \\    /   O peration     | Website:  https://openfoam.org
    \\  /    A nd           | Version:  6
     \\/     M anipulation  |
\*---------------------------------------------------------------------------*/
FoamFile
{
    version     2.0;
    format      ascii;
    class       volScalarField;
    location    "1300";
    object      nut;
}
// * * * * * * * * * * * * * * * * * * * * * * * * * * * * * * * * * * * * * //

dimensions      [0 2 -1 0 0 0 0];

internalField   nonuniform List<scalar> 
459
(
0.00176481
0.00237716
0.00225924
0.00210552
0.00196089
0.00182417
0.00167507
0.00148566
0.00108613
0.000559314
0.000522528
0.000486475
0.000456428
0.00041054
0.0003771
0.000452091
0.000568293
0.000507961
0.000453911
0.000413329
0.000373974
0.000334073
0.000291417
0.000241994
0.000205734
0.000191289
0.000184559
0.000182538
0.00018736
0.000206162
0.000282178
0.000428551
0.000479036
0.000420095
0.00268662
0.00333033
0.00348935
0.00341225
0.00325487
0.00307058
0.00283845
0.00248741
0.00191223
0.00149773
0.0017475
0.00175024
0.00155368
0.00134431
0.000947074
0.000430364
0.000365715
0.000527083
0.00155999
0.00151143
0.00128846
0.00103626
0.000855378
0.000562855
0.000454919
0.000393621
0.000377805
0.000389362
0.000408746
0.000423764
0.000405163
0.000334947
0.000499504
0.000907847
0.00111124
0.000492252
0.00314703
0.00412706
0.00406108
0.00383737
0.00363586
0.00346534
0.00325323
0.00289788
0.00233417
0.00221776
0.00237401
0.00216682
0.00178303
0.00145298
0.00114441
0.000863065
0.000382872
0.00071075
0.00198029
0.00159898
0.00119486
0.000895049
0.000670648
0.00030709
0.000262395
0.000236514
0.000219712
0.00021041
0.000204446
0.000199607
0.00019669
0.000243655
0.000771156
0.0012495
0.001076
0.000556814
0.00336032
0.00493953
0.00446143
0.00400805
0.0037549
0.00358831
0.00337353
0.00302584
0.00260497
0.00289205
0.00291131
0.00250749
0.00198048
0.00151095
0.00111534
0.000841149
0.000730628
0.000764131
0.00150819
0.001478
0.0012247
0.00103979
0.000929778
0.000810096
0.000696734
0.000732411
0.000775436
0.000824098
0.000876439
0.000930504
0.000981185
0.00099075
0.000968056
0.00113482
0.00127638
0.00149797
0.000785292
0.00352755
0.00534486
0.00434664
0.00380293
0.00364613
0.00349544
0.00329294
0.00302602
0.00287728
0.00328753
0.00337856
0.00337677
0.00308332
0.00278814
0.00248674
0.00218103
0.0019474
0.00192914
0.00208195
0.00225454
0.00234164
0.0024382
0.00250693
0.00257174
0.00265344
0.00279259
0.00297707
0.0031936
0.00341351
0.00359757
0.00370937
0.00368739
0.00353597
0.00326725
0.00272379
0.00224909
0.00160841
0.000809701
0.000729467
0.0008536
0.00369431
0.00512024
0.00368815
0.0038295
0.00348155
0.00333637
0.00318752
0.00305776
0.00311065
0.00350646
0.00384602
0.00422449
0.00433831
0.00436045
0.00431045
0.00416896
0.00394869
0.0037567
0.0036623
0.00362103
0.0036102
0.00361778
0.0036031
0.00357469
0.00355164
0.00357484
0.00367117
0.003834
0.00402176
0.00417121
0.00423088
0.0041818
0.00403871
0.00383104
0.00353849
0.00306051
0.00254488
0.00193921
0.00170518
0.000918808
0.00389803
0.00445175
0.00263951
0.00357362
0.00333096
0.00322387
0.00315087
0.0031453
0.00330363
0.00372745
0.00433521
0.00487747
0.00517258
0.00539643
0.00553175
0.0055585
0.0054715
0.00531069
0.00514378
0.00500324
0.0048989
0.00481251
0.00469859
0.00455035
0.00437961
0.00423482
0.00418293
0.00425229
0.00439586
0.00450762
0.004502
0.00436924
0.00417141
0.00400194
0.00392308
0.00384034
0.00348104
0.00299003
0.0026552
0.00114957
0.00418476
0.00428405
0.0027207
0.00284482
0.00325354
0.0032467
0.00322984
0.00329367
0.00349994
0.0040121
0.00473639
0.00527467
0.00562057
0.00589871
0.00610468
0.00623073
0.00626238
0.00620208
0.0060856
0.00595491
0.00583702
0.00573233
0.00561399
0.00546004
0.00526706
0.00504517
0.00485625
0.00479553
0.00488235
0.004967
0.00490149
0.00464599
0.00426382
0.00386274
0.00351609
0.00319851
0.0028052
0.00239231
0.0020638
0.00118597
0.00468452
0.00547918
0.0067003
0.00238109
0.0030713
0.00355198
0.0035014
0.00355392
0.00377996
0.00428629
0.00484662
0.00524845
0.00552855
0.00572933
0.00592337
0.00608983
0.0062024
0.00624634
0.00622802
0.0061676
0.00609096
0.00601499
0.00593994
0.005859
0.0057711
0.00567753
0.00556566
0.00540182
0.00543753
0.00558223
0.0056029
0.00536621
0.00487102
0.00421863
0.00355391
0.00297185
0.00252907
0.00225859
0.0021265
0.00144039
0.0122127
0.00607499
0.00226861
0.00394877
0.00401796
0.00400809
0.00417006
0.00437251
0.00461655
0.00483582
0.00493508
0.00502363
0.005132
0.00525735
0.0053815
0.00548234
0.00554494
0.00556779
0.00556151
0.00554094
0.00551685
0.00549477
0.00547886
0.00547181
0.00549036
0.00555339
0.00570331
0.00596251
0.00627254
0.00655132
0.0067793
0.00691168
0.00681587
0.00639361
0.00572701
0.00502519
0.00441345
0.00150632
0.00555948
0.0034128
0.00403896
0.0041102
0.00409857
0.00393506
0.00376568
0.00367555
0.00373166
0.00381562
0.00388119
0.00393937
0.00400123
0.00407204
0.0041506
0.00422997
0.0043012
0.00435798
0.00439957
0.00443007
0.00445572
0.00448236
0.00451161
0.00453352
0.0045676
0.0046447
0.00479755
0.00504028
0.00535278
0.00569031
0.00600112
0.0062306
0.00630388
0.00613784
0.00570533
0.00485103
0.00418377
0.00142337
0.00195388
0.00287538
0.00413051
0.00200493
0.00143535
0.00144138
0.00137668
0.0012968
0.0012154
0.00114698
0.00109191
0.00104751
0.00101401
0.000988123
0.000967853
0.000952045
0.000939981
0.000931043
0.000924546
0.000919797
0.000916242
0.000913578
0.000911767
0.000910995
0.000911831
0.000916985
0.000926727
0.000942619
0.000967798
0.00100612
0.00105962
0.0011264
0.00120283
0.0012875
0.00137207
0.00142761
0.00140913
0.00134978
0.00129267
0.00115546
)
;

boundaryField
{
    floor
    {
        type            nutkWallFunction;
        Cmu             0.09;
        kappa           0.41;
        E               9.8;
        value           nonuniform List<scalar> 
29
(
4.37454e-05
5.35546e-05
6.83897e-05
6.07323e-05
5.37967e-05
4.852e-05
4.33359e-05
3.80071e-05
3.22178e-05
2.53674e-05
2.02188e-05
1.81321e-05
1.71518e-05
1.68545e-05
1.75545e-05
2.02689e-05
3.09136e-05
5.04893e-05
5.7053e-05
4.94041e-05
4.9404e-05
5.87318e-05
6.69499e-05
9.51171e-05
4.37453e-05
5.35546e-05
6.31613e-05
8.60515e-05
9.25565e-05
)
;
    }
    ceiling
    {
        type            nutkWallFunction;
        Cmu             0.09;
        kappa           0.41;
        E               9.8;
        value           nonuniform List<scalar> 
43
(
0.000228505
0.000327055
0.000456181
0.000234014
0.000170892
0.000171581
0.000164248
0.000155142
0.000145803
0.000137899
0.0001315
0.000126312
0.00012238
0.000119331
0.000116936
0.000115065
0.000113636
0.000112576
0.000111806
0.000111243
0.000110822
0.000110507
0.000110292
0.000110201
0.000110303
0.000110916
0.000112073
0.000113958
0.000116936
0.000121452
0.000127724
0.000135502
0.00014434
0.000154059
0.000163697
0.000169993
0.000167901
0.000161159
0.000154639
0.00013885
0.000511938
0.000590685
0.000598531
)
;
    }
    sWall
    {
        type            nutkWallFunction;
        Cmu             0.09;
        kappa           0.41;
        E               9.8;
        value           uniform 0.000228558;
    }
    nWall
    {
        type            nutkWallFunction;
        Cmu             0.09;
        kappa           0.41;
        E               9.8;
        value           nonuniform List<scalar> 6(0.000103342 0.000111121 0.000138187 0.000178855 0.000169503 0.000138859);
    }
    sideWalls
    {
        type            empty;
    }
    glass1
    {
        type            nutkWallFunction;
        Cmu             0.09;
        kappa           0.41;
        E               9.8;
        value           nonuniform List<scalar> 9(0.000207972 0.000307581 0.000355902 0.000378029 0.000395274 0.000412386 0.000433184 0.000462273 0.000512509);
    }
    glass2
    {
        type            nutkWallFunction;
        Cmu             0.09;
        kappa           0.41;
        E               9.8;
        value           nonuniform List<scalar> 2(0.000142451 0.000171457);
    }
    sun
    {
        type            nutkWallFunction;
        Cmu             0.09;
        kappa           0.41;
        E               9.8;
        value           nonuniform List<scalar> 
14
(
0.000207745
0.000274286
0.000261622
0.000245008
0.00022926
0.000214257
0.000197754
0.000176545
0.000130692
6.72149e-05
6.25722e-05
5.79778e-05
5.41174e-05
4.81512e-05
)
;
    }
    heatsource1
    {
        type            nutkWallFunction;
        Cmu             0.09;
        kappa           0.41;
        E               9.8;
        value           nonuniform List<scalar> 3(9.80369e-05 8.83094e-05 0.000103339);
    }
    heatsource2
    {
        type            nutkWallFunction;
        Cmu             0.09;
        kappa           0.41;
        E               9.8;
        value           nonuniform List<scalar> 4(5.07551e-05 4.225e-05 4.22499e-05 4.45184e-05);
    }
    Table_master
    {
        type            nutkWallFunction;
        Cmu             0.09;
        kappa           0.41;
        E               9.8;
        value           nonuniform List<scalar> 9(3.43636e-05 2.82294e-05 2.46114e-05 2.2231e-05 2.09039e-05 2.00492e-05 1.93533e-05 1.89323e-05 2.55957e-05);
    }
    Table_slave
    {
        type            nutkWallFunction;
        Cmu             0.09;
        kappa           0.41;
        E               9.8;
        value           nonuniform List<scalar> 9(8.43055e-05 8.86683e-05 9.38976e-05 9.97727e-05 0.000106049 0.000112489 0.000118486 0.000119614 0.000116935);
    }
    inlet
    {
        type            calculated;
        value           uniform 3.3541e-05;
    }
    outlet
    {
        type            calculated;
        value           nonuniform List<scalar> 2(0.00195388 0.00287538);
    }
}


// ************************************************************************* //
