// -*- C++ -*-
// File generated by PyFoam - sorry for the ugliness

FoamFile
{
 version 2.0;
 format ascii;
 class volScalarField;
 location "1400";
 object T;
}

dimensions [ 0 0 0 1 0 0 0 ];

internalField nonuniform List<scalar> 459
(
  303.689
  303.434
  303.42
  303.415
  303.41
  303.405
  303.4
  303.393
  303.384
  303.372
  303.36
  303.349
  303.342
  303.34
  303.343
  303.455
  303.43
  303.42
  303.423
  303.428
  303.433
  303.438
  303.444
  303.45
  303.455
  303.461
  303.467
  303.472
  303.478
  303.483
  303.489
  303.495
  303.502
  303.522
  303.86
  303.476
  303.452
  303.453
  303.455
  303.454
  303.451
  303.442
  303.425
  303.401
  303.374
  303.35
  303.333
  303.324
  303.323
  303.325
  303.34
  303.455
  303.409
  303.401
  303.404
  303.41
  303.416
  303.42
  303.424
  303.428
  303.432
  303.435
  303.439
  303.443
  303.447
  303.451
  303.458
  303.466
  303.477
  303.507
  304.039
  303.527
  303.488
  303.497
  303.51
  303.519
  303.521
  303.513
  303.487
  303.445
  303.398
  303.358
  303.329
  303.316
  303.313
  303.317
  303.323
  303.383
  303.38
  303.387
  303.398
  303.41
  303.419
  303.421
  303.424
  303.427
  303.429
  303.432
  303.435
  303.438
  303.442
  303.445
  303.45
  303.457
  303.468
  303.5
  304.221
  303.59
  303.526
  303.541
  303.567
  303.593
  303.609
  303.602
  303.561
  303.493
  303.422
  303.363
  303.323
  303.306
  303.304
  303.31
  303.319
  303.331
  303.346
  303.367
  303.388
  303.409
  303.427
  303.441
  303.453
  303.463
  303.472
  303.48
  303.486
  303.492
  303.497
  303.501
  303.504
  303.488
  303.475
  303.472
  303.498
  304.397
  303.669
  303.569
  303.58
  303.618
  303.661
  303.697
  303.687
  303.625
  303.526
  303.433
  303.359
  303.313
  303.293
  303.294
  303.307
  303.324
  303.343
  303.366
  303.393
  303.419
  303.444
  303.465
  303.482
  303.496
  303.508
  303.518
  303.526
  303.532
  303.535
  303.535
  303.533
  303.528
  303.514
  303.494
  303.482
  303.495
  303.563
  303.612
  303.617
  304.557
  303.772
  303.643
  303.634
  303.671
  303.726
  303.768
  303.735
  303.645
  303.53
  303.42
  303.336
  303.289
  303.274
  303.284
  303.309
  303.338
  303.369
  303.402
  303.434
  303.464
  303.49
  303.511
  303.528
  303.541
  303.552
  303.56
  303.566
  303.569
  303.569
  303.565
  303.558
  303.549
  303.534
  303.514
  303.495
  303.496
  303.527
  303.544
  303.578
  304.705
  303.934
  303.806
  303.781
  303.8
  303.846
  303.83
  303.743
  303.612
  303.473
  303.355
  303.278
  303.245
  303.249
  303.28
  303.324
  303.37
  303.414
  303.455
  303.49
  303.519
  303.543
  303.561
  303.574
  303.584
  303.592
  303.597
  303.6
  303.601
  303.598
  303.59
  303.58
  303.568
  303.553
  303.533
  303.514
  303.506
  303.516
  303.527
  303.555
  304.917
  304.341
  304.201
  304.12
  304.08
  303.998
  303.847
  303.656
  303.467
  303.314
  303.216
  303.177
  303.188
  303.232
  303.296
  303.367
  303.429
  303.48
  303.522
  303.552
  303.575
  303.593
  303.605
  303.614
  303.621
  303.625
  303.628
  303.628
  303.626
  303.622
  303.615
  303.603
  303.592
  303.577
  303.562
  303.547
  303.543
  303.555
  303.573
  303.694
  305.221
  304.949
  304.694
  304.456
  304.209
  303.854
  303.503
  303.227
  303.057
  302.988
  302.999
  303.066
  303.163
  303.265
  303.364
  303.457
  303.516
  303.556
  303.585
  303.607
  303.622
  303.634
  303.642
  303.647
  303.65
  303.652
  303.652
  303.651
  303.649
  303.647
  303.645
  303.645
  303.647
  303.653
  303.667
  303.689
  303.719
  303.75
  303.771
  303.823
  296.239
  297.951
  299.139
  300.154
  300.975
  301.644
  302.173
  302.575
  302.881
  303.126
  303.31
  303.423
  303.501
  303.556
  303.593
  303.619
  303.637
  303.65
  303.659
  303.665
  303.67
  303.673
  303.675
  303.676
  303.677
  303.677
  303.678
  303.679
  303.68
  303.682
  303.687
  303.694
  303.707
  303.725
  303.747
  303.77
  303.788
  303.809
  296.868
  298.689
  300.175
  301.269
  301.947
  302.429
  302.786
  303.047
  303.234
  303.373
  303.475
  303.543
  303.59
  303.622
  303.644
  303.659
  303.669
  303.677
  303.682
  303.686
  303.689
  303.692
  303.694
  303.695
  303.696
  303.698
  303.699
  303.7
  303.701
  303.703
  303.706
  303.712
  303.72
  303.732
  303.747
  303.764
  303.763
  303.792
  299.78
  299.699
  299.694
  301.593
  302.408
  302.797
  303.026
  303.196
  303.327
  303.427
  303.502
  303.558
  303.599
  303.626
  303.645
  303.657
  303.666
  303.671
  303.675
  303.678
  303.681
  303.684
  303.686
  303.688
  303.691
  303.693
  303.696
  303.698
  303.7
  303.703
  303.705
  303.708
  303.711
  303.714
  303.72
  303.728
  303.738
  303.743
  303.745
  303.785
)
;

boundaryField
{
  floor
  {
    type wallHeatTransfer;
    Tinf uniform 305.2;
    alphaWall uniform 0.24;
    value nonuniform List<scalar> 29
(
  303.523
  303.781
  303.719
  303.687
  303.69
  303.701
  303.714
  303.732
  303.751
  303.769
  303.788
  303.805
  303.822
  303.839
  303.855
  303.87
  303.886
  303.904
  303.921
  303.96
  303.96
  303.889
  303.852
  303.83
  303.523
  303.781
  303.767
  303.581
  303.484
)
;
  }
  ceiling
  {
    type wallHeatTransfer;
    Tinf uniform 303.2;
    alphaWall uniform 0.24;
    value nonuniform List<scalar> 43
(
  300.025
  299.939
  299.927
  301.694
  302.459
  302.824
  303.037
  303.196
  303.318
  303.41
  303.477
  303.525
  303.559
  303.58
  303.593
  303.601
  303.606
  303.609
  303.611
  303.612
  303.614
  303.615
  303.616
  303.618
  303.619
  303.622
  303.624
  303.627
  303.631
  303.635
  303.639
  303.644
  303.649
  303.655
  303.662
  303.672
  303.682
  303.686
  303.685
  303.717
  305.127
  304.878
  297.285
)
;
  }
  sWall
  {
    type wallHeatTransfer;
    Tinf uniform 315.2;
    alphaWall uniform 0.36;
    value uniform 301.389;
  }
  nWall
  {
    type wallHeatTransfer;
    Tinf uniform 307.2;
    alphaWall uniform 0.36;
    value nonuniform List<scalar> 6
(
  304.302
  304.253
  304.182
  304.303
  304.28
  304.347
)
;
  }
  sideWalls
  {
    type empty;
  }
  glass1
  {
    type wallHeatTransfer;
    Tinf uniform 315.2;
    alphaWall uniform 4.3;
    value nonuniform List<scalar> 9
(
  311.544
  310.931
  310.544
  310.249
  310.002
  309.777
  309.612
  309.683
  309.906
)
;
  }
  glass2
  {
    type wallHeatTransfer;
    Tinf uniform 307.2;
    alphaWall uniform 4.3;
    value nonuniform List<scalar> 2
(
  305.899
  305.982
)
;
  }
  sun
  {
    type wallHeatTransfer;
    Tinf uniform 305.2;
    alphaWall uniform 0.24;
    value nonuniform List<scalar> 14
(
  303.848
  303.607
  303.591
  303.581
  303.571
  303.562
  303.553
  303.543
  303.532
  303.52
  303.509
  303.503
  303.502
  303.508
)
;
  }
  heatsource1
  {
    type fixedGradient;
    gradient uniform 0;
  }
  heatsource2
  {
    type fixedGradient;
    gradient uniform 0;
  }
  Table_master
  {
    type zeroGradient;
  }
  Table_slave
  {
    type zeroGradient;
  }
  inlet
  {
    type fixedValue;
    value uniform 296.15;
  }
  outlet
  {
    type zeroGradient;
  }
} 	// ************************************************************************* //

