// -*- C++ -*-
// File generated by PyFoam - sorry for the ugliness

FoamFile
{
 version 2.0;
 format ascii;
 class volScalarField;
 location "600";
 object T;
}

dimensions [ 0 0 0 1 0 0 0 ];

internalField nonuniform List<scalar> 459
(
  305.844
  305.638
  305.572
  305.438
  305.256
  305.157
  305.111
  305.085
  305.069
  305.058
  305.051
  305.047
  305.044
  305.042
  305.038
  303.938
  303.997
  304.029
  304.005
  303.971
  303.956
  303.957
  303.954
  303.949
  303.947
  303.95
  303.956
  303.958
  303.962
  303.969
  303.984
  303.998
  303.998
  304.003
  306.225
  306.303
  306.561
  306.37
  306.081
  305.676
  305.41
  305.255
  305.184
  305.145
  305.128
  305.119
  305.11
  305.097
  305.077
  305.05
  304.898
  304.309
  304.272
  304.245
  304.22
  304.2
  304.138
  304.143
  304.137
  304.131
  304.129
  304.133
  304.152
  304.189
  304.215
  304.243
  304.275
  304.236
  304.149
  304.062
  306.61
  306.825
  306.876
  306.851
  306.704
  306.446
  306.149
  305.74
  305.343
  305.23
  305.198
  305.186
  305.175
  305.156
  305.126
  305.086
  305.043
  304.62
  304.626
  304.635
  304.663
  304.671
  304.621
  304.333
  304.355
  304.386
  304.411
  304.432
  304.451
  304.475
  304.515
  304.577
  304.68
  304.634
  304.615
  304.646
  307.4
  307.26
  307.221
  307.156
  307.023
  306.81
  306.52
  306.137
  305.65
  305.334
  305.268
  305.256
  305.248
  305.231
  305.199
  305.147
  305.076
  305.004
  304.947
  304.993
  305.046
  305.097
  305.137
  305.172
  305.202
  305.209
  305.216
  305.223
  305.23
  305.235
  305.238
  305.233
  305.211
  305.138
  305.107
  305.069
  305.085
  307.31
  307.081
  307.054
  307.069
  307.033
  306.897
  306.649
  306.282
  305.799
  305.426
  305.337
  305.326
  305.328
  305.325
  305.311
  305.287
  305.255
  305.225
  305.203
  305.206
  305.22
  305.236
  305.248
  305.257
  305.264
  305.269
  305.275
  305.284
  305.294
  305.305
  305.317
  305.328
  305.335
  305.333
  305.339
  305.346
  305.337
  305.374
  305.376
  305.385
  307.219
  306.908
  306.889
  306.968
  306.994
  306.9
  306.673
  306.312
  305.842
  305.487
  305.399
  305.39
  305.401
  305.409
  305.407
  305.394
  305.374
  305.352
  305.334
  305.325
  305.322
  305.32
  305.32
  305.319
  305.318
  305.318
  305.321
  305.327
  305.336
  305.348
  305.364
  305.382
  305.4
  305.416
  305.432
  305.444
  305.451
  305.457
  305.429
  305.406
  307.129
  306.822
  306.828
  306.928
  306.96
  306.869
  306.641
  306.281
  305.841
  305.539
  305.457
  305.453
  305.469
  305.485
  305.493
  305.49
  305.477
  305.46
  305.442
  305.427
  305.415
  305.404
  305.395
  305.387
  305.379
  305.373
  305.37
  305.369
  305.372
  305.38
  305.393
  305.412
  305.432
  305.452
  305.467
  305.477
  305.481
  305.478
  305.462
  305.417
  307.034
  306.802
  306.829
  306.889
  306.892
  306.798
  306.581
  306.244
  305.847
  305.609
  305.531
  305.523
  305.538
  305.558
  305.573
  305.577
  305.571
  305.558
  305.542
  305.526
  305.509
  305.494
  305.479
  305.465
  305.451
  305.439
  305.428
  305.419
  305.413
  305.411
  305.415
  305.426
  305.443
  305.462
  305.478
  305.491
  305.501
  305.509
  305.517
  305.531
  306.946
  306.773
  306.77
  306.783
  306.786
  306.702
  306.514
  306.217
  305.881
  305.707
  305.639
  305.622
  305.628
  305.642
  305.653
  305.658
  305.656
  305.647
  305.634
  305.618
  305.601
  305.583
  305.566
  305.549
  305.531
  305.514
  305.498
  305.482
  305.467
  305.454
  305.446
  305.443
  305.447
  305.455
  305.463
  305.47
  305.475
  305.479
  305.487
  305.528
  306.757
  306.623
  306.63
  306.596
  306.457
  306.201
  305.965
  305.84
  305.781
  305.756
  305.749
  305.749
  305.748
  305.746
  305.74
  305.729
  305.716
  305.7
  305.683
  305.665
  305.647
  305.628
  305.609
  305.59
  305.57
  305.55
  305.531
  305.511
  305.494
  305.48
  305.471
  305.467
  305.466
  305.468
  305.469
  305.47
  305.472
  305.48
  306.658
  306.535
  306.489
  306.497
  306.411
  306.219
  306.076
  305.99
  305.938
  305.907
  305.886
  305.868
  305.853
  305.838
  305.822
  305.806
  305.789
  305.77
  305.751
  305.731
  305.712
  305.692
  305.671
  305.651
  305.63
  305.609
  305.587
  305.566
  305.545
  305.525
  305.508
  305.495
  305.487
  305.481
  305.478
  305.474
  305.47
  305.476
  308.853
  308.453
  306.815
  306.56
  306.404
  306.416
  306.362
  306.256
  306.179
  306.125
  306.085
  306.053
  306.025
  305.997
  305.97
  305.942
  305.916
  305.89
  305.864
  305.839
  305.815
  305.791
  305.767
  305.744
  305.722
  305.7
  305.678
  305.656
  305.634
  305.612
  305.589
  305.567
  305.546
  305.526
  305.51
  305.496
  305.484
  305.473
  305.461
  305.461
)
;

boundaryField
{
  floor
  {
    type wallHeatTransfer;
    Tinf uniform 305.2;
    alphaWall uniform 0.24;
    value nonuniform List<scalar> 29
(
  305.062
  304.264
  304.286
  304.304
  304.299
  304.297
  304.302
  304.323
  304.324
  304.313
  304.299
  304.287
  304.281
  304.281
  304.285
  304.292
  304.303
  304.316
  304.323
  304.346
  304.346
  304.364
  304.752
  305.102
  305.062
  304.264
  304.477
  304.707
  305.028
)
;
  }
  ceiling
  {
    type wallHeatTransfer;
    Tinf uniform 303.2;
    alphaWall uniform 0.24;
    value nonuniform List<scalar> 43
(
  308.393
  308.094
  306.666
  306.355
  306.155
  306.169
  306.117
  306.012
  305.932
  305.874
  305.831
  305.798
  305.77
  305.745
  305.723
  305.701
  305.68
  305.658
  305.636
  305.613
  305.59
  305.568
  305.546
  305.525
  305.504
  305.484
  305.464
  305.444
  305.423
  305.403
  305.382
  305.361
  305.341
  305.322
  305.306
  305.291
  305.276
  305.26
  305.246
  305.251
  306.831
  306.68
  306.558
)
;
  }
  sWall
  {
    type wallHeatTransfer;
    Tinf uniform 315.2;
    alphaWall uniform 0.36;
    value uniform 309.599;
  }
  nWall
  {
    type wallHeatTransfer;
    Tinf uniform 307.2;
    alphaWall uniform 0.36;
    value nonuniform List<scalar> 6
(
  305.731
  305.73
  305.737
  305.676
  305.665
  305.694
)
;
  }
  sideWalls
  {
    type empty;
  }
  glass1
  {
    type wallHeatTransfer;
    Tinf uniform 315.2;
    alphaWall uniform 4.3;
    value nonuniform List<scalar> 9
(
  312.024
  311.954
  311.827
  311.011
  310.784
  310.606
  310.426
  310.215
  309.941
)
;
  }
  glass2
  {
    type wallHeatTransfer;
    Tinf uniform 307.2;
    alphaWall uniform 4.3;
    value nonuniform List<scalar> 2
(
  306.598
  306.551
)
;
  }
  sun
  {
    type wallHeatTransfer;
    Tinf uniform 305.2;
    alphaWall uniform 0.24;
    value nonuniform List<scalar> 14
(
  305.782
  305.599
  305.542
  305.418
  305.251
  305.161
  305.122
  305.1
  305.087
  305.078
  305.073
  305.07
  305.067
  305.065
)
;
  }
  heatsource1
  {
    type fixedGradient;
    gradient uniform 0;
  }
  heatsource2
  {
    type fixedGradient;
    gradient uniform 0;
  }
  Table_master
  {
    type zeroGradient;
  }
  Table_slave
  {
    type zeroGradient;
  }
  inlet
  {
    type fixedValue;
    value uniform 290.15;
  }
  outlet
  {
    type zeroGradient;
  }
} 	// ************************************************************************* //

