/*--------------------------------*- C++ -*----------------------------------*\
  =========                 |
  \\      /  F ield         | OpenFOAM: The Open Source CFD Toolbox
   \\    /   O peration     | Website:  https://openfoam.org
    \\  /    A nd           | Version:  6
     \\/     M anipulation  |
\*---------------------------------------------------------------------------*/
FoamFile
{
    version     2.0;
    format      ascii;
    class       volScalarField;
    location    "100";
    object      epsilon;
}
// * * * * * * * * * * * * * * * * * * * * * * * * * * * * * * * * * * * * * //

dimensions      [0 2 -3 0 0 0 0];

internalField   nonuniform List<scalar> 
459
(
0.000307759
0.00038608
0.000397116
0.000452175
0.000506447
0.000559673
0.000613428
0.000670472
0.000723256
0.000757089
0.000761094
0.000727886
0.000659819
0.000573258
0.000490027
3.42576e-05
6.18624e-05
7.94995e-05
7.5236e-05
6.85765e-05
6.13718e-05
5.34055e-05
4.6184e-05
4.01869e-05
3.5293e-05
3.12853e-05
2.79694e-05
2.51772e-05
2.28043e-05
2.07092e-05
1.87407e-05
1.67198e-05
1.49723e-05
1.15587e-05
0.000853586
0.00138568
0.000365289
0.000345784
0.000356809
0.000375778
0.000404221
0.000446269
0.000497552
0.000543152
0.000566577
0.000555048
0.000506395
0.000437229
0.000398566
0.000505547
0.00015311
5.81708e-05
9.81508e-05
9.36971e-05
8.15174e-05
6.81238e-05
5.71418e-05
5.21227e-05
4.39154e-05
3.65111e-05
3.04084e-05
2.54833e-05
2.15268e-05
1.83182e-05
1.57753e-05
1.38606e-05
1.29747e-05
1.32304e-05
2.67004e-05
2.05339e-05
0.00165334
0.00374483
0.000483284
0.000331148
0.000337879
0.000368436
0.000415168
0.000480517
0.000558669
0.000627473
0.000664282
0.000657298
0.000607569
0.000532399
0.000461556
0.000427548
0.000453524
0.000322642
0.000203957
0.000142633
0.000105187
8.12057e-05
6.8524e-05
0.000131512
9.64544e-05
7.24397e-05
5.57124e-05
4.38094e-05
3.51776e-05
2.8845e-05
2.42778e-05
2.11769e-05
1.64077e-05
1.4494e-05
4.37531e-05
2.92433e-05
0.00282546
0.00814824
0.000838602
0.000336352
0.000324795
0.000366099
0.000432504
0.000530678
0.000647696
0.000738004
0.000777068
0.000761539
0.000698059
0.000607486
0.000506878
0.000430605
0.000400653
0.000693824
0.00038646
0.000224299
0.000147191
0.000105795
8.18501e-05
7.23321e-05
0.000175624
0.00013934
0.000117796
0.00010329
9.14473e-05
8.06608e-05
7.07062e-05
6.06688e-05
4.97229e-05
2.93683e-05
1.98396e-05
6.6741e-05
3.805e-05
0.00450729
0.0148423
0.00179284
0.000402991
0.000318946
0.000360075
0.000453123
0.000629103
0.000808452
0.000911532
0.000937022
0.000898292
0.000806492
0.000684495
0.000549063
0.000421161
0.000316656
0.000258064
0.000196881
0.00014841
0.000113857
9.05951e-05
7.53747e-05
6.67308e-05
6.8954e-05
6.87808e-05
6.79225e-05
6.59455e-05
6.23787e-05
5.72901e-05
5.15881e-05
4.57308e-05
3.9997e-05
3.16349e-05
2.43199e-05
5.18932e-05
3.9801e-05
7.44064e-05
0.000133445
0.000185899
0.0068975
0.0221394
0.00427082
0.000811905
0.000451893
0.000437362
0.000540794
0.000907514
0.0011165
0.00118602
0.00116626
0.00108524
0.000957045
0.000794908
0.000616207
0.000445235
0.000306085
0.000214242
0.000159904
0.00012467
9.98783e-05
8.3482e-05
7.36123e-05
6.89853e-05
6.96483e-05
7.28163e-05
7.57149e-05
7.66918e-05
7.48124e-05
6.94006e-05
6.09144e-05
5.18168e-05
4.3294e-05
3.56118e-05
3.09971e-05
4.14705e-05
4.1859e-05
5.5329e-05
0.000243704
0.000209443
0.00986021
0.0264502
0.00936615
0.00304551
0.00167331
0.00126522
0.00138329
0.0016206
0.00167307
0.00161356
0.00149574
0.00133891
0.00114753
0.000927704
0.000695957
0.000480189
0.000308857
0.0001992
0.000139968
0.000108456
8.9727e-05
7.92649e-05
7.49441e-05
7.54732e-05
7.995e-05
8.67471e-05
9.35125e-05
9.88559e-05
0.000101794
0.000100786
9.26577e-05
8.11654e-05
6.9724e-05
5.95136e-05
5.55701e-05
6.2347e-05
7.89201e-05
0.000132497
0.000315313
0.000303799
0.0106244
0.0301486
0.0161532
0.0103462
0.00683121
0.00479923
0.00377639
0.00307413
0.00258248
0.00222013
0.00192232
0.00164361
0.00135782
0.00105805
0.000758484
0.000491343
0.00028747
0.000169591
0.000113225
9.13076e-05
8.09084e-05
7.71954e-05
7.83393e-05
8.32808e-05
9.12474e-05
0.000101369
0.00011285
0.000125474
0.000139334
0.000154233
0.000168907
0.000175181
0.000180997
0.000194429
0.000227403
0.000342304
0.000652276
0.00133521
0.00408593
0.00119518
0.0099045
0.0170191
0.0137169
0.0103564
0.00781843
0.00600526
0.00473241
0.00385148
0.00322707
0.00274487
0.00232468
0.0019229
0.00152114
0.00111746
0.000733951
0.00041867
0.000201377
0.000120337
8.87055e-05
7.64024e-05
7.23415e-05
7.32144e-05
7.76139e-05
8.48295e-05
9.45231e-05
0.000106589
0.000121252
0.000139256
0.000161911
0.000191159
0.000229706
0.000281666
0.000353305
0.000464844
0.000633256
0.000869653
0.00114929
0.00139694
0.00157333
0.00097622
0.00466363
0.00690514
0.00643987
0.00571499
0.0050516
0.00438328
0.003719
0.0030837
0.00247907
0.00191166
0.00138272
0.000877659
0.00043195
0.000213386
0.00011452
7.74477e-05
6.35652e-05
5.90188e-05
5.89694e-05
6.1696e-05
6.64557e-05
7.29552e-05
8.11777e-05
9.13372e-05
0.000103925
0.000119801
0.000140315
0.000167517
0.000204662
0.00025668
0.000329329
0.00043054
0.000564567
0.000719766
0.000854765
0.00090991
0.000846879
0.000536604
0.00332614
0.00648736
0.00624203
0.00513386
0.00435553
0.00376955
0.00310915
0.00243758
0.00174448
0.00111438
0.000644045
0.00033509
0.000162896
8.94304e-05
6.01797e-05
4.93788e-05
4.59504e-05
4.60077e-05
4.80987e-05
5.16624e-05
5.65251e-05
6.27305e-05
7.04843e-05
8.01524e-05
9.23042e-05
0.000107802
0.000127944
0.000154694
0.000190623
0.000239322
0.000305888
0.000395687
0.000509811
0.000639247
0.000738838
0.000840862
0.000751866
0.000561093
0.0021642
0.00255568
0.00287421
0.00334678
0.00275138
0.00213901
0.00160346
0.00118271
0.000938372
0.000719238
0.000518771
0.000353011
0.000234171
0.000146805
9.61267e-05
7.10758e-05
5.97855e-05
5.5424e-05
5.49417e-05
5.69833e-05
6.06766e-05
6.56745e-05
7.1945e-05
7.95818e-05
8.87779e-05
9.98247e-05
0.000113134
0.000129298
0.000149214
0.000174349
0.000205456
0.000244069
0.000292483
0.000353743
0.000431171
0.000539269
0.00058281
0.000543495
0.000445604
0.000355698
)
;

boundaryField
{
    floor
    {
        Cmu             0.09;
        kappa           0.41;
        E               9.8;
        type            epsilonWallFunction;
        value           nonuniform List<scalar> 
29
(
0.000490027
3.42576e-05
6.18624e-05
7.94995e-05
7.5236e-05
6.85765e-05
6.13718e-05
5.34055e-05
4.6184e-05
4.01869e-05
3.5293e-05
3.12853e-05
2.79694e-05
2.51772e-05
2.28043e-05
2.07092e-05
1.87407e-05
1.67198e-05
1.49723e-05
1.15587e-05
1.15587e-05
2.05339e-05
2.92433e-05
3.805e-05
0.000490027
3.42576e-05
5.81708e-05
0.000322642
0.000693824
)
;
    }
    ceiling
    {
        Cmu             0.09;
        kappa           0.41;
        E               9.8;
        type            epsilonWallFunction;
        value           nonuniform List<scalar> 
43
(
0.0021642
0.00255568
0.00287421
0.00334678
0.00275138
0.00213901
0.00160346
0.00118271
0.000938372
0.000719238
0.000518771
0.000353011
0.000234171
0.000146805
9.61267e-05
7.10758e-05
5.97855e-05
5.5424e-05
5.49417e-05
5.69833e-05
6.06766e-05
6.56745e-05
7.1945e-05
7.95818e-05
8.87779e-05
9.98247e-05
0.000113134
0.000129298
0.000149214
0.000174349
0.000205456
0.000244069
0.000292483
0.000353743
0.000431171
0.000539269
0.00058281
0.000543495
0.000445604
0.000355698
0.0099045
0.0170191
0.00332614
)
;
    }
    sWall
    {
        Cmu             0.09;
        kappa           0.41;
        E               9.8;
        type            epsilonWallFunction;
        value           uniform 0.0021642;
    }
    nWall
    {
        Cmu             0.09;
        kappa           0.41;
        E               9.8;
        type            epsilonWallFunction;
        value           nonuniform List<scalar> 6(0.000185899 0.000209443 0.000303799 0.000536604 0.000561093 0.000355698);
    }
    sideWalls
    {
        type            empty;
    }
    glass1
    {
        Cmu             0.09;
        kappa           0.41;
        E               9.8;
        type            epsilonWallFunction;
        value           nonuniform List<scalar> 9(0.000307759 0.000853586 0.00165334 0.00282546 0.00450729 0.0068975 0.00986021 0.0106244 0.0099045);
    }
    glass2
    {
        Cmu             0.09;
        kappa           0.41;
        E               9.8;
        type            epsilonWallFunction;
        value           nonuniform List<scalar> 2(0.00119518 0.00097622);
    }
    sun
    {
        Cmu             0.09;
        kappa           0.41;
        E               9.8;
        type            epsilonWallFunction;
        value           nonuniform List<scalar> 
14
(
0.000307759
0.00038608
0.000397116
0.000452175
0.000506447
0.000559673
0.000613428
0.000670472
0.000723256
0.000757089
0.000761094
0.000727886
0.000659819
0.000573258
)
;
    }
    heatsource1
    {
        Cmu             0.09;
        kappa           0.41;
        E               9.8;
        type            epsilonWallFunction;
        value           nonuniform List<scalar> 3(7.44064e-05 0.000133445 0.000185899);
    }
    heatsource2
    {
        Cmu             0.09;
        kappa           0.41;
        E               9.8;
        type            epsilonWallFunction;
        value           nonuniform List<scalar> 4(0.000505547 0.00015311 0.00015311 0.000453524);
    }
    Table_master
    {
        Cmu             0.09;
        kappa           0.41;
        E               9.8;
        type            epsilonWallFunction;
        value           nonuniform List<scalar> 9(0.000131512 9.64544e-05 7.24397e-05 5.57124e-05 4.38094e-05 3.51776e-05 2.8845e-05 2.42778e-05 2.11769e-05);
    }
    Table_slave
    {
        Cmu             0.09;
        kappa           0.41;
        E               9.8;
        type            epsilonWallFunction;
        value           nonuniform List<scalar> 9(0.000175624 0.00013934 0.000117796 0.00010329 9.14473e-05 8.06608e-05 7.07062e-05 6.06688e-05 4.97229e-05);
    }
    inlet
    {
        type            turbulentMixingLengthDissipationRateInlet;
        mixingLength    0.01;
        phi             phi;
        k               k;
        value           uniform 0.000101881;
    }
    outlet
    {
        type            zeroGradient;
    }
}


// ************************************************************************* //
