/*--------------------------------*- C++ -*----------------------------------*\
  =========                 |
  \\      /  F ield         | OpenFOAM: The Open Source CFD Toolbox
   \\    /   O peration     | Website:  https://openfoam.org
    \\  /    A nd           | Version:  6
     \\/     M anipulation  |
\*---------------------------------------------------------------------------*/
FoamFile
{
    version     2.0;
    format      ascii;
    class       volScalarField;
    location    "300";
    object      nut;
}
// * * * * * * * * * * * * * * * * * * * * * * * * * * * * * * * * * * * * * //

dimensions      [0 2 -1 0 0 0 0];

internalField   nonuniform List<scalar> 
459
(
0.0010696
0.00116748
0.00118791
0.00124447
0.0012967
0.00134535
0.00139271
0.00144037
0.00147492
0.0014911
0.00148375
0.00144945
0.00138814
0.00130583
0.00121668
0.000468949
0.000576017
0.000644346
0.000636054
0.000611981
0.000581977
0.000546047
0.00051091
0.000479065
0.000450754
0.000425644
0.000403296
0.000383438
0.000365567
0.000349058
0.000333083
0.000316415
0.000304929
0.000278244
0.00146185
0.00355318
0.00339548
0.00395249
0.00449561
0.00504101
0.00552953
0.0058891
0.00621608
0.00648433
0.00665475
0.00668003
0.00648918
0.00590953
0.00435287
0.00123558
0.00075177
0.00051286
0.00105477
0.00144034
0.00170962
0.00184664
0.00183698
0.0014966
0.00129854
0.00115509
0.00104397
0.000954895
0.000881917
0.000817812
0.000758043
0.000700396
0.000649501
0.000604787
0.000710285
0.00036626
0.00178881
0.00485593
0.00420894
0.00531309
0.00585917
0.00626137
0.00657091
0.00680615
0.00706102
0.0073292
0.00757999
0.00776369
0.00782646
0.00769815
0.00718739
0.00559099
0.0012065
0.00103468
0.00145973
0.00184156
0.00217254
0.00239034
0.00231843
0.000781556
0.000691341
0.000618926
0.000560484
0.000512844
0.000473592
0.000440998
0.00041394
0.000391934
0.000421821
0.000486369
0.000796314
0.000424482
0.00210311
0.00622361
0.00421481
0.00563914
0.0061437
0.00631177
0.00640525
0.0065086
0.00669889
0.00696463
0.00727819
0.00757542
0.00780167
0.00790662
0.00780551
0.00727636
0.00551748
0.00146007
0.00181171
0.00232217
0.00279308
0.00315056
0.00336019
0.0031401
0.000880663
0.000802981
0.000747646
0.000705725
0.000670228
0.000637377
0.000605877
0.000572779
0.000534256
0.000502204
0.000512356
0.00090883
0.000469382
0.00242371
0.00798154
0.00463884
0.00541232
0.00609832
0.00615699
0.00608926
0.00611474
0.00627999
0.00654521
0.00689866
0.00725064
0.00752875
0.00766764
0.00763998
0.00740412
0.00680644
0.00559314
0.00516526
0.00500378
0.00493001
0.00488082
0.00481889
0.00463655
0.00393024
0.00359661
0.0034052
0.00325755
0.00310017
0.00287119
0.00255396
0.00216339
0.00172575
0.00128079
0.00094278
0.000934835
0.000628388
0.000579694
0.000701784
0.000787363
0.00276328
0.00989292
0.00640631
0.00534959
0.00585779
0.00609598
0.00595978
0.00599433
0.00612232
0.00636225
0.00671047
0.00709404
0.00740258
0.00754227
0.00748023
0.0072513
0.00692963
0.00658061
0.00636951
0.00621522
0.00605867
0.00589628
0.00572491
0.00551457
0.00520239
0.0049236
0.00467599
0.00443844
0.00419685
0.00393614
0.0036013
0.00317622
0.00265962
0.00207996
0.00156024
0.00115611
0.000873321
0.000743506
0.00106132
0.000821129
0.00307302
0.0112364
0.00900925
0.0068951
0.00649396
0.00646613
0.00628032
0.00614049
0.00616186
0.00638346
0.00676382
0.00719037
0.00751883
0.00763604
0.00751345
0.0072282
0.0069432
0.00679444
0.00675819
0.0066803
0.00650219
0.00624716
0.005941
0.00560273
0.00525352
0.00493558
0.00464725
0.00437983
0.00413269
0.00391131
0.00371513
0.00343784
0.00303541
0.00253659
0.00205178
0.00161093
0.00129066
0.00119065
0.00121516
0.000932678
0.00313353
0.0100315
0.00889491
0.00819149
0.00763978
0.00697426
0.00640176
0.00613143
0.00620514
0.00656291
0.00707453
0.00756893
0.00787562
0.00789377
0.00763887
0.00725186
0.00696043
0.00688561
0.00687544
0.00666518
0.00629089
0.00582944
0.00534926
0.00490676
0.00453212
0.00422441
0.00396601
0.00374819
0.00357319
0.0034486
0.00338243
0.00335178
0.00314711
0.00282184
0.00253215
0.00237908
0.00246402
0.00283903
0.00349877
0.00145932
0.00305047
0.00361939
0.00402619
0.00414594
0.0042149
0.00440288
0.00480809
0.00545394
0.00627561
0.00713211
0.007863
0.00832052
0.00839137
0.00808064
0.00754394
0.00707581
0.00682523
0.00663401
0.00634144
0.00587412
0.00530052
0.00472391
0.0042215
0.00382212
0.00351465
0.00327217
0.003072
0.00290146
0.0027529
0.00261907
0.00249251
0.00237277
0.00227684
0.00220562
0.00217837
0.00218836
0.00217784
0.00209323
0.00195849
0.00137324
0.00151491
0.00309312
0.00483174
0.00631691
0.00751103
0.00846232
0.00910122
0.00939336
0.00935879
0.00900592
0.00835473
0.00752864
0.00675882
0.00624517
0.00587601
0.00544791
0.00492078
0.00435432
0.00382496
0.00338788
0.00305352
0.00280122
0.00260678
0.00245286
0.00232972
0.00223295
0.00216077
0.00211285
0.00209161
0.00209676
0.00211439
0.00214119
0.00217
0.00217722
0.00212424
0.00199793
0.00180873
0.00114104
0.00200029
0.00505719
0.00755195
0.00847377
0.00896723
0.0091629
0.00901328
0.00855577
0.00787866
0.00708257
0.00628987
0.00559182
0.00502495
0.00455461
0.00409215
0.00363704
0.00323862
0.00292189
0.00268262
0.00249818
0.0023481
0.00222178
0.00211865
0.00204037
0.00198563
0.00195339
0.0019421
0.00194866
0.0019795
0.00203191
0.00210254
0.00218433
0.00226161
0.00231487
0.00229844
0.00232491
0.00235566
0.00116287
0.00178307
0.00188951
0.00196527
0.0021136
0.00204161
0.00194953
0.00189054
0.00181412
0.00170667
0.00157226
0.0014191
0.00125783
0.00110003
0.000960684
0.00085279
0.000776145
0.000722976
0.00068593
0.000660244
0.000643095
0.00063273
0.000627962
0.000628323
0.000633923
0.000644329
0.000659099
0.000678425
0.000702631
0.000732273
0.000768371
0.000809951
0.000857021
0.000910135
0.000969794
0.00103564
0.00111378
0.00113986
0.00111124
0.00104369
0.00097231
)
;

boundaryField
{
    floor
    {
        type            nutkWallFunction;
        Cmu             0.09;
        kappa           0.41;
        E               9.8;
        value           nonuniform List<scalar> 
29
(
0.00014593
5.57233e-05
6.93388e-05
7.78627e-05
7.68343e-05
7.38396e-05
7.00868e-05
6.55616e-05
6.11008e-05
5.7025e-05
5.33731e-05
5.01101e-05
4.71853e-05
4.45692e-05
4.21999e-05
3.99979e-05
3.78544e-05
3.56035e-05
3.40434e-05
3.0388e-05
3.03879e-05
4.22918e-05
4.99583e-05
5.57789e-05
0.00014593
5.57233e-05
6.13494e-05
0.000124799
0.000173647
)
;
    }
    ceiling
    {
        type            nutkWallFunction;
        Cmu             0.09;
        kappa           0.41;
        E               9.8;
        value           nonuniform List<scalar> 
43
(
0.000209517
0.000221206
0.000229485
0.000245691
0.000237922
0.000227906
0.000221462
0.000213073
0.000201206
0.000186244
0.000169019
0.000150657
0.000132431
0.000116088
0.000103246
9.40082e-05
8.75373e-05
8.29953e-05
7.98291e-05
7.7707e-05
7.64212e-05
7.58289e-05
7.58739e-05
7.65698e-05
7.78607e-05
7.96884e-05
8.20726e-05
8.50475e-05
8.86739e-05
9.30667e-05
9.80964e-05
0.000103754
0.000110095
0.000117166
0.000124913
0.000134033
0.000137061
0.000133738
0.000125856
0.000117463
0.000345401
0.000404203
0.000233176
)
;
    }
    sWall
    {
        type            nutkWallFunction;
        Cmu             0.09;
        kappa           0.41;
        E               9.8;
        value           uniform 0.000209575;
    }
    nWall
    {
        type            nutkWallFunction;
        Cmu             0.09;
        kappa           0.41;
        E               9.8;
        value           nonuniform List<scalar> 6(9.5368e-05 9.94443e-05 0.000112776 0.000137207 0.000139736 0.000117469);
    }
    sideWalls
    {
        type            empty;
    }
    glass1
    {
        type            nutkWallFunction;
        Cmu             0.09;
        kappa           0.41;
        E               9.8;
        value           nonuniform List<scalar> 9(0.000128984 0.000174065 0.000210594 0.000245023 0.000279575 0.000315649 0.000348152 0.000354471 0.000345824);
    }
    glass2
    {
        type            nutkWallFunction;
        Cmu             0.09;
        kappa           0.41;
        E               9.8;
        value           nonuniform List<scalar> 2(0.000173635 0.00016389);
    }
    sun
    {
        type            nutkWallFunction;
        Cmu             0.09;
        kappa           0.41;
        E               9.8;
        value           nonuniform List<scalar> 
14
(
0.000128887
0.000140256
0.000142615
0.000149125
0.000155106
0.000160654
0.000166032
0.000171425
0.000175322
0.000177142
0.000176315
0.000172449
0.000165513
0.000156148
)
;
    }
    heatsource1
    {
        type            nutkWallFunction;
        Cmu             0.09;
        kappa           0.41;
        E               9.8;
        value           nonuniform List<scalar> 3(6.98026e-05 8.49441e-05 9.53678e-05);
    }
    heatsource2
    {
        type            nutkWallFunction;
        Cmu             0.09;
        kappa           0.41;
        E               9.8;
        value           nonuniform List<scalar> 4(0.000148099 9.10504e-05 9.10504e-05 0.000144753);
    }
    Table_master
    {
        type            nutkWallFunction;
        Cmu             0.09;
        kappa           0.41;
        E               9.8;
        value           nonuniform List<scalar> 9(9.46644e-05 8.36624e-05 7.47072e-05 6.73875e-05 6.13518e-05 5.63268e-05 5.21147e-05 4.85883e-05 4.56987e-05);
    }
    Table_slave
    {
        type            nutkWallFunction;
        Cmu             0.09;
        kappa           0.41;
        E               9.8;
        value           nonuniform List<scalar> 9(0.00010658 9.72546e-05 9.05476e-05 8.54273e-05 8.10634e-05 7.7e-05 7.30799e-05 6.89342e-05 6.4072e-05);
    }
    inlet
    {
        type            calculated;
        value           uniform 0.000100623;
    }
    outlet
    {
        type            calculated;
        value           nonuniform List<scalar> 2(0.00178307 0.00188951);
    }
}


// ************************************************************************* //
