/*--------------------------------*- C++ -*----------------------------------*\
  =========                 |
  \\      /  F ield         | OpenFOAM: The Open Source CFD Toolbox
   \\    /   O peration     | Website:  https://openfoam.org
    \\  /    A nd           | Version:  6
     \\/     M anipulation  |
\*---------------------------------------------------------------------------*/
FoamFile
{
    version     2.0;
    format      ascii;
    class       volScalarField;
    location    "300";
    object      alphat;
}
// * * * * * * * * * * * * * * * * * * * * * * * * * * * * * * * * * * * * * //

dimensions      [1 -1 -1 0 0 0 0];

internalField   nonuniform List<scalar> 
459
(
0.000841542
0.000864753
0.00079384
0.000823549
0.000855674
0.000885954
0.00091447
0.000941953
0.000969508
0.000997852
0.00102173
0.00103975
0.00105096
0.00105487
0.00104724
0.000425936
0.000469034
0.000484883
0.000391831
0.000293424
0.000264027
0.000254013
0.000255032
0.000271971
0.000300049
0.000333673
0.00036877
0.000401996
0.000429103
0.000465844
0.000507097
0.00053268
0.000528806
0.0004708
0.00143655
0.0024906
0.00179587
0.00236274
0.00257109
0.00278375
0.00300405
0.0032131
0.00338432
0.0034949
0.00354734
0.00350468
0.0033066
0.00285664
0.0020624
0.00112662
0.000764526
0.00058989
0.00124761
0.00143524
0.00140905
0.00114094
0.000624543
0.000352438
0.000371467
0.000498193
0.00070416
0.00094255
0.00118521
0.0014249
0.00161986
0.00179515
0.00195869
0.00184349
0.00180978
0.000599136
0.00196252
0.00414675
0.0018927
0.00334329
0.00382182
0.00406147
0.00426728
0.00444267
0.00457924
0.0046657
0.00470485
0.00465317
0.00444297
0.00397734
0.00317906
0.00215123
0.00119987
0.000993342
0.00268461
0.00245305
0.00209951
0.00161778
0.00114042
0.000360881
0.000367795
0.000413092
0.000458974
0.000506942
0.000558951
0.000617942
0.000689309
0.00078086
0.0018391
0.00165289
0.00132304
0.000785834
0.00245867
0.00621668
0.00213683
0.00351581
0.00447406
0.00472576
0.00488884
0.00502772
0.0051491
0.00524865
0.00534693
0.00542701
0.00542614
0.00522485
0.00464987
0.00357822
0.00221984
0.00129231
0.00312562
0.00329273
0.00296203
0.00239547
0.00181667
0.00125575
0.000806915
0.000804231
0.000803895
0.000803876
0.000805214
0.000810641
0.000824685
0.000855901
0.00093379
0.00267704
0.00332841
0.00336336
0.00116293
0.00291584
0.0084324
0.00283169
0.00318392
0.00463406
0.00493806
0.00505024
0.00513452
0.00521889
0.00531552
0.00547633
0.00573464
0.00607161
0.00643361
0.00672492
0.00682955
0.00667219
0.00628015
0.00610525
0.00573372
0.00528701
0.00488421
0.00455626
0.00428369
0.00406275
0.00393182
0.00380179
0.00367716
0.00357964
0.00353706
0.00356847
0.00367669
0.00385229
0.00408446
0.00422538
0.00416749
0.00359372
0.0015787
0.00141079
0.00123576
0.00334007
0.0103781
0.00418412
0.00285304
0.00427323
0.00476111
0.00489558
0.00493905
0.00494778
0.00495875
0.00509254
0.00537621
0.00581321
0.00638536
0.00701323
0.00755283
0.00783887
0.00779024
0.0075066
0.00712142
0.00674039
0.00641108
0.00612913
0.00587105
0.00560814
0.00532595
0.00502418
0.00472375
0.00446371
0.00428908
0.00422381
0.00425429
0.00433401
0.00440177
0.00442283
0.00435014
0.00403131
0.00327128
0.00248591
0.00129288
0.00373728
0.0117599
0.00659512
0.00337601
0.00324088
0.00394105
0.00444389
0.00469265
0.00472458
0.00460512
0.00464374
0.00480749
0.00512179
0.0056208
0.00628041
0.0069738
0.00751019
0.00775775
0.00772516
0.0075435
0.00732628
0.00712868
0.00695475
0.00678091
0.00657121
0.00630039
0.00596366
0.00557754
0.00518362
0.00483992
0.00458599
0.00442071
0.00430549
0.00419394
0.0040246
0.00373971
0.00329218
0.00272994
0.00216215
0.00126331
0.00383331
0.0120665
0.00890294
0.00619819
0.00435254
0.00380087
0.00413551
0.0045614
0.00457025
0.00443297
0.00436313
0.00437855
0.00448805
0.00472406
0.00513188
0.00570616
0.00632555
0.00681424
0.00704928
0.0071205
0.00711502
0.00709724
0.00709608
0.00710778
0.00710335
0.00704326
0.00689155
0.00663344
0.00629385
0.00593752
0.00560444
0.00525748
0.00488257
0.00447452
0.00405371
0.00364931
0.0032582
0.00288336
0.00253236
0.00155813
0.00371781
0.00447047
0.00514826
0.00514938
0.00472647
0.00425435
0.00396105
0.00384686
0.00381087
0.00382341
0.00385988
0.00390577
0.00396076
0.00404194
0.00418637
0.00443889
0.00480806
0.00522756
0.00559871
0.00588202
0.00608925
0.00625775
0.00642487
0.00661483
0.00683392
0.00706854
0.00727849
0.00739976
0.00740261
0.00726556
0.00701824
0.0067674
0.00658668
0.00652862
0.00655329
0.00630787
0.00542484
0.00458705
0.00459461
0.00175299
0.00454611
0.00589861
0.00528029
0.00479471
0.00444043
0.00419272
0.00401666
0.00388314
0.00377809
0.00369122
0.00361639
0.00355444
0.00351538
0.00351914
0.00358986
0.00374026
0.00395832
0.00421551
0.00448321
0.00474725
0.00501156
0.00529296
0.00561283
0.00598775
0.00641469
0.00685241
0.00721755
0.00739005
0.00737666
0.00724932
0.00709123
0.0069634
0.00687151
0.00675531
0.00632457
0.00543592
0.0050934
0.00171425
0.00323943
0.00609439
0.00539831
0.00493315
0.00456515
0.00426489
0.00401833
0.00381076
0.00359895
0.00339627
0.00321051
0.0030466
0.0029085
0.002801
0.00273062
0.00270506
0.00273087
0.00281112
0.00294416
0.00312436
0.00334475
0.00360009
0.00388925
0.00421585
0.00458484
0.00499074
0.00538703
0.00575353
0.00601482
0.00614307
0.00615776
0.00608953
0.00595305
0.00572485
0.00514953
0.00431612
0.00411518
0.00150066
0.00219892
0.0024844
0.00279184
0.00289062
0.00256041
0.00234361
0.00216254
0.0020042
0.00186324
0.0017365
0.00162708
0.00152897
0.00143893
0.00135527
0.00127726
0.00120487
0.00113847
0.00107865
0.00102597
0.000980787
0.000943215
0.000913153
0.000890381
0.000874667
0.00086587
0.000864037
0.000869435
0.000882731
0.000908916
0.000952013
0.00101225
0.00108319
0.00115138
0.00120201
0.00122435
0.00121203
0.00118975
0.00115685
0.00116927
0.00112094
)
;

boundaryField
{
    floor
    {
        type            compressible::alphatWallFunction;
        Prt             0.85;
        value           nonuniform List<scalar> 
29
(
0.00014891
5.76988e-05
6.43906e-05
6.68324e-05
5.23423e-05
3.65196e-05
3.16655e-05
2.99969e-05
3.01665e-05
3.29827e-05
3.76021e-05
4.30603e-05
4.86818e-05
5.39406e-05
5.81905e-05
6.38976e-05
7.0239e-05
7.41392e-05
7.35497e-05
6.46675e-05
6.46667e-05
8.41603e-05
0.000111652
0.00016501
0.000148909
5.7698e-05
8.27737e-05
0.000141293
0.000182803
)
;
    }
    ceiling
    {
        type            compressible::alphatWallFunction;
        Prt             0.85;
        value           nonuniform List<scalar> 
43
(
0.000303059
0.000339624
0.000378512
0.000390917
0.000349293
0.000321657
0.000298366
0.000277826
0.000259393
0.000242689
0.000228159
0.000215039
0.000202915
0.000191573
0.000180927
0.00017098
0.000161797
0.00015347
0.000146092
0.000139728
0.00013441
0.000130136
0.000126887
0.000124638
0.000123375
0.00012311
0.000123881
0.000125781
0.000129515
0.000135636
0.000144139
0.000154078
0.000163562
0.000170563
0.00017364
0.000171945
0.000168872
0.000164323
0.00016604
0.000159339
0.000493227
0.000584207
0.000434344
)
;
    }
    sWall
    {
        type            compressible::alphatWallFunction;
        Prt             0.85;
        value           uniform 0.00030197;
    }
    nWall
    {
        type            compressible::alphatWallFunction;
        Prt             0.85;
        value           nonuniform List<scalar> 6(0.000174852 0.000182685 0.000178638 0.000239355 0.000210855 0.000159005);
    }
    sideWalls
    {
        type            empty;
    }
    glass1
    {
        type            compressible::alphatWallFunction;
        Prt             0.85;
        value           nonuniform List<scalar> 9(0.000116334 0.000197671 0.00026662 0.000329979 0.000387268 0.000439656 0.000488123 0.000499897 0.00048612);
    }
    glass2
    {
        type            compressible::alphatWallFunction;
        Prt             0.85;
        value           nonuniform List<scalar> 2(0.000217205 0.000243005);
    }
    sun
    {
        type            compressible::alphatWallFunction;
        Prt             0.85;
        value           nonuniform List<scalar> 
14
(
0.00011976
0.000123071
0.000112862
0.000117152
0.00012177
0.000126105
0.000130171
0.000134075
0.000137977
0.000141976
0.000145335
0.000147863
0.000149434
0.000149981
)
;
    }
    heatsource1
    {
        type            compressible::alphatWallFunction;
        Prt             0.85;
        value           nonuniform List<scalar> 3(0.000221681 0.000199089 0.000175214);
    }
    heatsource2
    {
        type            compressible::alphatWallFunction;
        Prt             0.85;
        value           nonuniform List<scalar> 4(0.00016013 0.00010875 0.000108748 0.000170267);
    }
    Table_master
    {
        type            compressible::alphatWallFunction;
        Prt             0.85;
        value           nonuniform List<scalar> 9(4.76112e-05 4.87124e-05 5.58748e-05 6.30271e-05 7.04082e-05 7.83125e-05 8.71683e-05 9.77448e-05 0.000111121);
    }
    Table_slave
    {
        type            compressible::alphatWallFunction;
        Prt             0.85;
        value           nonuniform List<scalar> 9(0.000114895 0.000114507 0.000114459 0.000114456 0.00011465 0.000115434 0.000117459 0.000121947 0.000133062);
    }
    inlet
    {
        type            fixedValue;
        value           uniform 1.94e-05;
    }
    outlet
    {
        type            zeroGradient;
    }
}


// ************************************************************************* //
