/*--------------------------------*- C++ -*----------------------------------*\
  =========                 |
  \\      /  F ield         | OpenFOAM: The Open Source CFD Toolbox
   \\    /   O peration     | Website:  https://openfoam.org
    \\  /    A nd           | Version:  6
     \\/     M anipulation  |
\*---------------------------------------------------------------------------*/
FoamFile
{
    version     2.0;
    format      ascii;
    class       surfaceScalarField;
    location    "300";
    object      phi;
}
// * * * * * * * * * * * * * * * * * * * * * * * * * * * * * * * * * * * * * //

dimensions      [1 0 -1 0 0 0 0];

internalField   nonuniform List<scalar> 
852
(
-0.00243935
0.00250391
-0.00258795
0.000148752
-0.00283313
0.000245339
-0.00313858
0.000305607
-0.00343439
0.00029596
-0.00368567
0.00025144
-0.00386862
0.000183102
-0.00396207
9.36085e-05
-0.00394535
-1.65732e-05
-0.00379645
-0.000148737
-0.00349633
-0.00029997
-0.00303176
-0.000464416
-0.00237264
-0.000658965
-0.00141023
-0.000962262
-0.00140782
-0.0007968
0.000803519
-0.000791809
-4.84829e-06
-0.000580835
-0.00021083
-0.000466129
-0.000114561
-0.000448693
-1.7288e-05
-0.000358798
-8.97471e-05
-0.000101307
-0.000257346
0.000143335
-0.000244504
0.000308836
-0.000165363
0.00043436
-0.000125384
0.000535305
-0.000100805
0.000617757
-8.23103e-05
0.00067938
-6.14818e-05
0.000711106
-3.15843e-05
0.000752364
-4.1117e-05
0.000825578
-7.30734e-05
0.000915801
-9.00812e-05
0.000856193
5.97501e-05
0.000862357
-0.00176679
0.00443691
-0.00229757
0.000679686
-0.00270948
0.000657405
-0.00305959
0.000655876
-0.00337194
0.000608464
-0.00363407
0.000513723
-0.00382947
0.000378652
-0.00394081
0.000205111
-0.00395094
-6.29293e-06
-0.0038461
-0.000253422
-0.00361387
-0.000532042
-0.00324278
-0.000835353
-0.0027305
-0.00117109
-0.00214555
-0.00154706
-0.00167324
-0.00187998
0.000158443
-0.00183158
0.000158544
0.000991102
-0.000171965
0.000796547
0.000189847
0.000325344
0.000260514
4.8788e-05
0.000162138
-6.99282e-05
0.000101567
-0.000303977
0.000144444
-0.000173961
-0.000387215
-0.000127183
-0.000291137
-0.000116694
-0.000175708
-0.000123956
-0.000117979
-0.000142954
-8.16623e-05
-0.000174755
-5.03656e-05
-0.000227677
-8.41406e-06
-0.000296359
3.72466e-05
-0.000342306
4.97711e-06
-0.000224637
-0.000190595
8.22496e-05
-0.000396818
0.000191138
-4.89902e-05
0.00106885
-0.00131124
0.00599391
-0.00200182
0.00137042
-0.0024799
0.00113564
-0.00284646
0.0010226
-0.0031651
0.000927263
-0.00343527
0.000784046
-0.00364615
0.000589688
-0.00378391
0.000343021
-0.00383468
4.46328e-05
-0.00378935
-0.000298591
-0.00364954
-0.000671701
-0.00342681
-0.00105793
-0.00314947
-0.00144827
-0.00287418
-0.00182221
-0.00265096
-0.00210305
-0.00229863
-0.00218375
-0.00213994
-0.000758827
0.000602601
-0.000880826
0.000311986
-0.000807404
0.000187232
-0.000700952
5.58254e-05
-0.000525627
-7.36187e-05
-8.00483e-05
-0.000300995
-0.000466959
-0.000757789
-0.000933192
-0.00105087
-0.00113223
-0.00118229
-0.0011904
-0.00115285
-0.00114757
-0.00109846
-0.000239543
-0.00151162
1.64905e-05
-0.00155685
-3.60129e-06
-0.000468821
-0.000985952
0.00729039
-0.00173292
0.00211754
-0.00218694
0.00158982
-0.00253417
0.00136997
-0.00283201
0.00122526
-0.00308509
0.00103728
-0.00328875
0.0007935
-0.00343284
0.000487271
-0.00350508
0.000117021
-0.00349881
-0.000304701
-0.00343197
-0.000738391
-0.00334275
-0.00114699
-0.00327985
-0.00151103
-0.00329451
-0.0018074
-0.00340628
-0.00199112
-0.00359993
-0.00198996
-0.00418397
-0.00155574
-0.00337665
-0.000794843
-0.00257425
-0.000199653
-0.00226931
7.18579e-06
-0.00206933
-1.26064e-05
-0.00192775
-8.56038e-05
-0.001808
-0.000193219
-0.00182676
-0.00028209
-0.00156779
-0.000258973
-0.00130187
-0.000265926
-0.0010282
-0.000273677
-0.000759131
-0.000269078
-0.000508652
-0.000250488
-0.000286937
-0.000221724
-9.49347e-05
-0.000192012
7.61729e-05
-0.000171117
0.000242158
-0.000165993
0.000270274
-0.000267509
0.000516908
-0.000229989
0.000620249
-0.000106788
0.000167197
-0.000736928
0.00839291
-0.00150065
0.0028814
-0.0018545
0.00194383
-0.00214737
0.001663
-0.00238989
0.00146793
-0.00258611
0.00123365
-0.00273859
0.000946138
-0.00284186
0.000590687
-0.0028845
0.000159819
-0.00285854
-0.00033051
-0.00279606
-0.00080071
-0.00274861
-0.00119429
-0.00275772
-0.00150176
-0.00284506
-0.0017199
-0.00300872
-0.0018273
-0.00323628
-0.00176224
-0.00336686
-0.00142501
-0.00321533
-0.000946225
-0.00286768
-0.000547155
-0.0025275
-0.000332844
-0.00226975
-0.000270211
-0.00207065
-0.000284557
-0.00192269
-0.000341032
-0.00180991
-0.000394721
-0.00164766
-0.000421079
-0.00147061
-0.000442831
-0.00129102
-0.000453119
-0.0011169
-0.000443055
-0.000957016
-0.000410225
-0.000815828
-0.000362768
-0.000689237
-0.000318461
-0.000558624
-0.000301587
-0.000381613
-0.00034286
-0.000170228
-0.00047875
0.000258948
-0.000659021
0.000986911
-0.000834607
0.00209441
-0.000940163
0.00278367
-0.000689324
0.00225057
0.00053304
0.00229362
-0.000674098
0.00948103
-0.0014075
0.00361496
-0.00150014
0.00203662
-0.00169023
0.00185325
-0.00185488
0.00163274
-0.00195859
0.00133752
-0.00201509
0.00100279
-0.00202899
0.000604739
-0.00198934
0.000120324
-0.0018947
-0.000425003
-0.00180235
-0.000892905
-0.0017623
-0.00123419
-0.00180058
-0.00146333
-0.00192126
-0.00159908
-0.002109
-0.00163941
-0.002319
-0.00155209
-0.00243296
-0.00131089
-0.0023947
-0.000984344
-0.00224058
-0.000701121
-0.00205499
-0.000518279
-0.00189295
-0.000432107
-0.00176503
-0.000412324
-0.0016729
-0.000433013
-0.00160174
-0.000465738
-0.00152911
-0.000493559
-0.00145726
-0.000514537
-0.00139209
-0.000518139
-0.0013411
-0.000493907
-0.00131179
-0.000439392
-0.00130787
-0.000366546
-0.00132592
-0.000300273
-0.00135432
-0.000273042
-0.00137032
-0.000326719
-0.00135237
-0.000496566
-0.00121704
-0.000794206
-0.000818895
-0.00123262
1.51241e-05
-0.00177405
0.00125013
-0.0019242
0.00170359
7.97245e-05
0.00404769
-0.000946014
0.0108848
-0.00123903
0.00390812
-0.000879054
0.0016768
-0.000984582
0.00195893
-0.00112199
0.0017703
-0.00112856
0.00134424
-0.00105009
0.000924471
-0.000920538
0.000475336
-0.0007443
-5.57641e-05
-0.000569538
-0.000599615
-0.000469039
-0.000993255
-0.000458745
-0.00124433
-0.000538431
-0.0013835
-0.000698023
-0.00143933
-0.000912934
-0.00142435
-0.00113367
-0.0013312
-0.00129056
-0.00115386
-0.00134907
-0.000925682
-0.0013302
-0.000719839
-0.00127683
-0.000571501
-0.00122313
-0.000485653
-0.00118519
-0.000450118
-0.00116919
-0.000448866
-0.00117142
-0.000463358
-0.00118609
-0.000478748
-0.00121572
-0.000484758
-0.00126718
-0.000466531
-0.00135195
-0.000408992
-0.00148422
-0.000306982
-0.00167551
-0.000175118
-0.00192527
-5.03718e-05
-0.00221979
2.1621e-05
-0.00254165
-4.72955e-06
-0.00286709
-0.000170983
-0.00315367
-0.00050749
-0.00333908
-0.00104708
-0.00331351
-0.00179947
-0.00277896
-0.00245862
-0.000924087
-0.00177501
0.00318401
0.00163016
0.00976512
0.00199467
0.00354376
0.00146138
0.00221024
0.0009368
0.00248366
0.000569
0.00213825
0.000481631
0.00143176
0.000603945
0.000802307
0.000850411
0.000229021
0.00110638
-0.000311582
0.00122131
-0.000714396
0.00121294
-0.000984734
0.00111307
-0.00114431
0.000945709
-0.00121599
0.000725429
-0.0012189
0.000468385
-0.00116716
0.000206352
-0.00106902
-1.58583e-05
-0.000931498
-0.00016768
-0.000773711
-0.000257309
-0.000630061
-0.000311009
-0.000517653
-0.000351963
-0.00044455
-0.000394875
-0.000407056
-0.000447791
-0.000395802
-0.000512795
-0.000398205
-0.000590002
-0.000401392
-0.000682293
-0.000392318
-0.00079508
-0.000353598
-0.000938927
-0.000264999
-0.00112948
-0.000116284
-0.00139303
8.85731e-05
-0.001773
0.000329736
-0.00230771
0.000556468
-0.00299941
0.000687104
-0.00380496
0.0006347
-0.0046484
0.000336086
-0.0055151
-0.000180248
-0.00659477
-0.000719671
-0.00779794
-0.00125531
-0.00716262
-0.0024102
-0.00370373
0.0103286
0.0138668
0.0102265
0.0058507
0.00795623
0.00475408
0.00639718
0.00369745
0.00540313
0.00242596
0.00479871
0.00140688
0.00436565
0.000662229
0.00395455
9.96661e-05
0.00356153
-0.000321219
0.00319231
-0.000615369
0.00284346
-0.000795317
0.00250915
-0.000881533
0.00218482
-0.000894421
0.00186959
-0.000851789
0.00157044
-0.000769712
0.00130328
-0.00066419
0.00108287
-0.000553161
0.000907589
-0.00045463
0.000768045
-0.000377961
0.000650387
-0.000326744
0.000542445
-0.000298967
0.000435615
-0.000288823
0.000325621
-0.000288063
0.000211569
-0.000287191
9.48e-05
-0.0002754
-1.96868e-05
-0.000238963
-0.00012293
-0.000161609
-0.000207084
-3.19859e-05
-0.000275794
0.000157426
-0.000340731
0.000394814
-0.000408917
0.000624792
-0.000482527
0.000760851
-0.000574687
0.000726996
-0.000747162
0.000508696
-0.00107694
0.000149664
-0.00156438
-0.000232091
-0.00214487
-0.000674689
-0.00222493
-0.00233001
-0.00562757
0.00293
0.00395219
0.00359913
0.00408508
0.00456873
0.00272799
0.00501367
0.00198116
0.00512424
0.00129645
0.005088
0.000698624
0.00494406
0.00024375
0.00470808
-8.50965e-05
0.00440384
-0.000310978
0.0040621
-0.00045344
0.00370792
-0.000527202
0.00335906
-0.000545413
0.00302811
-0.000520702
0.0027241
-0.000465548
0.00245327
-0.000393217
0.00221811
-0.000317858
0.00201563
-0.000252004
0.00184041
-0.000202593
0.00168492
-0.000171109
0.00154121
-0.000155111
0.0014025
-0.000149968
0.00126469
-0.000150108
0.00112733
-0.000149686
0.000994462
-0.000142383
0.000875996
-0.000120349
0.000788203
-7.36691e-05
0.000747119
9.24396e-06
0.000770995
0.000133695
0.000867906
0.000298046
0.00102901
0.000463832
0.00122371
0.000566284
0.0014068
0.000544046
0.00154199
0.000373641
0.00162494
6.68503e-05
0.0017314
-0.000338405
0.00195725
-0.000900405
0.00170152
-0.00207414
-0.00385732
-0.000186101
0.00413553
0.00208314
0.00181598
0.00335324
0.00145802
0.00419011
0.00114443
0.00471927
0.00076743
0.00498611
0.000431927
0.00505522
0.000174781
0.00497676
-6.48894e-06
0.00478899
-0.000123064
0.00453249
-0.0001968
0.00424055
-0.000235116
0.00394014
-0.000244865
0.00365213
-0.000232549
0.00339117
-0.000204444
0.0031651
-0.000167007
0.00297433
-0.000126948
0.00281276
-9.02903e-05
0.00267122
-6.09081e-05
0.00254039
-4.01437e-05
0.0024128
-2.73785e-05
0.00228379
-2.08147e-05
0.00215198
-1.81531e-05
0.00201948
-1.7049e-05
0.00189249
-1.52445e-05
0.00178258
-1.02963e-05
0.0017077
1.35124e-06
0.00168864
2.84464e-05
0.00174325
7.92263e-05
0.00189066
0.000150785
0.00212579
0.000228841
0.00241119
0.000281018
0.00268434
0.000271037
0.00287841
0.000179708
0.00293955
5.84964e-06
0.00284397
-0.000242682
0.00251609
-0.000572388
0.00153465
-0.00109256
-0.00223866
-0.00389219
-0.00510972
-0.000977503
0.000833779
0.00228644
0.00342515
0.00418657
0.0046122
0.00478041
0.00476708
0.00463692
0.00443279
0.00419014
0.00393755
0.00369709
0.0034846
0.00330943
0.00317425
0.00307573
0.00300664
0.00295845
0.00292325
0.0028949
0.00286961
0.00284591
0.00282458
0.00280887
0.00280557
0.00283024
0.00290668
0.00305571
0.00328378
0.00356485
0.00383656
0.00401741
0.00402476
0.00378389
0.00321364
0.00212348
)
;

boundaryField
{
    floor
    {
        type            calculated;
        value           nonuniform List<scalar> 
29
(
0
0
0
0
0
0
0
0
0
0
0
0
0
0
0
0
0
0
0
0
-6.0228e-06
-1.52165e-05
-1.90185e-05
-1.56169e-05
-2.25389e-06
-6.5758e-06
-1.54785e-05
-1.55977e-05
-1.2331e-05
)
;
    }
    ceiling
    {
        type            calculated;
        value           nonuniform List<scalar> 
43
(
5.03916e-06
3.7949e-06
3.43038e-06
4.82405e-06
5.49981e-06
5.85554e-06
6.14882e-06
6.42942e-06
6.70864e-06
6.98545e-06
7.23279e-06
7.46102e-06
7.67311e-06
7.86836e-06
8.04293e-06
8.19022e-06
8.30132e-06
8.36589e-06
8.37338e-06
8.31412e-06
8.18001e-06
7.96476e-06
7.66369e-06
7.27341e-06
6.79142e-06
6.21589e-06
5.54664e-06
4.78629e-06
3.90914e-06
2.92004e-06
1.88306e-06
9.0675e-07
8.80683e-08
-5.41401e-07
-1.00819e-06
-1.35709e-06
-1.68018e-06
-2.00022e-06
-2.26555e-06
-1.77978e-06
8.43015e-06
5.62064e-06
2.874e-06
)
;
    }
    sWall
    {
        type            calculated;
        value           uniform -0.000193365;
    }
    nWall
    {
        type            calculated;
        value           nonuniform List<scalar> 6(-4.31116e-05 -5.03432e-05 -6.02648e-05 -6.86e-05 -8.38729e-05 -0.00011326);
    }
    sideWalls
    {
        type            empty;
        value           nonuniform 0();
    }
    glass1
    {
        type            calculated;
        value           nonuniform List<scalar> 9(-6.44094e-05 -0.000166063 -0.000245624 -0.00031038 -0.000365458 -0.000413884 -0.000457645 -0.000510332 -0.000571739);
    }
    glass2
    {
        type            calculated;
        value           nonuniform List<scalar> 2(-0.000274749 -0.000300958);
    }
    sun
    {
        type            calculated;
        value           uniform 0;
    }
    heatsource1
    {
        type            calculated;
        value           nonuniform List<scalar> 3(2.03779e-07 2.03868e-07 2.04157e-07);
    }
    heatsource2
    {
        type            calculated;
        value           nonuniform List<scalar> 4(5.11867e-08 5.14442e-08 0 0);
    }
    Table_master
    {
        type            calculated;
        value           nonuniform List<scalar> 9(-1.55282e-07 -1.55185e-07 -1.55055e-07 -1.54948e-07 -1.54854e-07 -1.54767e-07 -1.54691e-07 -1.54611e-07 -1.5451e-07);
    }
    Table_slave
    {
        type            calculated;
        value           nonuniform List<scalar> 9(1.53455e-07 1.53546e-07 1.53633e-07 1.53722e-07 1.5381e-07 1.5389e-07 1.53958e-07 1.53989e-07 1.53953e-07);
    }
    inlet
    {
        type            calculated;
        value           uniform -0.00103137;
    }
    outlet
    {
        type            calculated;
        value           nonuniform List<scalar> 2(0.00408064 0.00121385);
    }
}


// ************************************************************************* //
