// -*- C++ -*-
// File generated by PyFoam - sorry for the ugliness

FoamFile
{
 version 2.0;
 format ascii;
 class volScalarField;
 location "600";
 object T;
}

dimensions [ 0 0 0 1 0 0 0 ];

internalField nonuniform List<scalar> 459
(
  303.599
  303.335
  303.324
  303.321
  303.318
  303.314
  303.311
  303.307
  303.301
  303.292
  303.28
  303.267
  303.255
  303.245
  303.24
  303.28
  303.261
  303.254
  303.254
  303.254
  303.255
  303.256
  303.258
  303.259
  303.26
  303.261
  303.262
  303.263
  303.263
  303.264
  303.264
  303.264
  303.264
  303.275
  303.784
  303.378
  303.357
  303.361
  303.366
  303.369
  303.369
  303.367
  303.359
  303.344
  303.32
  303.293
  303.266
  303.244
  303.228
  303.219
  303.213
  303.273
  303.252
  303.246
  303.244
  303.243
  303.243
  303.241
  303.24
  303.238
  303.237
  303.235
  303.233
  303.232
  303.231
  303.23
  303.231
  303.233
  303.235
  303.258
  303.974
  303.427
  303.391
  303.403
  303.419
  303.432
  303.442
  303.445
  303.438
  303.414
  303.375
  303.329
  303.284
  303.251
  303.23
  303.22
  303.217
  303.237
  303.238
  303.24
  303.243
  303.246
  303.246
  303.244
  303.241
  303.239
  303.236
  303.233
  303.231
  303.228
  303.226
  303.224
  303.223
  303.223
  303.225
  303.25
  304.163
  303.488
  303.424
  303.441
  303.469
  303.497
  303.521
  303.535
  303.53
  303.495
  303.435
  303.365
  303.3
  303.255
  303.229
  303.219
  303.218
  303.224
  303.229
  303.237
  303.245
  303.252
  303.257
  303.26
  303.262
  303.263
  303.265
  303.266
  303.266
  303.265
  303.264
  303.263
  303.26
  303.246
  303.233
  303.226
  303.247
  304.345
  303.565
  303.459
  303.47
  303.505
  303.546
  303.587
  303.619
  303.616
  303.567
  303.484
  303.389
  303.306
  303.252
  303.223
  303.215
  303.217
  303.225
  303.236
  303.248
  303.26
  303.269
  303.276
  303.28
  303.283
  303.286
  303.287
  303.288
  303.287
  303.285
  303.282
  303.277
  303.27
  303.258
  303.243
  303.23
  303.241
  303.295
  303.33
  303.339
  304.506
  303.664
  303.522
  303.505
  303.533
  303.575
  303.625
  303.682
  303.674
  303.606
  303.502
  303.391
  303.3
  303.24
  303.212
  303.207
  303.217
  303.233
  303.25
  303.267
  303.281
  303.291
  303.298
  303.302
  303.305
  303.307
  303.308
  303.307
  303.306
  303.302
  303.296
  303.288
  303.279
  303.267
  303.252
  303.237
  303.237
  303.26
  303.272
  303.304
  304.647
  303.823
  303.677
  303.624
  303.62
  303.644
  303.693
  303.73
  303.699
  303.604
  303.478
  303.356
  303.263
  303.209
  303.191
  303.199
  303.221
  303.247
  303.272
  303.292
  303.306
  303.315
  303.321
  303.324
  303.326
  303.327
  303.327
  303.326
  303.323
  303.317
  303.309
  303.299
  303.288
  303.276
  303.262
  303.247
  303.241
  303.248
  303.256
  303.283
  304.86
  304.244
  304.081
  303.961
  303.885
  303.852
  303.85
  303.802
  303.689
  303.536
  303.381
  303.259
  303.185
  303.157
  303.167
  303.198
  303.238
  303.274
  303.303
  303.32
  303.331
  303.337
  303.341
  303.344
  303.345
  303.346
  303.345
  303.343
  303.34
  303.335
  303.327
  303.315
  303.305
  303.294
  303.283
  303.273
  303.271
  303.283
  303.302
  303.433
  305.162
  304.88
  304.616
  304.385
  304.204
  304.067
  303.941
  303.733
  303.496
  303.289
  303.147
  303.079
  303.071
  303.104
  303.161
  303.22
  303.279
  303.313
  303.333
  303.344
  303.352
  303.357
  303.36
  303.362
  303.363
  303.364
  303.364
  303.363
  303.362
  303.36
  303.36
  303.363
  303.367
  303.377
  303.395
  303.421
  303.455
  303.488
  303.511
  303.565
  297.06
  299.753
  301.236
  301.808
  302.024
  302.202
  302.372
  302.539
  302.704
  302.862
  303
  303.117
  303.226
  303.288
  303.325
  303.345
  303.357
  303.364
  303.37
  303.374
  303.377
  303.38
  303.383
  303.385
  303.387
  303.389
  303.391
  303.394
  303.398
  303.402
  303.408
  303.419
  303.434
  303.455
  303.478
  303.5
  303.515
  303.529
  297.678
  299.855
  300.911
  301.518
  301.881
  302.156
  302.409
  302.639
  302.855
  303.041
  303.167
  303.254
  303.309
  303.339
  303.357
  303.367
  303.374
  303.379
  303.383
  303.387
  303.391
  303.395
  303.398
  303.401
  303.404
  303.408
  303.411
  303.414
  303.417
  303.421
  303.426
  303.434
  303.445
  303.459
  303.475
  303.491
  303.485
  303.511
  299.719
  299.645
  299.64
  301.252
  301.937
  302.326
  302.614
  302.84
  302.997
  303.113
  303.201
  303.262
  303.302
  303.33
  303.347
  303.357
  303.364
  303.369
  303.374
  303.378
  303.383
  303.387
  303.391
  303.395
  303.399
  303.403
  303.407
  303.41
  303.414
  303.417
  303.421
  303.425
  303.429
  303.434
  303.441
  303.452
  303.461
  303.466
  303.466
  303.503
)
;

boundaryField
{
  floor
  {
    type wallHeatTransfer;
    Tinf uniform 305.2;
    alphaWall uniform 0.24;
    value nonuniform List<scalar> 29
(
  303.437
  303.67
  303.606
  303.583
  303.591
  303.603
  303.617
  303.632
  303.648
  303.663
  303.678
  303.693
  303.707
  303.72
  303.732
  303.745
  303.758
  303.772
  303.78
  303.812
  303.812
  303.707
  303.657
  303.626
  303.437
  303.67
  303.605
  303.465
  303.41
)
;
  }
  ceiling
  {
    type wallHeatTransfer;
    Tinf uniform 303.2;
    alphaWall uniform 0.24;
    value nonuniform List<scalar> 43
(
  299.963
  299.883
  299.871
  301.374
  302.019
  302.386
  302.658
  302.869
  303.014
  303.121
  303.201
  303.256
  303.291
  303.313
  303.325
  303.332
  303.336
  303.339
  303.343
  303.347
  303.351
  303.355
  303.359
  303.363
  303.367
  303.371
  303.375
  303.38
  303.384
  303.388
  303.392
  303.396
  303.401
  303.407
  303.414
  303.426
  303.435
  303.439
  303.437
  303.468
  305.071
  304.812
  298.022
)
;
  }
  sWall
  {
    type wallHeatTransfer;
    Tinf uniform 315.2;
    alphaWall uniform 0.36;
    value uniform 301.297;
  }
  nWall
  {
    type wallHeatTransfer;
    Tinf uniform 307.2;
    alphaWall uniform 0.36;
    value nonuniform List<scalar> 6
(
  304.064
  304.017
  303.949
  304.063
  304.041
  304.101
)
;
  }
  sideWalls
  {
    type empty;
  }
  glass1
  {
    type wallHeatTransfer;
    Tinf uniform 315.2;
    alphaWall uniform 4.3;
    value nonuniform List<scalar> 9
(
  311.739
  311.083
  310.661
  310.333
  310.057
  309.81
  309.613
  309.673
  309.888
)
;
  }
  glass2
  {
    type wallHeatTransfer;
    Tinf uniform 307.2;
    alphaWall uniform 4.3;
    value nonuniform List<scalar> 2
(
  305.78
  305.874
)
;
  }
  sun
  {
    type wallHeatTransfer;
    Tinf uniform 305.2;
    alphaWall uniform 0.24;
    value nonuniform List<scalar> 14
(
  303.781
  303.535
  303.523
  303.514
  303.506
  303.498
  303.491
  303.483
  303.474
  303.464
  303.453
  303.443
  303.437
  303.434
)
;
  }
  heatsource1
  {
    type fixedGradient;
    gradient uniform 0;
  }
  heatsource2
  {
    type fixedGradient;
    gradient uniform 0;
  }
  Table_master
  {
    type zeroGradient;
  }
  Table_slave
  {
    type zeroGradient;
  }
  inlet
  {
    type fixedValue;
    value uniform 293.15;
  }
  outlet
  {
    type zeroGradient;
  }
} 	// ************************************************************************* //

