/*--------------------------------*- C++ -*----------------------------------*\
  =========                 |
  \\      /  F ield         | OpenFOAM: The Open Source CFD Toolbox
   \\    /   O peration     | Website:  https://openfoam.org
    \\  /    A nd           | Version:  6
     \\/     M anipulation  |
\*---------------------------------------------------------------------------*/
FoamFile
{
    version     2.0;
    format      ascii;
    class       surfaceScalarField;
    location    "200";
    object      phi;
}
// * * * * * * * * * * * * * * * * * * * * * * * * * * * * * * * * * * * * * //

dimensions      [1 0 -1 0 0 0 0];

internalField   nonuniform List<scalar> 
852
(
-0.00245365
0.00251991
-0.0025785
0.000125019
-0.00280407
0.000225731
-0.00309894
0.000295035
-0.0033879
0.000289125
-0.00363323
0.000245501
-0.00380991
0.000176838
-0.00389639
8.66365e-05
-0.00387203
-2.41986e-05
-0.00371544
-0.000156436
-0.00340891
-0.00030637
-0.00294147
-0.000467289
-0.00228731
-0.000654002
-0.00134781
-0.000939348
-0.00134507
-0.000841602
0.000848213
-0.000853397
1.18913e-05
-0.000665325
-0.000187974
-0.00058203
-8.31862e-05
-0.000593441
1.15319e-05
-0.000554641
-3.86741e-05
-0.000321209
-0.000233311
-3.42415e-06
-0.000317661
0.000205648
-0.000208949
0.000347289
-0.000141518
0.000455274
-0.000107861
0.000539104
-8.37063e-05
0.000595935
-5.67066e-05
0.000620253
-2.41934e-05
0.00066385
-4.34717e-05
0.000766866
-0.000102885
0.000916953
-0.000149946
0.000883309
3.37839e-05
0.00088957
-0.00178021
0.0044701
-0.00231072
0.000655705
-0.0027155
0.000630679
-0.00305989
0.000639584
-0.00336782
0.000597226
-0.00362547
0.000503307
-0.00381545
0.000366988
-0.00392023
0.000191575
-0.00392297
-2.13e-05
-0.0038102
-0.000269049
-0.00356958
-0.000546827
-0.00319042
-0.000846296
-0.00267112
-0.00117315
-0.00207839
-0.00153192
-0.00158291
-0.0018404
0.000182974
-0.00176579
0.00018308
0.000936675
-7.21438e-05
0.000697155
0.000251496
0.000231706
0.000277564
1.05644e-06
0.000147563
-5.79116e-05
7.0604e-05
-0.000276951
0.000180468
-0.000209084
-0.00030106
-0.00016567
-0.000360957
-0.000159621
-0.000214875
-0.000163268
-0.000137746
-0.000178944
-9.20581e-05
-0.000208218
-5.4303e-05
-0.000259234
-5.55707e-06
-0.000326588
4.33028e-05
-0.000366908
-3.00501e-06
-0.000226005
-0.000243631
8.71221e-05
-0.000462908
0.000199892
-7.88293e-05
0.00110526
-0.00132349
0.00604473
-0.00202593
0.00135831
-0.00251112
0.00111604
-0.00288086
0.00100948
-0.00320107
0.000917609
-0.0034713
0.000773703
-0.00368042
0.000576265
-0.00381448
0.000325802
-0.00385998
2.43648e-05
-0.00380872
-0.000320153
-0.00366291
-0.000692475
-0.00343378
-0.00107527
-0.00314829
-0.00145848
-0.00285993
-0.00182014
-0.00261642
-0.00208376
-0.00224105
-0.00214101
-0.00205783
-0.000779351
0.000723482
-0.000896424
0.000368667
-0.000833673
0.000214915
-0.000729698
4.36953e-05
-0.000533424
-0.000125557
3.59023e-05
-0.000388731
-0.000264875
-0.000625561
-0.000840157
-0.000977614
-0.00106937
-0.00112337
-0.00112862
-0.00108499
-0.00108767
-0.00103213
-0.000298989
-0.00148782
-7.04125e-06
-0.00156584
-6.24698e-07
-0.000440353
-0.000997011
0.0073591
-0.00176282
0.00212429
-0.00223668
0.00159008
-0.00259572
0.00136869
-0.0029017
0.00122376
-0.00316029
0.00103246
-0.00336672
0.000782858
-0.00351071
0.000469961
-0.0035807
9.45185e-05
-0.00357183
-0.000328858
-0.00350347
-0.000760674
-0.00341288
-0.00116569
-0.00334669
-0.00152451
-0.00335385
-0.00181282
-0.00345288
-0.00198457
-0.00362647
-0.00196727
-0.00416685
-0.0015173
-0.00339133
-0.000761712
-0.0025415
-0.000126217
-0.00224533
7.26246e-05
-0.00204938
1.9107e-05
-0.00191259
-9.29588e-05
-0.00180588
-0.000232121
-0.00186671
-0.000327753
-0.00158141
-0.0002853
-0.00129828
-0.000283129
-0.00100888
-0.000289405
-0.000720701
-0.000288188
-0.00044365
-0.000277057
-0.000185725
-0.00025793
4.99742e-05
-0.000235705
0.000265351
-0.00021538
0.000467417
-0.000202067
0.00044829
-0.000279702
0.000648871
-0.000207449
0.000701404
-5.29708e-05
0.000278338
-0.000746684
0.00847964
-0.00153362
0.00291139
-0.00191572
0.00197234
-0.00222639
0.00167952
-0.00248168
0.00147922
-0.00268764
0.00123859
-0.00284669
0.000942071
-0.00295283
0.000576273
-0.00299537
0.000137221
-0.00296953
-0.000354524
-0.00290952
-0.000820516
-0.00286531
-0.00120973
-0.00287609
-0.00151356
-0.00296172
-0.00172703
-0.00311924
-0.00182689
-0.00333454
-0.00175181
-0.00344582
-0.00140587
-0.00328937
-0.000918017
-0.00290917
-0.000506266
-0.00254033
-0.000296068
-0.00226582
-0.000255258
-0.00206272
-0.000295908
-0.00192199
-0.000372696
-0.00181766
-0.000431933
-0.00165024
-0.000452573
-0.00146345
-0.000469768
-0.00127289
-0.000479819
-0.00108618
-0.000474756
-0.0009114
-0.000451687
-0.000753163
-0.000416019
-0.000607906
-0.000380814
-0.000458437
-0.000364699
-0.000265468
-0.000394883
-3.59947e-05
-0.00050902
0.000406812
-0.000650094
0.00112573
-0.000771719
0.00226402
-0.000859783
0.00289804
-0.000634052
0.00233198
0.000566026
0.00237779
-0.000683523
0.00958684
-0.00144099
0.00366902
-0.0015644
0.00209592
-0.00177758
0.00189287
-0.00195606
0.00165787
-0.00207111
0.0013538
-0.00213637
0.0010075
-0.00215503
0.000595096
-0.00211619
9.85504e-05
-0.00202348
-0.000447056
-0.00193592
-0.000907913
-0.00190128
-0.0012442
-0.00194327
-0.0014714
-0.00206399
-0.00160613
-0.0022468
-0.00164392
-0.00244646
-0.00155198
-0.00254696
-0.00130521
-0.00249112
-0.000973692
-0.00231094
-0.000686294
-0.00209914
-0.000507711
-0.00191916
-0.000435091
-0.00178305
-0.000431861
-0.00169018
-0.000465411
-0.00161896
-0.000503003
-0.00154194
-0.000529449
-0.00146297
-0.000548588
-0.00138991
-0.000552737
-0.00133105
-0.000533472
-0.00129411
-0.000488478
-0.00128314
-0.000426845
-0.00129444
-0.000369362
-0.00131422
-0.00034477
-0.00131965
-0.000389297
-0.00128914
-0.000539376
-0.00113346
-0.000805627
-0.000694908
-0.00121011
0.000169131
-0.00172367
0.00135152
-0.00181628
0.00173958
0.000178119
0.00417069
-0.000958248
0.0110139
-0.00127038
0.00398132
-0.000941429
0.00176714
-0.00107982
0.00203143
-0.00122599
0.0018042
-0.00123953
0.00136751
-0.00116832
0.000936465
-0.00104087
0.00046781
-0.000868316
-7.38362e-05
-0.000699925
-0.000615279
-0.000605111
-0.00100256
-0.000600264
-0.00124887
-0.000684566
-0.00138693
-0.000846292
-0.00144423
-0.00105891
-0.00143113
-0.00127209
-0.00133863
-0.00141829
-0.00115885
-0.00146015
-0.000931666
-0.00142037
-0.000725912
-0.00134645
-0.000581473
-0.00127759
-0.000503795
-0.00123136
-0.000477933
-0.00121236
-0.000484261
-0.00121321
-0.000502004
-0.00122537
-0.00051713
-0.00125164
-0.000522167
-0.00130016
-0.000504072
-0.00138301
-0.000450475
-0.00151429
-0.000357059
-0.00170598
-0.000235002
-0.00195927
-0.000115924
-0.00226084
-4.30518e-05
-0.00259083
-5.91628e-05
-0.00292408
-0.000205978
-0.00321303
-0.00051653
-0.00339018
-0.00103282
-0.00333345
-0.00178024
-0.00270534
-0.00244425
-0.000838305
-0.00168876
0.0033963
0.00164344
0.00989323
0.0020012
0.00362372
0.00139144
0.00237706
0.000824715
0.00259833
0.000448977
0.00218011
0.000361869
0.00145479
0.000485983
0.000812518
0.000734253
0.000219706
0.000989294
-0.000328711
0.00110094
-0.000726754
0.00108975
-0.000991203
0.000987865
-0.00114682
0.000818024
-0.00121692
0.000594525
-0.00122056
0.000335025
-0.00117146
7.36412e-05
-0.00107708
-0.000141151
-0.000943885
-0.000279928
-0.00079272
-0.000354594
-0.00065108
-0.000394086
-0.000541817
-0.000424495
-0.000473223
-0.000461845
-0.000440423
-0.000513482
-0.000432466
-0.000579596
-0.000435734
-0.000658866
-0.000437705
-0.000754314
-0.000426568
-0.000873531
-0.000384705
-0.00102962
-0.000294239
-0.00124132
-0.00014521
-0.00153432
5.81418e-05
-0.00194725
0.000297148
-0.00251736
0.000527206
-0.00324585
0.000669471
-0.00409188
0.000640194
-0.00497829
0.000370021
-0.00588093
-0.000130032
-0.00697897
-0.000682044
-0.00816985
-0.00125322
-0.00743661
-0.00242185
-0.00374376
0.0104723
0.0140922
0.0102181
0.00625136
0.00795094
0.0048656
0.00636323
0.00376799
0.00534062
0.00247756
0.00472277
0.00143054
0.0042777
0.000664943
0.00385715
9.2003e-05
0.00346258
-0.000332012
0.00309605
-0.000624506
0.00275072
-0.000801328
0.00241866
-0.000884684
0.00209449
-0.000896233
0.00177785
-0.000854646
0.00147734
-0.000776398
0.00121103
-0.000677403
0.000992673
-0.00057419
0.00082276
-0.000480997
0.000689147
-0.000408036
0.000575497
-0.000359406
0.000468301
-0.000333063
0.000359096
-0.000323098
0.000244875
-0.000321351
0.000126209
-0.000318879
5.5009e-06
-0.000305704
-0.000110523
-0.000268528
-0.000213142
-0.00019147
-0.000296712
-6.14918e-05
-0.000369379
0.000130955
-0.000443414
0.000371329
-0.000525288
0.000609225
-0.000618752
0.00076308
-0.000736663
0.000758249
-0.00094001
0.000573512
-0.00132383
0.000253932
-0.00188129
-0.000124443
-0.00250439
-0.000629979
-0.00251552
-0.00241058
-0.00593608
0.00328931
0.00403421
0.00379526
0.00435981
0.00464913
0.00291428
0.00505893
0.00206792
0.00515786
0.00133177
0.00511349
0.000709473
0.00496127
0.000244388
0.00471507
-8.56456e-05
0.00440152
-0.000310783
0.0040524
-0.000452049
0.0036928
-0.000524912
0.00334015
-0.000543412
0.00300636
-0.000520696
0.00269956
-0.000469424
0.00242499
-0.000402665
0.00218445
-0.000333477
0.00197616
-0.000272536
0.0017945
-0.000226203
0.00163141
-0.000196147
0.00147884
-0.00018032
0.00133068
-0.000174772
0.00118434
-0.000174848
0.00104127
-0.000175644
0.000907228
-0.000171498
0.000793086
-0.000154227
0.000713689
-0.000111918
0.000684183
-3.18327e-05
0.000720154
9.5134e-05
0.000827174
0.000264457
0.000994558
0.000441988
0.00119255
0.000565236
0.00137892
0.00057202
0.00151822
0.000434356
0.00161269
0.000159609
0.00172495
-0.000236554
0.00192584
-0.000830727
0.00163347
-0.00211806
-0.00423061
-0.00017539
0.00420907
0.00211298
0.00207159
0.00341519
0.00161223
0.00426601
0.00121726
0.00479986
0.000798077
0.0050642
0.000445297
0.00512645
0.000182298
0.00504097
-2.65244e-09
0.00484995
-0.000119601
0.00459282
-0.000194751
0.00430222
-0.000234151
0.00400409
-0.000245109
0.00371795
-0.000234394
0.0034571
-0.000208404
0.00322815
-0.000173547
0.00303105
-0.000136211
0.00286059
-0.000101907
0.00270883
-7.42786e-05
0.00256772
-5.48643e-05
0.00243086
-4.32907e-05
0.00229442
-3.81644e-05
0.00215758
-3.78366e-05
0.00202275
-4.06478e-05
0.00189595
-4.45365e-05
0.00178771
-4.58206e-05
0.00171349
-3.75335e-05
0.001692
-1.01843e-05
0.00174933
3.79521e-05
0.00190265
0.000111296
0.00214494
0.000199845
0.00244008
0.00027025
0.0027291
0.000283149
0.00294696
0.000216652
0.00303763
6.90875e-05
0.00297118
-0.000169961
0.00265911
-0.000518497
0.00166507
-0.00112387
-0.00247769
-0.00425017
-0.00555605
-0.00134742
0.000722565
0.00233297
0.00354836
0.00434459
0.00478804
0.00496851
0.00496668
0.00484529
0.0046488
0.00441299
0.00416633
0.0039305
0.00372083
0.00354622
0.00340919
0.00330675
0.00323228
0.0031776
0.00313493
0.00309786
0.00306167
0.00302324
0.00298156
0.00293927
0.00290596
0.00290069
0.00294422
0.0030617
0.00326825
0.00354562
0.00383624
0.00406068
0.00413791
0.00397649
0.00346696
0.00235231
)
;

boundaryField
{
    floor
    {
        type            calculated;
        value           nonuniform List<scalar> 
29
(
0
0
0
0
0
0
0
0
0
0
0
0
0
0
0
0
0
0
0
0
-6.12471e-06
-1.56661e-05
-2.0053e-05
-1.71014e-05
-2.58181e-06
-6.51402e-06
-1.62337e-05
-1.61717e-05
-1.36836e-05
)
;
    }
    ceiling
    {
        type            calculated;
        value           nonuniform List<scalar> 
43
(
1.4946e-06
6.37676e-07
5.79163e-07
1.74966e-06
1.98404e-06
2.01391e-06
2.01053e-06
2.00323e-06
1.99561e-06
1.98343e-06
1.95026e-06
1.89693e-06
1.8216e-06
1.72114e-06
1.59152e-06
1.42826e-06
1.22694e-06
9.837e-07
6.95569e-07
3.60471e-07
-2.30515e-08
-4.56209e-07
-9.40118e-07
-1.47548e-06
-2.06163e-06
-2.69498e-06
-3.36696e-06
-4.06146e-06
-4.75347e-06
-5.42165e-06
-6.02926e-06
-6.54399e-06
-6.96077e-06
-7.30707e-06
-7.63057e-06
-7.98574e-06
-8.37891e-06
-8.81147e-06
-9.07023e-06
-8.95391e-06
6.59101e-06
4.0001e-06
6.69561e-07
)
;
    }
    sWall
    {
        type            calculated;
        value           uniform -0.000197709;
    }
    nWall
    {
        type            calculated;
        value           nonuniform List<scalar> 6(-4.58496e-05 -5.31609e-05 -6.37481e-05 -7.18449e-05 -8.76946e-05 -0.000116266);
    }
    sideWalls
    {
        type            empty;
        value           nonuniform 0();
    }
    glass1
    {
        type            calculated;
        value           nonuniform List<scalar> 9(-6.60868e-05 -0.000169825 -0.000250984 -0.000317202 -0.0003737 -0.00042353 -0.000468647 -0.000522638 -0.000585548);
    }
    glass2
    {
        type            calculated;
        value           nonuniform List<scalar> 2(-0.000296403 -0.000323057);
    }
    sun
    {
        type            calculated;
        value           uniform 0;
    }
    heatsource1
    {
        type            calculated;
        value           nonuniform List<scalar> 3(2.0425e-07 2.04347e-07 2.04658e-07);
    }
    heatsource2
    {
        type            calculated;
        value           nonuniform List<scalar> 4(5.13114e-08 5.1557e-08 0 0);
    }
    Table_master
    {
        type            calculated;
        value           nonuniform List<scalar> 9(-1.55466e-07 -1.55452e-07 -1.55323e-07 -1.55216e-07 -1.55122e-07 -1.55038e-07 -1.54964e-07 -1.54884e-07 -1.54781e-07);
    }
    Table_slave
    {
        type            calculated;
        value           nonuniform List<scalar> 9(1.53797e-07 1.53897e-07 1.53988e-07 1.5408e-07 1.5417e-07 1.54256e-07 1.54317e-07 1.54298e-07 1.54212e-07);
    }
    inlet
    {
        type            calculated;
        value           uniform -0.00107203;
    }
    outlet
    {
        type            calculated;
        value           nonuniform List<scalar> 2(0.00444652 0.00130538);
    }
}


// ************************************************************************* //
