/*--------------------------------*- C++ -*----------------------------------*\
  =========                 |
  \\      /  F ield         | OpenFOAM: The Open Source CFD Toolbox
   \\    /   O peration     | Website:  https://openfoam.org
    \\  /    A nd           | Version:  6
     \\/     M anipulation  |
\*---------------------------------------------------------------------------*/
FoamFile
{
    version     2.0;
    format      ascii;
    class       volScalarField;
    location    "100";
    object      alphat;
}
// * * * * * * * * * * * * * * * * * * * * * * * * * * * * * * * * * * * * * //

dimensions      [1 -1 -1 0 0 0 0];

internalField   nonuniform List<scalar> 
459
(
0.00113953
0.00123432
0.00124929
0.00130636
0.00135856
0.00140658
0.00145245
0.00149873
0.00153846
0.001563
0.00156619
0.00154299
0.00149237
0.00142161
0.00134502
0.000546475
0.000672971
0.000739463
0.000726968
0.000704108
0.000677175
0.000644879
0.000612809
0.00058361
0.000557611
0.000534512
0.000513889
0.000495233
0.000478202
0.000462171
0.000446116
0.000428448
0.00041089
0.000375138
0.00158765
0.00354273
0.00329049
0.00382174
0.00431132
0.00481511
0.00529212
0.00567529
0.00599721
0.00627693
0.00646956
0.00651552
0.00632357
0.00570416
0.0041111
0.00136186
0.000896394
0.000612322
0.00116658
0.0015494
0.00182346
0.00197441
0.0019903
0.00165728
0.00146311
0.00131886
0.00120494
0.00111345
0.00104026
0.000983449
0.000929092
0.000864307
0.000800067
0.000744931
0.000826475
0.000448361
0.00196858
0.00485188
0.00392922
0.00509721
0.00560207
0.00596941
0.0062526
0.00648041
0.00671079
0.00696464
0.00721203
0.00741
0.00749713
0.00741291
0.00702059
0.00578135
0.00131818
0.00118556
0.00160327
0.00198454
0.00233176
0.00258909
0.0025619
0.000876676
0.000788074
0.000714215
0.000652482
0.000600445
0.000556266
0.000518761
0.000487853
0.000464389
0.000511524
0.000608136
0.000935821
0.000500361
0.0023429
0.00641634
0.00384554
0.00537661
0.00588007
0.00602711
0.0060842
0.00616729
0.00632567
0.00656203
0.00684438
0.00713854
0.00737336
0.00751115
0.00750594
0.00714617
0.00566898
0.00154898
0.00193522
0.00247707
0.00298639
0.00340545
0.00369597
0.00350564
0.000962822
0.000885344
0.000831332
0.000790439
0.000754524
0.000720872
0.000687336
0.000650754
0.000606694
0.000574636
0.000610239
0.00105395
0.000543142
0.00272769
0.00848339
0.00429416
0.00505188
0.00582439
0.00589293
0.00580106
0.00578434
0.00593281
0.00617362
0.00647579
0.00681897
0.00709858
0.00725301
0.00724782
0.00705165
0.00653756
0.00546021
0.00509947
0.00502787
0.00507773
0.00517328
0.00524978
0.00515282
0.00441575
0.00411016
0.00395244
0.00382227
0.00365901
0.00338555
0.00300329
0.00253195
0.00199837
0.00143975
0.00104517
0.00108425
0.000682153
0.000679203
0.000827635
0.000923492
0.00313475
0.0107336
0.00627481
0.00482132
0.00541435
0.00574054
0.00581019
0.00566092
0.0058226
0.00604675
0.00634553
0.0066874
0.0069844
0.00713528
0.00708052
0.00683648
0.00649647
0.00619117
0.00611334
0.00615281
0.00620361
0.00622983
0.00620131
0.00607859
0.00581957
0.00559479
0.00538899
0.00517224
0.00492708
0.00462785
0.00422342
0.00370078
0.00306226
0.00233935
0.0017117
0.00129569
0.000936142
0.000817568
0.00120613
0.000959336
0.00351944
0.0124037
0.00943656
0.00652194
0.00578406
0.00583267
0.00597111
0.00595349
0.00598136
0.00613019
0.00641635
0.00677569
0.00708704
0.00722299
0.00711482
0.00680541
0.00647525
0.00635727
0.00650135
0.00665729
0.00667805
0.00656414
0.00635106
0.00608912
0.00582678
0.00559305
0.00536489
0.00513051
0.00488876
0.0046492
0.0044094
0.00402231
0.00349363
0.00285901
0.00226771
0.0017652
0.00138419
0.00128945
0.00134146
0.00107895
0.00360069
0.0114218
0.00990236
0.00880069
0.00789674
0.00734622
0.00678355
0.00634273
0.00618529
0.00631997
0.00666317
0.00707253
0.00738296
0.00745372
0.00723681
0.00682867
0.00650164
0.00650721
0.00672051
0.00666795
0.00640438
0.00604163
0.00566886
0.00534174
0.00507528
0.00485116
0.00464279
0.00444306
0.00426087
0.00411187
0.00400729
0.00389841
0.00357399
0.00312158
0.0027256
0.00252477
0.00260189
0.00312426
0.00401985
0.00171223
0.00351048
0.00419878
0.00470488
0.00492161
0.00503215
0.00504814
0.0051504
0.00544516
0.00593503
0.00654924
0.00716631
0.00764083
0.00784011
0.00767894
0.00720416
0.00665221
0.00645364
0.00638704
0.00620615
0.00581905
0.00534358
0.00489574
0.00452777
0.00424077
0.00401096
0.00381049
0.00362029
0.00343281
0.00324594
0.00305816
0.00286889
0.0026923
0.00254889
0.00244829
0.00241986
0.00245729
0.00248406
0.00241957
0.00226978
0.00160637
0.00204817
0.00387592
0.00504806
0.00588027
0.00665807
0.00734582
0.00792167
0.00833776
0.00854957
0.00847233
0.00807001
0.00736527
0.00659104
0.00598998
0.00566314
0.00530011
0.00480787
0.00429839
0.00386509
0.00353381
0.00328787
0.00309983
0.00294713
0.00281591
0.00270022
0.00259938
0.00251519
0.00245079
0.00241369
0.00240276
0.00240868
0.002432
0.00246662
0.00248464
0.00243676
0.00229793
0.00207679
0.00132565
0.00245208
0.00523446
0.00691917
0.00756853
0.00815007
0.00858311
0.00862201
0.00847795
0.00815482
0.00741011
0.00645856
0.00554402
0.00485124
0.0043291
0.00385711
0.00340618
0.00303086
0.00274047
0.00252376
0.00236882
0.00226246
0.00219054
0.00214459
0.00212018
0.00211501
0.00212734
0.00215478
0.0021941
0.00225237
0.00232684
0.00241653
0.00251671
0.00261206
0.00267973
0.00267269
0.00271229
0.00269824
0.00134741
0.00211493
0.00223742
0.00232597
0.00243834
0.00229111
0.0021282
0.00198019
0.00184135
0.00172692
0.00159532
0.00144395
0.00128646
0.00111626
0.000959958
0.000839333
0.000759814
0.000711542
0.000684458
0.000671932
0.000669644
0.000675127
0.000686065
0.000700951
0.000719377
0.000741215
0.000766518
0.000795496
0.000828546
0.000866361
0.000910009
0.00095875
0.00101314
0.00107411
0.00114268
0.00121915
0.00131053
0.00134607
0.00131572
0.00123313
0.00114628
)
;

boundaryField
{
    floor
    {
        type            compressible::alphatWallFunction;
        Prt             0.85;
        value           nonuniform List<scalar> 
29
(
0.00019002
7.63212e-05
9.52258e-05
0.000104981
0.000103155
9.98047e-05
9.58413e-05
9.10638e-05
8.62908e-05
8.19184e-05
7.80025e-05
7.45045e-05
7.13655e-05
6.85122e-05
6.58958e-05
6.34222e-05
6.0934e-05
5.81825e-05
5.54337e-05
4.97888e-05
4.97881e-05
6.1284e-05
6.93004e-05
7.58166e-05
0.000190018
7.63203e-05
8.62379e-05
0.000168167
0.000217556
)
;
    }
    ceiling
    {
        type            compressible::alphatWallFunction;
        Prt             0.85;
        value           nonuniform List<scalar> 
43
(
0.000291952
0.00030776
0.000319134
0.000333605
0.000314807
0.000293828
0.000274608
0.000256435
0.000241348
0.000223859
0.000203537
0.000182145
0.000158684
0.000136769
0.000119569
0.000108071
0.000101022
9.70421e-05
9.51948e-05
9.48569e-05
9.56664e-05
9.72794e-05
9.94695e-05
0.000102173
0.000105366
0.000109051
0.000113254
0.000118025
0.000123457
0.000129691
0.000136611
0.000144285
0.00015283
0.000162374
0.00017294
0.000185469
0.000190314
0.000186177
0.000174864
0.000162874
0.00046786
0.000551568
0.000335123
)
;
    }
    sWall
    {
        type            compressible::alphatWallFunction;
        Prt             0.85;
        value           uniform 0.00029074;
    }
    nWall
    {
        type            compressible::alphatWallFunction;
        Prt             0.85;
        value           nonuniform List<scalar> 6(0.000131282 0.000136361 0.000153172 0.000187199 0.000190161 0.000162548);
    }
    sideWalls
    {
        type            empty;
    }
    glass1
    {
        type            compressible::alphatWallFunction;
        Prt             0.85;
        value           nonuniform List<scalar> 9(0.00015772 0.00021781 0.000267537 0.000315486 0.000364001 0.000414596 0.000461833 0.000471872 0.000461091);
    }
    glass2
    {
        type            compressible::alphatWallFunction;
        Prt             0.85;
        value           nonuniform List<scalar> 2(0.000237702 0.000223749);
    }
    sun
    {
        type            compressible::alphatWallFunction;
        Prt             0.85;
        value           nonuniform List<scalar> 
14
(
0.00016181
0.000174881
0.000176936
0.000184749
0.000191862
0.000198377
0.000204577
0.00021081
0.000216146
0.000219432
0.000219859
0.000216753
0.000209955
0.00020041
)
;
    }
    heatsource1
    {
        type            compressible::alphatWallFunction;
        Prt             0.85;
        value           nonuniform List<scalar> 3(9.62562e-05 0.000117882 0.000131598);
    }
    heatsource2
    {
        type            compressible::alphatWallFunction;
        Prt             0.85;
        value           nonuniform List<scalar> 4(0.000192441 0.000127738 0.000127737 0.00018649);
    }
    Table_master
    {
        type            compressible::alphatWallFunction;
        Prt             0.85;
        value           nonuniform List<scalar> 9(0.000124912 0.000112159 0.000101397 9.22977e-05 8.45459e-05 7.79e-05 7.22068e-05 6.74773e-05 6.38624e-05);
    }
    Table_slave
    {
        type            compressible::alphatWallFunction;
        Prt             0.85;
        value           nonuniform List<scalar> 9(0.000137168 0.000126154 0.000118408 0.000112504 0.000107289 0.000102375 9.74511e-05 9.20462e-05 8.54866e-05);
    }
    inlet
    {
        type            fixedValue;
        value           uniform 1.94e-05;
    }
    outlet
    {
        type            zeroGradient;
    }
}


// ************************************************************************* //
