/*--------------------------------*- C++ -*----------------------------------*\
  =========                 |
  \\      /  F ield         | OpenFOAM: The Open Source CFD Toolbox
   \\    /   O peration     | Website:  https://openfoam.org
    \\  /    A nd           | Version:  6
     \\/     M anipulation  |
\*---------------------------------------------------------------------------*/
FoamFile
{
    version     2.0;
    format      ascii;
    class       volScalarField;
    location    "290";
    object      alphat;
}
// * * * * * * * * * * * * * * * * * * * * * * * * * * * * * * * * * * * * * //

dimensions      [1 -1 -1 0 0 0 0];

internalField   nonuniform List<scalar> 
459
(
0.00113082
0.00124184
0.00127291
0.00133811
0.00139981
0.00145984
0.0015223
0.00157419
0.00160682
0.00161285
0.00158656
0.00152463
0.00142336
0.00125778
0.000991349
0.000689389
0.000875823
0.000854647
0.000838084
0.000818122
0.000789128
0.000741674
0.00069151
0.000645388
0.000604307
0.00056797
0.000535897
0.000507192
0.000480979
0.000456252
0.000431632
0.000407261
0.000376745
0.000411343
0.0015169
0.00375914
0.00361739
0.00420874
0.00481164
0.00539847
0.00585355
0.00627209
0.00665785
0.00697286
0.00717306
0.0072193
0.00706465
0.00659756
0.00501472
0.00120784
0.000865082
0.000983649
0.00301854
0.0028307
0.00305819
0.00322562
0.00311307
0.0022933
0.00192462
0.00167864
0.00149642
0.00135402
0.00123231
0.00112402
0.00102249
0.000924665
0.000841853
0.000843169
0.00079477
0.000524997
0.00183653
0.00508547
0.00447245
0.00543218
0.00590372
0.00626064
0.00654559
0.00686715
0.00725302
0.00768097
0.00808776
0.00841031
0.00855617
0.00839819
0.00758609
0.0053193
0.00121669
0.00111272
0.0025669
0.00327887
0.00386729
0.00421919
0.00386737
0.00102855
0.000893405
0.000787546
0.000704427
0.000638415
0.000585577
0.000543051
0.000509206
0.000484068
0.00055119
0.000722662
0.000915926
0.000580682
0.00214087
0.00636367
0.00446101
0.00562272
0.00588744
0.00596815
0.00608911
0.00632857
0.00670702
0.00721866
0.00776973
0.00828539
0.00863862
0.00877613
0.00856102
0.00753469
0.00445036
0.00144234
0.00220872
0.00309445
0.00408438
0.00488883
0.00531742
0.00477797
0.00113484
0.00102818
0.000956824
0.00090645
0.000867668
0.000833114
0.000797101
0.000760742
0.000718657
0.000689414
0.000744756
0.00104729
0.000654427
0.00245027
0.00800007
0.00475574
0.00543456
0.00571727
0.00564557
0.0056706
0.00587316
0.0062416
0.00680733
0.00742433
0.00798518
0.00839512
0.00861786
0.00863205
0.00833187
0.00742991
0.0065486
0.00644809
0.00664106
0.00686558
0.00699525
0.00695501
0.00658188
0.00538166
0.00484158
0.00455264
0.00436674
0.00421408
0.00404911
0.00380779
0.00338795
0.00282303
0.00220128
0.00169019
0.001535
0.00109428
0.000734072
0.000716087
0.000677171
0.00277931
0.00982181
0.00630673
0.00539667
0.00573086
0.00563675
0.00562292
0.00576341
0.00610015
0.00664929
0.00730387
0.00790228
0.00831956
0.00852036
0.00855793
0.00851935
0.00845939
0.00846027
0.00852279
0.00852985
0.00842271
0.00818916
0.00784184
0.00738877
0.00683036
0.00639177
0.00606761
0.00581702
0.00560875
0.00541177
0.00518233
0.00483829
0.00433668
0.00369841
0.00302406
0.00249984
0.00194583
0.00149798
0.00160444
0.000824744
0.00308583
0.0111516
0.00882397
0.00670126
0.00639731
0.00612591
0.00587442
0.00586629
0.00618088
0.00677693
0.00749508
0.0081356
0.00855618
0.0087315
0.00876517
0.00882924
0.00902375
0.0092472
0.00932214
0.00918082
0.00885046
0.00838685
0.00785068
0.00730619
0.00681543
0.00643178
0.00614069
0.0059151
0.0057374
0.00558648
0.00542562
0.00521698
0.00493095
0.00450424
0.00397279
0.00343368
0.0028479
0.00226898
0.00209139
0.000969401
0.00315394
0.0101717
0.00883878
0.00793632
0.00719961
0.00639956
0.00593954
0.00595798
0.00642878
0.00720287
0.0080381
0.00871065
0.00910299
0.00923175
0.00923817
0.00926325
0.00933674
0.00934498
0.00918971
0.00884925
0.00836512
0.00781497
0.00726851
0.00678873
0.00640484
0.00610668
0.00586294
0.00565346
0.00547665
0.00533067
0.00518769
0.00501284
0.00483446
0.0046856
0.00438325
0.00404086
0.00363381
0.00296542
0.00313154
0.00119577
0.00307811
0.00367457
0.004242
0.00435639
0.00441754
0.00464508
0.00514358
0.00595722
0.00703068
0.00814867
0.00904916
0.00959936
0.00980348
0.00974481
0.00953903
0.0091767
0.00883869
0.00856919
0.00829733
0.00797322
0.00759634
0.00722082
0.00687979
0.00659383
0.00634952
0.00611879
0.00587638
0.00560971
0.00532418
0.00503215
0.00471518
0.00431066
0.00381947
0.00336581
0.00301291
0.00271
0.00245068
0.00223625
0.00209334
0.00129589
0.00238739
0.00417377
0.00532372
0.00640211
0.00743446
0.00846808
0.00942525
0.0100928
0.0103459
0.0102627
0.00989482
0.00933977
0.00882742
0.00846161
0.0082255
0.00806394
0.00793037
0.0078051
0.00768291
0.00756016
0.00742671
0.00728765
0.00712985
0.00693876
0.00669314
0.00636909
0.00595201
0.00545207
0.00490605
0.00433949
0.00379338
0.00331882
0.00294503
0.00268597
0.00250993
0.00236484
0.00227251
0.0015759
0.00226635
0.00452614
0.00648598
0.00773922
0.00884236
0.009811
0.0106041
0.0108852
0.010595
0.0100282
0.00943292
0.00897146
0.00867487
0.00852157
0.00846275
0.00845474
0.00846791
0.00848696
0.00850504
0.0085156
0.00850653
0.00846911
0.00840391
0.00832867
0.00822519
0.00805359
0.00776374
0.00732475
0.00676382
0.00610167
0.0053894
0.00469624
0.00407833
0.00357156
0.00317687
0.00289417
0.00374565
0.00180606
0.00168346
0.00182572
0.0019798
0.00203965
0.00203663
0.00214626
0.00223807
0.00229809
0.002313
0.00227991
0.00223048
0.00216661
0.00210799
0.00206725
0.00204355
0.00203192
0.00202754
0.00202652
0.00202647
0.00202613
0.0020248
0.0020222
0.00201884
0.00201533
0.00201216
0.00200508
0.00199023
0.00196364
0.00192435
0.00187569
0.00181773
0.00175569
0.00169459
0.00163901
0.00159313
0.00155835
0.00153024
0.00150136
0.00155459
0.00150483
)
;

boundaryField
{
    floor
    {
        type            compressible::alphatWallFunction;
        Prt             0.85;
        value           nonuniform List<scalar> 
29
(
0.000141441
9.79805e-05
0.000125034
0.000122002
0.000119624
0.000116749
0.000112558
0.000105657
9.83024e-05
9.14831e-05
8.53587e-05
7.98984e-05
7.50424e-05
7.06654e-05
6.66411e-05
6.2819e-05
5.89871e-05
5.51659e-05
5.03385e-05
5.58009e-05
5.58002e-05
7.33817e-05
8.18126e-05
9.28248e-05
0.000141439
9.79794e-05
0.000140358
0.000158444
0.000203607
)
;
    }
    ceiling
    {
        type            compressible::alphatWallFunction;
        Prt             0.85;
        value           nonuniform List<scalar> 
43
(
0.000235749
0.000254544
0.00027473
0.000282586
0.000282234
0.000296469
0.000308329
0.000316054
0.000317974
0.000313728
0.000307374
0.000299139
0.000291558
0.000286275
0.000283197
0.000281686
0.000281117
0.000280985
0.000280978
0.000280934
0.000280761
0.000280423
0.000279986
0.000279529
0.000279115
0.000278193
0.000276258
0.000272789
0.000267655
0.000261278
0.00025366
0.000245476
0.000237385
0.000229997
0.000223877
0.000219224
0.000215456
0.000211576
0.000218722
0.000212045
0.000414656
0.00048819
0.000311773
)
;
    }
    sWall
    {
        type            compressible::alphatWallFunction;
        Prt             0.85;
        value           uniform 0.000234655;
    }
    nWall
    {
        type            compressible::alphatWallFunction;
        Prt             0.85;
        value           nonuniform List<scalar> 6(9.57691e-05 0.000117268 0.000137901 0.000221096 0.000251638 0.000211568);
    }
    sideWalls
    {
        type            empty;
    }
    glass1
    {
        type            compressible::alphatWallFunction;
        Prt             0.85;
        value           nonuniform List<scalar> 9(0.000157727 0.000209872 0.000251989 0.0002914 0.000330892 0.000372342 0.000410522 0.000419033 0.000409791);
    }
    glass2
    {
        type            compressible::alphatWallFunction;
        Prt             0.85;
        value           nonuniform List<scalar> 2(0.000168816 0.000182551);
    }
    sun
    {
        type            compressible::alphatWallFunction;
        Prt             0.85;
        value           nonuniform List<scalar> 
14
(
0.000160975
0.000176301
0.000180564
0.000189472
0.000197856
0.000205974
0.000214381
0.000221336
0.000225695
0.000226498
0.000222987
0.00021469
0.00020104
0.000178479
)
;
    }
    heatsource1
    {
        type            compressible::alphatWallFunction;
        Prt             0.85;
        value           nonuniform List<scalar> 3(0.00010431 0.000101678 9.59557e-05);
    }
    heatsource2
    {
        type            compressible::alphatWallFunction;
        Prt             0.85;
        value           nonuniform List<scalar> 4(0.000171368 0.000123262 0.000123261 0.000172584);
    }
    Table_master
    {
        type            compressible::alphatWallFunction;
        Prt             0.85;
        value           nonuniform List<scalar> 9(0.000146434 0.000127308 0.000112088 9.99665e-05 9.02162e-05 8.23229e-05 7.59061e-05 7.07545e-05 6.69003e-05);
    }
    Table_slave
    {
        type            compressible::alphatWallFunction;
        Prt             0.85;
        value           nonuniform List<scalar> 9(0.000161273 0.000146385 0.000136325 0.00012917 0.00012363 0.000118669 0.000113473 0.000108198 0.000102055);
    }
    inlet
    {
        type            fixedValue;
        value           uniform 1.94e-05;
    }
    outlet
    {
        type            zeroGradient;
    }
}


// ************************************************************************* //
