/*--------------------------------*- C++ -*----------------------------------*\
  =========                 |
  \\      /  F ield         | OpenFOAM: The Open Source CFD Toolbox
   \\    /   O peration     | Website:  https://openfoam.org
    \\  /    A nd           | Version:  6
     \\/     M anipulation  |
\*---------------------------------------------------------------------------*/
FoamFile
{
    version     2.0;
    format      ascii;
    class       volScalarField;
    location    "290";
    object      epsilon;
}
// * * * * * * * * * * * * * * * * * * * * * * * * * * * * * * * * * * * * * //

dimensions      [0 2 -3 0 0 0 0];

internalField   nonuniform List<scalar> 
459
(
0.000334706
0.000442539
0.00047657
0.000553625
0.000633795
0.000718879
0.000815153
0.000901364
0.000958499
0.000969234
0.000922513
0.000818568
0.000665978
0.000459446
0.000224873
7.5595e-05
0.000155113
0.000144194
0.000136003
0.00012653
0.000113557
9.42784e-05
7.64115e-05
6.21172e-05
5.09926e-05
4.23346e-05
3.55587e-05
3.01441e-05
2.57069e-05
2.19415e-05
1.85768e-05
1.56034e-05
1.23501e-05
1.60572e-05
0.000808955
0.00111564
0.000411239
0.000403891
0.000428625
0.000471598
0.000537082
0.000610904
0.000670184
0.000693212
0.000668741
0.00059974
0.000501453
0.000393965
0.000277073
0.000407038
0.000149565
0.000219843
0.0004052
0.000198877
0.000143004
0.000115685
9.91869e-05
9.49551e-05
7.71775e-05
6.1018e-05
4.82138e-05
3.83516e-05
3.08517e-05
2.51085e-05
2.07084e-05
1.75914e-05
1.60374e-05
2.02254e-05
2.42039e-05
3.3432e-05
0.00143753
0.00259757
0.000488724
0.000382342
0.000409025
0.000472736
0.000566225
0.000667923
0.000744525
0.000775118
0.000753309
0.000683983
0.000584016
0.000475776
0.000378214
0.000334083
0.000416107
0.000318351
0.000286707
0.000202754
0.000158185
0.000129524
0.000118072
0.000251673
0.00016493
0.000112976
8.08478e-05
6.01827e-05
4.64427e-05
3.70416e-05
3.05384e-05
2.62345e-05
2.06947e-05
2.23329e-05
3.43873e-05
4.52576e-05
0.00228015
0.00525161
0.000733107
0.000386696
0.000406103
0.000497101
0.000639845
0.000774479
0.000858461
0.00088549
0.000857739
0.000778563
0.000668902
0.000557502
0.000460955
0.000392062
0.000357487
0.000693334
0.000459241
0.000307122
0.000224699
0.000175171
0.0001437
0.000133913
0.000338209
0.000251565
0.000202763
0.000172413
0.00015123
0.000133883
0.000117268
0.000101948
8.59498e-05
5.17683e-05
3.69201e-05
5.85945e-05
6.48102e-05
0.00342287
0.00926671
0.00137696
0.000450111
0.000425816
0.000566524
0.000813321
0.000969737
0.00103857
0.00104433
0.000994882
0.000894795
0.000760317
0.000617366
0.00049002
0.000392856
0.000330199
0.000308728
0.000276596
0.00024311
0.000210243
0.000180363
0.000155097
0.000136695
0.000136043
0.000127352
0.000118972
0.000111386
0.000103885
9.55677e-05
8.58412e-05
7.56348e-05
6.58037e-05
5.37552e-05
4.30203e-05
5.96269e-05
6.73373e-05
9.15132e-05
8.49525e-05
7.18582e-05
0.00500118
0.0137877
0.00302074
0.00080651
0.000606359
0.00090486
0.00120385
0.00130655
0.00131662
0.00127818
0.00119271
0.00105386
0.000874481
0.000684808
0.00051715
0.000393017
0.000318481
0.000284256
0.000264209
0.000244349
0.000222237
0.000198949
0.000176634
0.000157771
0.00014629
0.000140093
0.000136245
0.000132074
0.000126196
0.000117942
0.000107007
9.29776e-05
7.89002e-05
6.62085e-05
5.53264e-05
5.66444e-05
6.61345e-05
7.34086e-05
0.0001676
0.000129843
0.00685249
0.0166244
0.00637314
0.00252498
0.00181178
0.001963
0.00195257
0.00185004
0.00173336
0.00161399
0.00146455
0.00126303
0.00102057
0.000774133
0.000564101
0.000417376
0.000336963
0.000303899
0.000288502
0.000273386
0.000254927
0.000234732
0.000215614
0.000200345
0.000191632
0.000188666
0.000186966
0.000182808
0.000174867
0.000163812
0.000151221
0.000138074
0.000121496
0.000107538
9.7838e-05
9.31993e-05
9.5692e-05
0.000103435
0.00027003
0.000210888
0.0073275
0.0193498
0.0104429
0.0067819
0.00503855
0.00386274
0.00308507
0.00259374
0.00228493
0.0020565
0.00181682
0.00152247
0.00119296
0.000878805
0.000627013
0.000467671
0.000389824
0.000361348
0.000349052
0.00033633
0.000321834
0.000308272
0.000298117
0.00029247
0.000291386
0.000292311
0.000290091
0.000280542
0.000262907
0.000241033
0.000222124
0.00021269
0.000214989
0.000221381
0.000245312
0.000283228
0.000341384
0.000415063
0.00153895
0.000396119
0.00682607
0.0115907
0.00961669
0.00725934
0.00556105
0.00441742
0.00365572
0.00317129
0.00286225
0.00258654
0.00223466
0.00179637
0.00135143
0.000979012
0.00071312
0.000589087
0.000541377
0.000524573
0.000516242
0.000509417
0.000507185
0.000509308
0.000516184
0.000524898
0.000533087
0.000537043
0.000529543
0.000503489
0.000456413
0.000395394
0.000337349
0.000300143
0.000294869
0.000321696
0.00037593
0.000463616
0.000585842
0.000741971
0.000915224
0.000504595
0.004319
0.00600596
0.00517955
0.00449998
0.00407043
0.00382077
0.00358326
0.00317464
0.00258
0.00192169
0.00144297
0.00120972
0.00110301
0.00106604
0.00106444
0.00107856
0.00109772
0.00111803
0.00113764
0.00116039
0.0011901
0.00121483
0.00123194
0.00123971
0.00122544
0.00117155
0.00106345
0.000904006
0.000725389
0.000574784
0.000469946
0.00041562
0.000419523
0.000479984
0.000586123
0.000715437
0.000875096
0.000907718
0.00260483
0.00406711
0.00483958
0.0050672
0.00535692
0.00562996
0.00555556
0.00498902
0.00418967
0.00348278
0.00300464
0.00275268
0.00265697
0.00265777
0.00270992
0.00278771
0.00287453
0.00296192
0.00304716
0.00312636
0.00319243
0.00324851
0.0032992
0.00335403
0.00339185
0.00337138
0.00324386
0.0029848
0.00262225
0.00218842
0.00174452
0.00135388
0.00105901
0.000876594
0.000789163
0.000778746
0.00192945
0.0013663
0.00107847
0.00137419
0.00175225
0.00193499
0.00193747
0.00227399
0.00258425
0.00280265
0.00286121
0.00274245
0.0025694
0.00235593
0.00217047
0.00204744
0.00197809
0.0019447
0.00193228
0.00192946
0.00192936
0.0019284
0.00192461
0.00191721
0.00190764
0.00189769
0.00188871
0.00186882
0.00182758
0.00175531
0.00165205
0.00152986
0.0013924
0.00125464
0.00112817
0.00102077
0.000937429
0.000877365
0.000830746
0.000784637
0.000871137
0.000790393
)
;

boundaryField
{
    floor
    {
        Cmu             0.09;
        kappa           0.41;
        E               9.8;
        type            epsilonWallFunction;
        value           nonuniform List<scalar> 
29
(
0.000224873
7.5595e-05
0.000155113
0.000144194
0.000136003
0.00012653
0.000113557
9.42784e-05
7.64115e-05
6.21172e-05
5.09926e-05
4.23346e-05
3.55587e-05
3.01441e-05
2.57069e-05
2.19415e-05
1.85768e-05
1.56034e-05
1.23501e-05
1.60572e-05
1.60572e-05
3.3432e-05
4.52576e-05
6.48102e-05
0.000224873
7.5595e-05
0.000219843
0.000318351
0.000693334
)
;
    }
    ceiling
    {
        Cmu             0.09;
        kappa           0.41;
        E               9.8;
        type            epsilonWallFunction;
        value           nonuniform List<scalar> 
43
(
0.00107847
0.00137419
0.00175225
0.00193499
0.00193747
0.00227399
0.00258425
0.00280265
0.00286121
0.00274245
0.0025694
0.00235593
0.00217047
0.00204744
0.00197809
0.0019447
0.00193228
0.00192946
0.00192936
0.0019284
0.00192461
0.00191721
0.00190764
0.00189769
0.00188871
0.00186882
0.00182758
0.00175531
0.00165205
0.00152986
0.0013924
0.00125464
0.00112817
0.00102077
0.000937429
0.000877365
0.000830746
0.000784637
0.000871137
0.000790393
0.00682607
0.0115907
0.00260483
)
;
    }
    sWall
    {
        Cmu             0.09;
        kappa           0.41;
        E               9.8;
        type            epsilonWallFunction;
        value           uniform 0.00107847;
    }
    nWall
    {
        Cmu             0.09;
        kappa           0.41;
        E               9.8;
        type            epsilonWallFunction;
        value           nonuniform List<scalar> 6(7.18582e-05 0.000129843 0.000210888 0.000907718 0.0013663 0.000790393);
    }
    sideWalls
    {
        type            empty;
    }
    glass1
    {
        Cmu             0.09;
        kappa           0.41;
        E               9.8;
        type            epsilonWallFunction;
        value           nonuniform List<scalar> 9(0.000334706 0.000808955 0.00143753 0.00228015 0.00342287 0.00500118 0.00685249 0.0073275 0.00682607);
    }
    glass2
    {
        Cmu             0.09;
        kappa           0.41;
        E               9.8;
        type            epsilonWallFunction;
        value           nonuniform List<scalar> 2(0.000396119 0.000504595);
    }
    sun
    {
        Cmu             0.09;
        kappa           0.41;
        E               9.8;
        type            epsilonWallFunction;
        value           nonuniform List<scalar> 
14
(
0.000334706
0.000442539
0.00047657
0.000553625
0.000633795
0.000718879
0.000815153
0.000901364
0.000958499
0.000969234
0.000922513
0.000818568
0.000665978
0.000459446
)
;
    }
    heatsource1
    {
        Cmu             0.09;
        kappa           0.41;
        E               9.8;
        type            epsilonWallFunction;
        value           nonuniform List<scalar> 3(9.15132e-05 8.49525e-05 7.18582e-05);
    }
    heatsource2
    {
        Cmu             0.09;
        kappa           0.41;
        E               9.8;
        type            epsilonWallFunction;
        value           nonuniform List<scalar> 4(0.000407038 0.000149565 0.000149565 0.000416107);
    }
    Table_master
    {
        Cmu             0.09;
        kappa           0.41;
        E               9.8;
        type            epsilonWallFunction;
        value           nonuniform List<scalar> 9(0.000251673 0.00016493 0.000112976 8.08478e-05 6.01827e-05 4.64427e-05 3.70416e-05 3.05384e-05 2.62345e-05);
    }
    Table_slave
    {
        Cmu             0.09;
        kappa           0.41;
        E               9.8;
        type            epsilonWallFunction;
        value           nonuniform List<scalar> 9(0.000338209 0.000251565 0.000202763 0.000172413 0.00015123 0.000133883 0.000117268 0.000101948 8.59498e-05);
    }
    inlet
    {
        type            turbulentMixingLengthDissipationRateInlet;
        mixingLength    0.01;
        phi             phi;
        k               k;
        value           uniform 3.01869e-05;
    }
    outlet
    {
        type            zeroGradient;
    }
}


// ************************************************************************* //
