/*--------------------------------*- C++ -*----------------------------------*\
  =========                 |
  \\      /  F ield         | OpenFOAM: The Open Source CFD Toolbox
   \\    /   O peration     | Website:  https://openfoam.org
    \\  /    A nd           | Version:  6
     \\/     M anipulation  |
\*---------------------------------------------------------------------------*/
FoamFile
{
    version     2.0;
    format      ascii;
    class       volScalarField;
    location    "290";
    object      nut;
}
// * * * * * * * * * * * * * * * * * * * * * * * * * * * * * * * * * * * * * //

dimensions      [0 2 -1 0 0 0 0];

internalField   nonuniform List<scalar> 
459
(
0.000981582
0.00107735
0.00110428
0.00116085
0.00121437
0.00126645
0.00132063
0.00136564
0.00139391
0.0013991
0.00137625
0.0013225
0.00123462
0.00109095
0.000859724
0.000597782
0.000759619
0.000741353
0.000727035
0.000709744
0.000684605
0.000643438
0.000599915
0.000559896
0.000524251
0.000492722
0.000464892
0.000439985
0.000417241
0.000395785
0.000374421
0.000353273
0.000326785
0.000356676
0.00131729
0.0032618
0.00313872
0.0036519
0.0041751
0.00468432
0.00507917
0.00544218
0.00577658
0.00604949
0.0062228
0.00626265
0.00612836
0.00572308
0.00434989
0.00104773
0.000750421
0.000853252
0.00261874
0.00245592
0.00265343
0.00279881
0.00270123
0.00198993
0.00167002
0.00145658
0.00129847
0.00117491
0.0010693
0.000975334
0.000887223
0.000802329
0.000730451
0.000731553
0.000689499
0.000455443
0.00159556
0.00441338
0.00388115
0.0047142
0.00512363
0.00543352
0.00568083
0.00595963
0.00629388
0.00666443
0.00701667
0.00729604
0.0074224
0.00728533
0.00658085
0.00461446
0.00105547
0.000965344
0.00222707
0.00284496
0.00335572
0.00366127
0.00335612
0.000892582
0.000775301
0.000683439
0.000611309
0.000554025
0.000508174
0.00047127
0.000441899
0.00042008
0.00047832
0.000627089
0.000794723
0.00050382
0.00186079
0.0055236
0.00387171
0.00488027
0.00511045
0.00518084
0.00528595
0.00549343
0.00582099
0.00626381
0.00674098
0.00718774
0.007494
0.00761336
0.00742687
0.00653659
0.00386085
0.0012513
0.00191628
0.00268491
0.00354411
0.00424249
0.00461475
0.00414683
0.000984989
0.000892457
0.000830554
0.000786857
0.000753217
0.000723242
0.000691995
0.000660445
0.000623916
0.000598464
0.000646421
0.000908878
0.000567882
0.00213063
0.00694537
0.00412803
0.00471756
0.00496356
0.0049019
0.00492387
0.00509916
0.00541773
0.00590718
0.00644137
0.00692729
0.00728276
0.00747616
0.00748875
0.00722856
0.00644623
0.00568184
0.00559498
0.00576285
0.00595818
0.00607123
0.00603678
0.00571331
0.00467178
0.00420317
0.00395251
0.00379126
0.00365883
0.00351569
0.00330622
0.0029417
0.00245117
0.00191122
0.00146732
0.0013324
0.000949717
0.000637097
0.000621494
0.000587766
0.0024177
0.00852904
0.00547523
0.00468526
0.00497603
0.00489529
0.00488338
0.00500444
0.00529519
0.00577009
0.00633672
0.00685519
0.00721714
0.0073917
0.0074248
0.00739179
0.00734019
0.00734142
0.00739623
0.00740299
0.00731066
0.00710857
0.00680762
0.00641475
0.00593031
0.00554979
0.00526854
0.0050511
0.00487037
0.00469939
0.00450019
0.00420143
0.00376579
0.00321142
0.00262568
0.0021703
0.00168911
0.00130028
0.00139264
0.000715902
0.00268531
0.00968742
0.00766326
0.00581961
0.00555615
0.00532123
0.00510238
0.0050938
0.00536488
0.00588023
0.00650198
0.00705715
0.0074223
0.00757514
0.00760521
0.00766157
0.00783103
0.00802561
0.00809135
0.0079694
0.00768332
0.00728145
0.00681645
0.00634406
0.00591821
0.00558527
0.00533263
0.00513681
0.00498254
0.00485149
0.00471179
0.00453057
0.0042821
0.00391142
0.00344974
0.0029814
0.00247253
0.00196976
0.00181549
0.000841523
0.00274598
0.00884423
0.00768272
0.00689713
0.00625674
0.00556069
0.00515903
0.00517239
0.00557843
0.00624809
0.00697172
0.00755534
0.00789674
0.00800985
0.00801677
0.0080396
0.00810424
0.00811212
0.00797802
0.00768311
0.00726334
0.0067861
0.00631191
0.00589552
0.00556228
0.00530344
0.0050918
0.00490989
0.00475632
0.00462951
0.00450529
0.00435339
0.00419841
0.00406904
0.00380633
0.00350883
0.00315515
0.00257462
0.00271871
0.00103831
0.00268186
0.00319951
0.00369148
0.00378925
0.0038408
0.00403569
0.00446496
0.0051676
0.00609633
0.00706507
0.00784683
0.00832602
0.00850546
0.00845666
0.00827976
0.00796637
0.0076737
0.00744031
0.00720476
0.00692375
0.00659682
0.00627097
0.00597497
0.00572671
0.00551457
0.0053142
0.00510364
0.004872
0.00462397
0.00437029
0.00409494
0.00374357
0.00331693
0.0029229
0.0026164
0.00235332
0.00212814
0.00194196
0.00181794
0.00112554
0.00204812
0.00359539
0.00459342
0.00552893
0.00642635
0.00732659
0.00816206
0.00874682
0.0089717
0.00890395
0.00858772
0.00810775
0.0076641
0.00734721
0.0071427
0.0070028
0.00688712
0.00677857
0.00667263
0.00656612
0.00645028
0.00632952
0.00619245
0.00602645
0.00581307
0.00553158
0.00516928
0.00473503
0.00426076
0.00376867
0.00329436
0.0028822
0.00255757
0.00233259
0.00217974
0.00205379
0.00197371
0.00136887
0.00194526
0.00389687
0.00559243
0.00668312
0.00764639
0.00849439
0.00919071
0.00944069
0.00919331
0.00870436
0.00818939
0.00778983
0.00753299
0.00740033
0.00734958
0.00734287
0.00735449
0.00737117
0.00738694
0.00739615
0.00738827
0.00735575
0.00729909
0.0072337
0.00714378
0.00699469
0.00674291
0.00636159
0.00587438
0.00529927
0.00468063
0.0040786
0.00354194
0.00310182
0.00275906
0.00251359
0.00325326
0.00156877
0.00144983
0.0015718
0.00170444
0.00176173
0.00176245
0.00185908
0.00194005
0.00199324
0.00200705
0.00197891
0.00193638
0.0018812
0.00183048
0.00179522
0.00177471
0.00176467
0.0017609
0.00176004
0.00176001
0.00175972
0.00175856
0.0017563
0.00175337
0.00175032
0.00174756
0.0017414
0.0017285
0.00170541
0.00167129
0.00162902
0.00157869
0.00152481
0.00147175
0.00142348
0.00138364
0.00135343
0.00132903
0.00130397
0.00135022
0.00130715
)
;

boundaryField
{
    floor
    {
        type            nutkWallFunction;
        Cmu             0.09;
        kappa           0.41;
        E               9.8;
        value           nonuniform List<scalar> 
29
(
0.000104082
7.20568e-05
9.20022e-05
8.9779e-05
8.80317e-05
8.59159e-05
8.28286e-05
7.7743e-05
7.23235e-05
6.72984e-05
6.27857e-05
5.87626e-05
5.51851e-05
5.19607e-05
4.89963e-05
4.61812e-05
4.33591e-05
4.0545e-05
3.69898e-05
4.10002e-05
4.10001e-05
5.39633e-05
6.01808e-05
6.8303e-05
0.000104082
7.20567e-05
0.000103308
0.000116652
0.000149943
)
;
    }
    ceiling
    {
        type            nutkWallFunction;
        Cmu             0.09;
        kappa           0.41;
        E               9.8;
        value           nonuniform List<scalar> 
43
(
0.000172484
0.000186183
0.000200951
0.000207331
0.000207435
0.000218097
0.000226986
0.000232805
0.000234315
0.000231247
0.000226601
0.000220554
0.000214979
0.000211092
0.000208829
0.00020772
0.000207304
0.000207209
0.000207206
0.000207174
0.000207046
0.000206796
0.000206472
0.000206135
0.000205828
0.000205147
0.000203718
0.000201158
0.000197368
0.000192661
0.000187039
0.000180998
0.000175027
0.000169574
0.000165058
0.000161625
0.000158844
0.000155983
0.000161259
0.000156347
0.000306802
0.000361036
0.000227413
)
;
    }
    sWall
    {
        type            nutkWallFunction;
        Cmu             0.09;
        kappa           0.41;
        E               9.8;
        value           uniform 0.000172528;
    }
    nWall
    {
        type            nutkWallFunction;
        Cmu             0.09;
        kappa           0.41;
        E               9.8;
        value           nonuniform List<scalar> 6(7.07877e-05 8.66644e-05 0.000101901 0.000163399 0.000185951 0.000156364);
    }
    sideWalls
    {
        type            empty;
    }
    glass1
    {
        type            nutkWallFunction;
        Cmu             0.09;
        kappa           0.41;
        E               9.8;
        value           nonuniform List<scalar> 9(0.000118627 0.000157637 0.000189112 0.000218548 0.000248031 0.000278961 0.000307447 0.000313868 0.000307096);
    }
    glass2
    {
        type            nutkWallFunction;
        Cmu             0.09;
        kappa           0.41;
        E               9.8;
        value           nonuniform List<scalar> 2(0.000125268 0.000135457);
    }
    sun
    {
        type            nutkWallFunction;
        Cmu             0.09;
        kappa           0.41;
        E               9.8;
        value           nonuniform List<scalar> 
14
(
0.000118573
0.000129811
0.000132951
0.000139518
0.000145699
0.000151684
0.000157881
0.000163007
0.000166216
0.000166804
0.000164211
0.000158091
0.000148026
0.000131392
)
;
    }
    heatsource1
    {
        type            nutkWallFunction;
        Cmu             0.09;
        kappa           0.41;
        E               9.8;
        value           nonuniform List<scalar> 3(7.69495e-05 7.50088e-05 7.07932e-05);
    }
    heatsource2
    {
        type            nutkWallFunction;
        Cmu             0.09;
        kappa           0.41;
        E               9.8;
        value           nonuniform List<scalar> 4(0.000126353 9.0885e-05 9.0885e-05 0.000127258);
    }
    Table_master
    {
        type            nutkWallFunction;
        Cmu             0.09;
        kappa           0.41;
        E               9.8;
        value           nonuniform List<scalar> 9(0.000108016 9.39075e-05 8.26812e-05 7.374e-05 6.6548e-05 6.07257e-05 5.59925e-05 5.21923e-05 4.93489e-05);
    }
    Table_slave
    {
        type            nutkWallFunction;
        Cmu             0.09;
        kappa           0.41;
        E               9.8;
        value           nonuniform List<scalar> 9(0.000118979 0.000108001 0.000100583 9.53078e-05 9.12231e-05 8.75652e-05 8.37329e-05 7.98423e-05 7.53098e-05);
    }
    inlet
    {
        type            calculated;
        value           uniform 6.7082e-05;
    }
    outlet
    {
        type            calculated;
        value           nonuniform List<scalar> 2(0.00144983 0.0015718);
    }
}


// ************************************************************************* //
