/*--------------------------------*- C++ -*----------------------------------*\
  =========                 |
  \\      /  F ield         | OpenFOAM: The Open Source CFD Toolbox
   \\    /   O peration     | Website:  https://openfoam.org
    \\  /    A nd           | Version:  6
     \\/     M anipulation  |
\*---------------------------------------------------------------------------*/
FoamFile
{
    version     2.0;
    format      ascii;
    class       surfaceScalarField;
    location    "800";
    object      phi;
}
// * * * * * * * * * * * * * * * * * * * * * * * * * * * * * * * * * * * * * //

dimensions      [1 0 -1 0 0 0 0];

internalField   nonuniform List<scalar> 
852
(
-0.00293181
0.00298796
-0.00396619
0.00103438
-0.00475447
0.000788275
-0.00537394
0.000619467
-0.00579607
0.000422123
-0.00599897
0.000202895
-0.00596114
-3.78249e-05
-0.00566397
-0.000297182
-0.00511626
-0.000547712
-0.00436571
-0.000750553
-0.0034896
-0.000876116
-0.0025751
-0.000914497
-0.00169571
-0.000879397
-0.000870515
-0.000825197
-0.000869108
-0.000661538
0.00066418
-0.000318246
-0.000343294
0.000293051
-0.000611298
0.000762907
-0.000469859
0.00107168
-0.000308779
0.00126162
-0.000189939
0.00136421
-0.000102595
0.00141546
-5.12434e-05
0.00144447
-2.90202e-05
0.00146214
-1.76655e-05
0.00147186
-9.72128e-06
0.00147465
-2.79872e-06
0.00146846
6.19008e-06
0.00144471
2.37507e-05
0.00138068
6.403e-05
0.00123818
0.000142496
0.00100193
0.000236249
0.000705571
0.00029636
0.000709131
-0.00209033
0.00522947
-0.0030912
0.00203524
-0.00389543
0.0015925
-0.00450058
0.00122461
-0.0049118
0.00083334
-0.00511649
0.000407587
-0.00508982
-6.44973e-05
-0.00481555
-0.000571465
-0.00431297
-0.00105029
-0.00363971
-0.00142381
-0.00287567
-0.00164016
-0.00210144
-0.00168873
-0.00139003
-0.00159081
-0.000833618
-0.00138162
-0.00063184
-0.00107089
-0.000104073
-0.000527822
-0.000104127
0.000398299
0.000273381
0.000825933
-0.00077093
0.0010729
-0.000858269
0.00127979
-0.00067675
0.00143163
-0.000460624
0.00151845
-0.00027676
0.00153129
-0.000115435
0.00153492
-5.48701e-05
0.00153925
-3.33547e-05
0.00154286
-2.12804e-05
0.00154528
-1.21429e-05
0.00154644
-3.96048e-06
0.00154543
7.19989e-06
0.00153861
3.05705e-05
0.00149699
0.000105645
0.00132085
0.000318642
0.00101597
0.00054113
0.000630077
0.000682247
0.00134838
-0.00146252
0.00692317
-0.00232196
0.00289467
-0.00302809
0.00229862
-0.00353909
0.00173561
-0.00389222
0.00118646
-0.00407106
0.000586426
-0.00403211
-0.000103446
-0.00374959
-0.000853989
-0.00326286
-0.00153702
-0.00264487
-0.00204181
-0.00197628
-0.00230876
-0.00132317
-0.00234185
-0.000737788
-0.00217619
-0.000275925
-0.00184348
3.25558e-05
-0.00137937
0.000246368
-0.000741636
0.000142237
0.00148629
-0.00120507
0.00169995
-0.000984586
0.00168209
-0.00084041
0.00168444
-0.000679103
0.00170575
-0.000481936
0.00171176
-0.000282771
0.00159647
0.00154176
0.00150855
0.00148742
0.00147543
0.00147162
0.00147897
0.0015097
0.00161549
0.00133521
0.000598923
0.000993004
0.000883336
0.000554684
0.00112057
0.00191707
-0.0010216
0.00824405
-0.00170093
0.003574
-0.00215946
0.00275715
-0.00248547
0.00206161
-0.00271131
0.00141231
-0.00280793
0.000683046
-0.00270233
-0.000209054
-0.0023736
-0.00118272
-0.00189899
-0.00201164
-0.00136182
-0.00257899
-0.00082997
-0.00284061
-0.000342413
-0.00282942
8.19668e-05
-0.00260057
0.000436554
-0.00219807
0.000746233
-0.00168906
0.00112042
-0.00111583
0.00187091
-0.000608254
0.00243594
-0.000557881
0.00202738
-0.00079652
0.0019033
-0.000860508
0.00179773
-0.000734836
0.00170882
-0.000590197
0.00166294
-0.000436062
0.0016507
-0.000270533
0.00176171
-0.000111158
0.00183311
-7.15592e-05
0.00189108
-5.81172e-05
0.00193559
-4.46678e-05
0.00195284
-1.74029e-05
0.00192209
3.05998e-05
0.00181902
0.000102912
0.0016117
0.000207174
0.00124629
0.000365253
0.00111924
0.000725977
0.000835569
0.001167
0.000399973
0.00155616
0.00233543
-0.000716798
0.00931792
-0.00123213
0.00408933
-0.00131692
0.00284194
-0.00136745
0.00211214
-0.00139027
0.00143512
-0.00131367
0.000606444
-0.0010527
-0.000470028
-0.00065556
-0.00157987
-0.000226425
-0.00244078
0.000165669
-0.00297109
0.000490177
-0.00316513
0.00074221
-0.00308145
0.00093247
-0.00279084
0.00108969
-0.0023553
0.00124393
-0.0018433
0.00144825
-0.00132015
0.00173101
-0.000891019
0.0018761
-0.000702974
0.00177887
-0.000699296
0.00160606
-0.000687695
0.00146279
-0.000591564
0.00134753
-0.000474944
0.00127081
-0.00035934
0.00124521
-0.000244937
0.00128897
-0.00015492
0.0013378
-0.000120386
0.0013911
-0.000111418
0.00144529
-9.88578e-05
0.0014898
-6.1913e-05
0.0015054
1.49997e-05
0.00147211
0.000136204
0.00137832
0.00030096
0.00122447
0.00051911
0.00109156
0.000858883
0.000949571
0.00130899
0.000634804
0.00187093
0.000565945
0.00240429
-0.000968189
0.00153393
-0.00143212
0.00046373
-0.0013853
-0.000626381
0.0103501
-0.000980527
0.00444347
-0.00055417
0.00241558
-0.000190567
0.00174853
8.76113e-05
0.00115694
0.000457502
0.000236551
0.000940141
-0.000952671
0.0013612
-0.00200093
0.00165523
-0.00273482
0.00181266
-0.00312853
0.0018589
-0.00321137
0.00182284
-0.0030454
0.00173337
-0.00270137
0.00162645
-0.00224839
0.00153529
-0.00175214
0.00148679
-0.00127164
0.00147564
-0.000879872
0.00142074
-0.000648082
0.0012763
-0.000554852
0.00108648
-0.000497879
0.000921253
-0.000426336
0.00079734
-0.000351032
0.000720203
-0.000282204
0.000696542
-0.000221275
0.000721994
-0.000180372
0.000772168
-0.00017056
0.000836624
-0.000175873
0.000910841
-0.000173075
0.000989286
-0.000140356
0.00105991
-5.562e-05
0.0011055
9.06087e-05
0.00112268
0.000283788
0.00111928
0.000522501
0.0011431
0.000835067
0.0012418
0.0012103
0.00142826
0.00168446
0.00186954
0.00196301
0.00212771
0.00127577
0.00173664
0.000854794
0.000407754
-0.000683002
0.011483
-0.000564819
0.00432528
0.000564882
0.00128587
0.00134907
0.000964343
0.00200897
0.000497036
0.00269187
-0.000446349
0.00324647
-0.00150728
0.00355037
-0.00230483
0.00360287
-0.00278733
0.00344693
-0.00297259
0.00314243
-0.00290688
0.00275019
-0.00265317
0.00232348
-0.00227466
0.0019091
-0.00183401
0.001543
-0.00138604
0.00124288
-0.000971527
0.00100788
-0.000644879
0.00080464
-0.000444838
0.000601161
-0.000351374
0.000409312
-0.000306031
0.000254541
-0.000271566
0.000146189
-0.00024268
8.4492e-05
-0.000220507
6.87905e-05
-0.000205574
9.14926e-05
-0.000203073
0.000137452
-0.000216519
0.000197533
-0.000235954
0.000270898
-0.000246439
0.000361729
-0.000231186
0.000474833
-0.000168723
0.000597309
-3.18658e-05
0.000719391
0.000161707
0.000852914
0.000388979
0.0010359
0.00065208
0.00131681
0.000929389
0.00175639
0.00124489
0.00242144
0.00129796
0.00296023
0.000736975
0.00298448
0.000830547
0.00345347
0.00258544
0.00940093
0.00328543
0.00362529
0.00367815
0.000893149
0.00433755
0.000304944
0.00512638
-0.000291801
0.00576858
-0.00108855
0.00601489
-0.00175359
0.00588381
-0.00217376
0.00544762
-0.00235115
0.00479612
-0.0023211
0.00402335
-0.00213411
0.00321365
-0.00184348
0.00242973
-0.00149074
0.00172076
-0.00112505
0.00112014
-0.000785422
0.000636391
-0.000487773
0.000274961
-0.000283449
1.04548e-05
-0.000180331
-0.000192039
-0.00014888
-0.000348914
-0.000149155
-0.000465485
-0.000154994
-0.000545213
-0.000162951
-0.000592579
-0.00017314
-0.000611827
-0.000186325
-0.000610085
-0.000204814
-0.000597378
-0.000229225
-0.000579302
-0.000254028
-0.000554791
-0.000270949
-0.000515443
-0.000270532
-0.00044251
-0.000241655
-0.000307371
-0.000167003
-0.000127983
-1.768e-05
8.20324e-05
0.000178965
0.000348863
0.00038525
0.000685138
0.000593115
0.00113273
0.000797299
0.00163098
0.000799708
0.00184842
0.000519535
0.00110529
0.00157368
0.00480718
0.00995283
0.0135699
0.012436
0.0020271
0.0117232
0.00101765
0.0110771
0.000354362
0.0102213
-0.000232806
0.00909949
-0.000631782
0.00781365
-0.00088793
0.00645727
-0.000994776
0.0051032
-0.000967038
0.00381759
-0.000848511
0.00265385
-0.000679739
0.00163459
-0.000471477
0.000783444
-0.000273906
0.000109342
-0.000111319
-0.000372887
-5.54356e-06
-0.000676669
2.03339e-05
-0.000866021
9.02122e-06
-0.000998834
-1.60663e-05
-0.00110369
-4.43003e-05
-0.00118796
-7.07217e-05
-0.00125535
-9.5565e-05
-0.00130992
-0.000118563
-0.00135621
-0.000140033
-0.00140094
-0.00016008
-0.00145222
-0.000177946
-0.0015175
-0.000188752
-0.00160389
-0.000184557
-0.00172001
-0.000154412
-0.00187615
-8.55099e-05
-0.00207765
3.44969e-05
-0.00231083
0.000215504
-0.0026034
0.000471536
-0.00303762
0.000819466
-0.00370334
0.00125884
-0.00466843
0.0017624
-0.00605034
0.00218162
-0.00773402
0.00220321
-0.00727623
0.00111589
-0.00219429
0.00468342
0.0035173
0.00383237
0.00186867
0.00424271
-5.60133e-05
0.00425871
-0.000248824
0.00386357
-0.000236644
0.00324083
-0.00026519
0.00249458
-0.000248527
0.0016927
-0.000165156
0.000879723
-3.55302e-05
0.000102412
9.75753e-05
-0.000555238
0.000186177
-0.00103202
0.000202882
-0.00134044
0.000197105
-0.00151933
0.000173348
-0.00162929
0.000130291
-0.00170679
8.65225e-05
-0.00177073
4.78724e-05
-0.00183154
1.65153e-05
-0.00189353
-8.73421e-06
-0.00195802
-3.10769e-05
-0.00202585
-5.07248e-05
-0.00209893
-6.69491e-05
-0.00218064
-7.83735e-05
-0.00227312
-8.54666e-05
-0.00237744
-8.44309e-05
-0.00249262
-6.93695e-05
-0.00261483
-3.22028e-05
-0.00273638
3.60365e-05
-0.00284519
0.000143313
-0.00293824
0.00030855
-0.00302325
0.00055655
-0.0031056
0.000901819
-0.00318106
0.0013343
-0.00320561
0.00178695
-0.00312949
0.0021055
-0.00277773
0.00185145
-0.00151474
-0.000147095
-0.00363725
-0.000537895
0.00411962
0.00030446
0.00102629
-4.9116e-05
0.000297551
-0.000392428
9.44855e-05
-0.000698923
6.98537e-05
-0.00104755
8.34472e-05
-0.00141443
0.000118353
-0.00174536
0.000165776
-0.00199167
0.000210789
-0.00213833
0.000244239
-0.0022088
0.000256647
-0.00224196
0.000236039
-0.00224719
0.00020234
-0.00224009
0.000166253
-0.00224041
0.000130613
-0.00225377
9.98767e-05
-0.00228029
7.43975e-05
-0.0023174
5.3625e-05
-0.00236329
3.71574e-05
-0.00241841
2.4052e-05
-0.00248136
1.2218e-05
-0.00254961
1.30659e-06
-0.00262032
-7.66018e-06
-0.00269149
-1.42938e-05
-0.00275896
-1.6964e-05
-0.0028157
-1.26219e-05
-0.00285086
2.9492e-06
-0.00285461
3.97919e-05
-0.0028172
0.000105908
-0.00271728
0.000208624
-0.00252385
0.00036312
-0.00221004
0.000588013
-0.00175602
0.000880277
-0.00113337
0.0011643
-0.000171994
0.00114412
0.0011355
0.000543951
0.00158853
-0.000600121
-0.00197011
-0.00721117
-0.0101048
-0.00594241
-0.00489616
-0.00458741
-0.004486
-0.00441188
-0.00432618
-0.00420722
-0.00404223
-0.00383347
-0.00359244
-0.00334015
-0.00310953
-0.00291354
-0.00275437
-0.00263142
-0.00253965
-0.0024737
-0.00242878
-0.00240052
-0.00238552
-0.00238245
-0.00239033
-0.00240716
-0.00243056
-0.00245653
-0.00247799
-0.00248369
-0.00245229
-0.00235451
-0.00215373
-0.00179816
-0.00121741
-0.000344131
0.000813397
0.00195072
0.00248763
0.00188007
)
;

boundaryField
{
    floor
    {
        type            calculated;
        value           nonuniform List<scalar> 
29
(
0
0
0
0
0
0
0
0
0
0
0
0
0
0
0
0
0
0
0
0
-3.56107e-06
-9.17594e-06
-1.40061e-05
-1.83874e-05
-1.40942e-06
-2.64415e-06
-7.50254e-06
-7.84027e-06
-7.14757e-06
)
;
    }
    ceiling
    {
        type            calculated;
        value           nonuniform List<scalar> 
43
(
-4.53726e-05
-4.40541e-05
-4.27434e-05
-1.9952e-05
-1.11961e-05
-6.91917e-06
-4.26066e-06
-2.24666e-06
-6.07943e-07
7.87954e-07
2.03787e-06
3.21167e-06
4.35357e-06
5.42465e-06
6.34851e-06
7.09047e-06
7.66532e-06
8.10695e-06
8.44683e-06
8.70776e-06
8.90533e-06
9.04978e-06
9.14512e-06
9.18813e-06
9.17394e-06
9.11118e-06
9.00134e-06
8.84539e-06
8.64419e-06
8.39883e-06
8.12828e-06
7.84304e-06
7.55143e-06
7.26432e-06
7.00147e-06
6.77652e-06
6.79962e-06
7.03815e-06
7.44047e-06
8.68235e-06
1.12838e-05
8.20843e-06
-6.44343e-05
)
;
    }
    sWall
    {
        type            calculated;
        value           uniform -0.000274994;
    }
    nWall
    {
        type            calculated;
        value           nonuniform List<scalar> 6(-4.70291e-05 -5.64094e-05 -6.12429e-05 -7.17818e-05 -7.86116e-05 -9.87138e-05);
    }
    sideWalls
    {
        type            empty;
        value           nonuniform 0();
    }
    glass1
    {
        type            calculated;
        value           nonuniform List<scalar> 9(-5.61516e-05 -0.000151181 -0.000231185 -0.000299279 -0.000357075 -0.00040581 -0.000449909 -0.000503366 -0.000563184);
    }
    glass2
    {
        type            calculated;
        value           nonuniform List<scalar> 2(-0.000248414 -0.000274762);
    }
    sun
    {
        type            calculated;
        value           uniform 0;
    }
    heatsource1
    {
        type            calculated;
        value           nonuniform List<scalar> 3(2.03922e-07 2.03885e-07 2.03901e-07);
    }
    heatsource2
    {
        type            calculated;
        value           nonuniform List<scalar> 4(5.10818e-08 5.12061e-08 0 0);
    }
    Table_master
    {
        type            calculated;
        value           nonuniform List<scalar> 9(-1.52943e-07 -1.53022e-07 -1.5305e-07 -1.53069e-07 -1.53082e-07 -1.53091e-07 -1.53094e-07 -1.53088e-07 -1.53055e-07);
    }
    Table_slave
    {
        type            calculated;
        value           nonuniform List<scalar> 9(1.52822e-07 1.52848e-07 1.52831e-07 1.52818e-07 1.52814e-07 1.52818e-07 1.52834e-07 1.52877e-07 1.52956e-07);
    }
    inlet
    {
        type            calculated;
        value           uniform -0.00617364;
    }
    outlet
    {
        type            calculated;
        value           nonuniform List<scalar> 2(0.00753154 0.00293766);
    }
}


// ************************************************************************* //
