// -*- C++ -*-
// File generated by PyFoam - sorry for the ugliness

FoamFile
{
 version 2.0;
 format ascii;
 class volScalarField;
 location "320";
 object T;
}

dimensions [ 0 0 0 1 0 0 0 ];

internalField nonuniform List<scalar> 459
(
  302.18
  302.108
  302.106
  302.107
  302.108
  302.11
  302.113
  302.121
  302.143
  302.179
  302.198
  302.209
  302.214
  302.218
  302.215
  302.531
  302.513
  302.499
  302.512
  302.529
  302.543
  302.554
  302.562
  302.569
  302.576
  302.584
  302.591
  302.598
  302.606
  302.614
  302.623
  302.633
  302.647
  302.67
  302.219
  302.114
  302.106
  302.104
  302.102
  302.1
  302.099
  302.108
  302.14
  302.189
  302.222
  302.242
  302.249
  302.248
  302.239
  302.244
  302.252
  302.524
  302.48
  302.479
  302.502
  302.532
  302.558
  302.572
  302.583
  302.593
  302.603
  302.613
  302.623
  302.632
  302.642
  302.651
  302.657
  302.663
  302.669
  302.688
  302.26
  302.123
  302.108
  302.105
  302.103
  302.097
  302.085
  302.089
  302.131
  302.194
  302.244
  302.275
  302.286
  302.284
  302.274
  302.268
  302.264
  302.449
  302.423
  302.453
  302.5
  302.549
  302.589
  302.595
  302.604
  302.613
  302.623
  302.634
  302.645
  302.656
  302.668
  302.677
  302.686
  302.688
  302.689
  302.7
  302.303
  302.136
  302.117
  302.117
  302.117
  302.105
  302.076
  302.07
  302.121
  302.199
  302.269
  302.315
  302.332
  302.329
  302.316
  302.301
  302.286
  302.294
  302.325
  302.378
  302.451
  302.529
  302.599
  302.655
  302.701
  302.737
  302.767
  302.794
  302.819
  302.842
  302.864
  302.884
  302.9
  302.835
  302.777
  302.735
  302.722
  302.349
  302.156
  302.132
  302.138
  302.147
  302.123
  302.071
  302.056
  302.11
  302.206
  302.302
  302.366
  302.392
  302.389
  302.372
  302.352
  302.339
  302.353
  302.395
  302.462
  302.543
  302.625
  302.7
  302.763
  302.817
  302.859
  302.892
  302.921
  302.944
  302.962
  302.974
  302.98
  302.975
  302.933
  302.866
  302.802
  302.76
  302.768
  302.783
  302.832
  302.393
  302.183
  302.157
  302.165
  302.18
  302.132
  302.064
  302.042
  302.104
  302.224
  302.348
  302.434
  302.469
  302.468
  302.449
  302.43
  302.426
  302.457
  302.516
  302.593
  302.677
  302.757
  302.828
  302.886
  302.933
  302.97
  303
  303.023
  303.04
  303.05
  303.055
  303.052
  303.04
  303.006
  302.95
  302.889
  302.833
  302.819
  302.819
  302.849
  302.439
  302.228
  302.204
  302.217
  302.204
  302.127
  302.041
  302.022
  302.106
  302.26
  302.418
  302.525
  302.568
  302.568
  302.55
  302.54
  302.554
  302.602
  302.672
  302.751
  302.83
  302.9
  302.96
  303.006
  303.042
  303.069
  303.089
  303.103
  303.111
  303.114
  303.111
  303.103
  303.088
  303.059
  303.016
  302.967
  302.911
  302.879
  302.861
  302.869
  302.503
  302.34
  302.311
  302.299
  302.213
  302.08
  301.982
  301.993
  302.129
  302.333
  302.528
  302.647
  302.689
  302.688
  302.68
  302.685
  302.716
  302.776
  302.848
  302.918
  302.983
  303.036
  303.076
  303.106
  303.126
  303.139
  303.146
  303.149
  303.146
  303.14
  303.131
  303.119
  303.104
  303.08
  303.047
  303.01
  302.965
  302.932
  302.908
  302.949
  302.593
  302.513
  302.461
  302.331
  302.093
  301.904
  301.856
  301.971
  302.215
  302.48
  302.702
  302.792
  302.822
  302.828
  302.837
  302.859
  302.9
  302.956
  303.015
  303.066
  303.108
  303.138
  303.158
  303.169
  303.173
  303.171
  303.165
  303.154
  303.141
  303.124
  303.105
  303.085
  303.065
  303.045
  303.027
  303.012
  303.004
  303.006
  303.015
  303.05
  300.519
  300.65
  300.908
  301.278
  301.686
  302.098
  302.52
  302.772
  302.891
  302.941
  302.963
  302.979
  302.999
  303.027
  303.063
  303.103
  303.14
  303.168
  303.186
  303.195
  303.197
  303.193
  303.184
  303.173
  303.159
  303.144
  303.127
  303.111
  303.094
  303.078
  303.064
  303.051
  303.04
  303.033
  303.032
  303.041
  303.064
  303.143
  300.957
  301.488
  301.923
  302.225
  302.485
  302.707
  302.877
  302.979
  303.036
  303.067
  303.088
  303.106
  303.126
  303.147
  303.17
  303.191
  303.206
  303.215
  303.217
  303.214
  303.207
  303.197
  303.185
  303.172
  303.158
  303.144
  303.131
  303.117
  303.105
  303.092
  303.08
  303.07
  303.06
  303.054
  303.051
  303.057
  303.085
  303.129
  302.116
  302.097
  302.09
  302.449
  302.694
  302.849
  302.953
  303.031
  303.088
  303.127
  303.152
  303.17
  303.184
  303.196
  303.206
  303.215
  303.222
  303.225
  303.225
  303.221
  303.213
  303.203
  303.192
  303.18
  303.168
  303.156
  303.144
  303.133
  303.123
  303.114
  303.105
  303.098
  303.09
  303.084
  303.078
  303.073
  303.07
  303.078
  303.098
  303.148
)
;

boundaryField
{
  floor
  {
    type wallHeatTransfer;
    Tinf uniform 300.35;
    alphaWall uniform 0.24;
    value nonuniform List<scalar> 29
(
  301.975
  302.132
  302.182
  302.202
  302.225
  302.239
  302.246
  302.241
  302.233
  302.223
  302.214
  302.206
  302.197
  302.19
  302.182
  302.175
  302.168
  302.159
  302.142
  302.123
  302.123
  302.179
  302.211
  302.258
  301.975
  302.132
  302.205
  302.157
  302.065
)
;
  }
  ceiling
  {
    type wallHeatTransfer;
    Tinf uniform 300.35;
    alphaWall uniform 0.24;
    value nonuniform List<scalar> 43
(
  301.983
  301.972
  301.973
  302.321
  302.545
  302.681
  302.77
  302.833
  302.877
  302.904
  302.922
  302.936
  302.948
  302.959
  302.969
  302.977
  302.984
  302.987
  302.985
  302.981
  302.973
  302.963
  302.952
  302.94
  302.928
  302.916
  302.904
  302.891
  302.878
  302.865
  302.852
  302.839
  302.827
  302.815
  302.806
  302.798
  302.793
  302.795
  302.814
  302.855
  302.447
  302.389
  300.912
)
;
  }
  sWall
  {
    type wallHeatTransfer;
    Tinf uniform 306.167;
    alphaWall uniform 0.36;
    value uniform 302.56;
  }
  nWall
  {
    type wallHeatTransfer;
    Tinf uniform 305.15;
    alphaWall uniform 0.36;
    value nonuniform List<scalar> 6
(
  303.417
  303.343
  303.307
  303.423
  303.39
  303.448
)
;
  }
  sideWalls
  {
    type empty;
  }
  glass1
  {
    type wallHeatTransfer;
    Tinf uniform 306.167;
    alphaWall uniform 4.3;
    value nonuniform List<scalar> 9
(
  305.025
  304.879
  304.778
  304.696
  304.623
  304.554
  304.506
  304.522
  304.58
)
;
  }
  glass2
  {
    type wallHeatTransfer;
    Tinf uniform 305.15;
    alphaWall uniform 4.3;
    value nonuniform List<scalar> 2
(
  304.485
  304.487
)
;
  }
  sun
  {
    type wallHeatTransfer;
    Tinf uniform 300.35;
    alphaWall uniform 0.24;
    value nonuniform List<scalar> 14
(
  301.958
  301.912
  301.918
  301.927
  301.936
  301.945
  301.954
  301.965
  301.986
  302.012
  302.02
  302.019
  302.01
  301.997
)
;
  }
  heatsource1
  {
    type fixedGradient;
    gradient uniform 0;
  }
  heatsource2
  {
    type fixedGradient;
    gradient uniform 0;
  }
  Table_master
  {
    type zeroGradient;
  }
  Table_slave
  {
    type zeroGradient;
  }
  inlet
  {
    type fixedValue;
    value uniform 300.15;
  }
  outlet
  {
    type zeroGradient;
  }
} 	// ************************************************************************* //

