/*--------------------------------*- C++ -*----------------------------------*\
  =========                 |
  \\      /  F ield         | OpenFOAM: The Open Source CFD Toolbox
   \\    /   O peration     | Website:  https://openfoam.org
    \\  /    A nd           | Version:  6
     \\/     M anipulation  |
\*---------------------------------------------------------------------------*/
FoamFile
{
    version     2.0;
    format      ascii;
    class       volScalarField;
    location    "700";
    object      epsilon;
}
// * * * * * * * * * * * * * * * * * * * * * * * * * * * * * * * * * * * * * //

dimensions      [0 2 -3 0 0 0 0];

internalField   nonuniform List<scalar> 
459
(
0.00482274
0.00450251
0.00407144
0.00369116
0.00338236
0.00312603
0.00290779
0.00271536
0.00253777
0.00236635
0.00219354
0.00201135
0.00180891
0.00156583
0.001281
5.32197e-06
6.47999e-06
7.12716e-06
5.40203e-06
3.94253e-06
3.07393e-06
2.31569e-06
1.82471e-06
1.78704e-06
1.83106e-06
2.12283e-06
2.70958e-06
3.78493e-06
5.66831e-06
8.33174e-06
1.07507e-05
1.18523e-05
1.29219e-05
9.37682e-06
0.00712339
0.00551419
0.00437958
0.00341334
0.00277476
0.00235486
0.00206333
0.00185146
0.00169244
0.00157089
0.00147731
0.00140313
0.00133455
0.00123442
0.001087
0.00111436
0.000770096
1.9417e-05
2.13635e-05
1.67517e-05
1.25698e-05
9.70314e-06
7.11571e-06
3.65471e-06
2.84522e-06
2.68667e-06
3.40549e-06
5.00102e-06
7.73564e-06
1.20113e-05
1.81517e-05
2.60035e-05
3.1219e-05
3.35226e-05
4.6016e-05
2.16848e-05
0.00870402
0.00683642
0.00465052
0.00308937
0.00227063
0.00182431
0.00156613
0.00140505
0.00128919
0.00120169
0.00113518
0.00108612
0.00104894
0.000997893
0.000934685
0.000952344
0.000788848
8.51978e-05
6.6552e-05
2.95942e-05
2.08412e-05
1.6628e-05
1.4415e-05
1.28672e-05
5.57724e-06
4.66508e-06
7.28036e-06
1.07561e-05
1.55295e-05
2.24927e-05
3.32296e-05
5.09779e-05
3.74387e-05
4.14634e-05
4.81116e-05
4.55632e-05
0.00996163
0.00836044
0.00443739
0.00224154
0.0013915
0.00103655
0.000884517
0.000833008
0.000827339
0.000833192
0.000837709
0.000839519
0.000840165
0.000826357
0.00081212
0.000847772
0.000807034
0.000300221
0.000151313
3.93935e-05
2.86568e-05
2.83137e-05
3.05309e-05
3.54287e-05
4.61412e-05
5.16585e-05
5.8608e-05
6.52714e-05
7.26987e-05
8.23486e-05
9.636e-05
0.000118616
0.000160073
9.93622e-05
0.000114575
0.000136034
0.000169781
0.0111265
0.00997844
0.00386899
0.001345
0.000739261
0.000576508
0.000544882
0.000556246
0.00058373
0.000613921
0.000641206
0.000665234
0.000686502
0.000693166
0.000703236
0.000750329
0.000763664
0.000311934
7.29189e-05
3.4403e-05
3.06532e-05
3.2035e-05
3.46096e-05
3.79614e-05
4.21234e-05
4.68455e-05
5.24665e-05
5.93326e-05
6.82599e-05
8.04177e-05
9.73185e-05
0.000120704
0.000151884
0.00018785
0.000241549
0.000308798
0.000356745
0.000541175
0.000364009
0.000236971
0.0123819
0.0116415
0.00375431
0.00074366
0.000525171
0.0004374
0.000430597
0.000443857
0.000463953
0.00048887
0.000516153
0.000544503
0.000571444
0.000587834
0.000612127
0.0006617
0.000686309
0.000309763
8.34629e-05
4.72232e-05
4.47106e-05
4.761e-05
5.15247e-05
5.58986e-05
6.10075e-05
6.65288e-05
7.29784e-05
8.12876e-05
9.28168e-05
0.000109549
0.000134121
0.000169703
0.000219728
0.000287118
0.000373753
0.000473903
0.000552991
0.000559013
0.000336621
0.000282968
0.013976
0.0134286
0.0059251
0.000852526
0.000504851
0.000376409
0.00035822
0.00036824
0.000386485
0.000406776
0.000430562
0.000456975
0.000483721
0.000507121
0.000538895
0.000586666
0.00060196
0.000285484
9.69164e-05
7.30696e-05
7.88405e-05
8.7527e-05
9.46928e-05
9.96871e-05
0.000103279
0.000107132
0.000112454
0.000120414
0.000132832
0.000152529
0.000183255
0.000228772
0.000292513
0.000376544
0.000478993
0.000587736
0.00067114
0.000689178
0.000611768
0.000282463
0.0164595
0.018184
0.0145752
0.00155458
0.000488075
0.00031132
0.0002901
0.000303192
0.000325604
0.000348097
0.0003721
0.000398376
0.000426157
0.000453989
0.000486142
0.000524097
0.000518936
0.000254532
0.00012479
0.00012961
0.000157838
0.000182511
0.000192883
0.000193468
0.000190439
0.000187881
0.000187908
0.000191934
0.000202072
0.000222329
0.00025949
0.000318398
0.000402231
0.000509643
0.000633537
0.000768293
0.000920421
0.00110589
0.001325
0.000942353
0.0213942
0.0307394
0.0483051
0.00593417
0.000607871
0.000308438
0.000268314
0.000273312
0.000292776
0.000318464
0.000346084
0.000375941
0.000406998
0.000436293
0.000461257
0.000479726
0.000452389
0.000240221
0.000189126
0.00025131
0.000333217
0.000378845
0.000391006
0.000381998
0.000364769
0.000347719
0.000334735
0.000327147
0.000325847
0.000333042
0.000354835
0.00039404
0.000456709
0.000551481
0.000688467
0.000868978
0.00103923
0.0012676
0.00272922
0.00144282
0.111125
0.0134824
0.00112354
0.000440391
0.000343799
0.000330848
0.000345979
0.000370174
0.000400364
0.000434635
0.000468873
0.000495607
0.000506244
0.000503215
0.000481736
0.000309426
0.000356702
0.000516983
0.000665384
0.000755645
0.000784265
0.00077052
0.000736675
0.000698625
0.000664787
0.00063824
0.000619117
0.000606164
0.000598588
0.000596107
0.00060202
0.000622294
0.000655819
0.000690624
0.000725048
0.000791473
0.00123354
0.00147294
0.00809934
0.00197192
0.00154937
0.000763188
0.000544265
0.000437247
0.000389398
0.000382864
0.00040004
0.00043105
0.000467807
0.00049819
0.00050653
0.000494361
0.000434583
0.000415691
0.00059492
0.000917566
0.0012404
0.00146016
0.0015548
0.00155701
0.00151121
0.00145068
0.001393
0.00134348
0.00129986
0.00125698
0.00120387
0.00112579
0.00103902
0.000971859
0.000943062
0.00093953
0.000948331
0.000967174
0.00175406
0.00138811
0.00111134
0.00104542
0.00152913
0.000542585
0.00057256
0.000577596
0.000594593
0.00061178
0.000629873
0.000650045
0.000668715
0.00068792
0.000706942
0.000722797
0.000729039
0.000704135
0.000647128
0.000601493
0.000586628
0.000602785
0.000658409
0.0007313
0.00079862
0.000845957
0.000869956
0.000874958
0.000868162
0.00085622
0.000843698
0.000832858
0.000825279
0.000825188
0.000820043
0.000800871
0.000767816
0.000735206
0.000693299
0.000634799
0.000650821
0.000505276
)
;

boundaryField
{
    floor
    {
        Cmu             0.09;
        kappa           0.41;
        E               9.8;
        type            epsilonWallFunction;
        value           nonuniform List<scalar> 
29
(
0.001281
5.32197e-06
6.47999e-06
7.12716e-06
5.40203e-06
3.94253e-06
3.07393e-06
2.31569e-06
1.82471e-06
1.78704e-06
1.83106e-06
2.12283e-06
2.70958e-06
3.78493e-06
5.66831e-06
8.33174e-06
1.07507e-05
1.18523e-05
1.29219e-05
9.37682e-06
9.37682e-06
2.16848e-05
4.55632e-05
0.000169781
0.001281
5.32197e-06
1.9417e-05
8.51978e-05
0.000300221
)
;
    }
    ceiling
    {
        Cmu             0.09;
        kappa           0.41;
        E               9.8;
        type            epsilonWallFunction;
        value           nonuniform List<scalar> 
43
(
0.00111134
0.00104542
0.00152913
0.000542585
0.00057256
0.000577596
0.000594593
0.00061178
0.000629873
0.000650045
0.000668715
0.00068792
0.000706942
0.000722797
0.000729039
0.000704135
0.000647128
0.000601493
0.000586628
0.000602785
0.000658409
0.0007313
0.00079862
0.000845957
0.000869956
0.000874958
0.000868162
0.00085622
0.000843698
0.000832858
0.000825279
0.000825188
0.000820043
0.000800871
0.000767816
0.000735206
0.000693299
0.000634799
0.000650821
0.000505276
0.0213942
0.0307394
0.00809934
)
;
    }
    sWall
    {
        Cmu             0.09;
        kappa           0.41;
        E               9.8;
        type            epsilonWallFunction;
        value           uniform 0.00111134;
    }
    nWall
    {
        Cmu             0.09;
        kappa           0.41;
        E               9.8;
        type            epsilonWallFunction;
        value           nonuniform List<scalar> 6(0.000236971 0.000282968 0.000282463 0.00147294 0.00138811 0.000505276);
    }
    sideWalls
    {
        type            empty;
    }
    glass1
    {
        Cmu             0.09;
        kappa           0.41;
        E               9.8;
        type            epsilonWallFunction;
        value           nonuniform List<scalar> 9(0.00482274 0.00712339 0.00870402 0.00996163 0.0111265 0.0123819 0.013976 0.0164595 0.0213942);
    }
    glass2
    {
        Cmu             0.09;
        kappa           0.41;
        E               9.8;
        type            epsilonWallFunction;
        value           nonuniform List<scalar> 2(0.000942353 0.00144282);
    }
    sun
    {
        Cmu             0.09;
        kappa           0.41;
        E               9.8;
        type            epsilonWallFunction;
        value           nonuniform List<scalar> 
14
(
0.00482274
0.00450251
0.00407144
0.00369116
0.00338236
0.00312603
0.00290779
0.00271536
0.00253777
0.00236635
0.00219354
0.00201135
0.00180891
0.00156583
)
;
    }
    heatsource1
    {
        Cmu             0.09;
        kappa           0.41;
        E               9.8;
        type            epsilonWallFunction;
        value           nonuniform List<scalar> 3(0.000541175 0.000364009 0.000236971);
    }
    heatsource2
    {
        Cmu             0.09;
        kappa           0.41;
        E               9.8;
        type            epsilonWallFunction;
        value           nonuniform List<scalar> 4(0.00111436 0.000770096 0.000770096 0.000788848);
    }
    Table_master
    {
        Cmu             0.09;
        kappa           0.41;
        E               9.8;
        type            epsilonWallFunction;
        value           nonuniform List<scalar> 9(1.28672e-05 5.57724e-06 4.66508e-06 7.28036e-06 1.07561e-05 1.55295e-05 2.24927e-05 3.32296e-05 5.09779e-05);
    }
    Table_slave
    {
        Cmu             0.09;
        kappa           0.41;
        E               9.8;
        type            epsilonWallFunction;
        value           nonuniform List<scalar> 9(4.61412e-05 5.16585e-05 5.8608e-05 6.52714e-05 7.26987e-05 8.23486e-05 9.636e-05 0.000118616 0.000160073);
    }
    inlet
    {
        type            turbulentMixingLengthDissipationRateInlet;
        mixingLength    0.01;
        phi             phi;
        k               k;
        value           uniform 0.111125;
    }
    outlet
    {
        type            zeroGradient;
    }
}


// ************************************************************************* //
