/*--------------------------------*- C++ -*----------------------------------*\
  =========                 |
  \\      /  F ield         | OpenFOAM: The Open Source CFD Toolbox
   \\    /   O peration     | Website:  https://openfoam.org
    \\  /    A nd           | Version:  6
     \\/     M anipulation  |
\*---------------------------------------------------------------------------*/
FoamFile
{
    version     2.0;
    format      ascii;
    class       volScalarField;
    location    "200";
    object      epsilon;
}
// * * * * * * * * * * * * * * * * * * * * * * * * * * * * * * * * * * * * * //

dimensions      [0 2 -3 0 0 0 0];

internalField   nonuniform List<scalar> 
459
(
0.000580464
0.000772558
0.000836133
0.000972628
0.00111725
0.00127556
0.00144319
0.00156986
0.00162456
0.00158652
0.00145212
0.0012278
0.000848565
0.000502914
0.000281418
5.39662e-05
8.91243e-05
0.000139174
0.000168174
0.000167095
0.00015314
0.000126429
0.000101618
8.21613e-05
6.73221e-05
5.59406e-05
4.71075e-05
4.01292e-05
3.45405e-05
2.99326e-05
2.5938e-05
2.22105e-05
1.90657e-05
1.41608e-05
0.00137338
0.0018635
0.000722039
0.000714409
0.000770976
0.00086903
0.00100241
0.00112341
0.00118771
0.00117053
0.00107194
0.000915008
0.000708494
0.00052374
0.000382959
0.000592715
0.00025601
5.07847e-05
0.00010518
0.000142314
0.000149702
0.000142604
0.000131527
0.000131056
0.000106405
8.32986e-05
6.51212e-05
5.13366e-05
4.0956e-05
3.30748e-05
2.70571e-05
2.25158e-05
1.96347e-05
1.82404e-05
3.04294e-05
2.37563e-05
0.00239836
0.00424365
0.000862942
0.000699422
0.00077611
0.000929966
0.00112541
0.00128365
0.00135517
0.00133178
0.00122091
0.00105079
0.000853233
0.000675879
0.000528091
0.000473501
0.000618944
0.000195446
0.000206515
0.00020043
0.000186501
0.000168158
0.000159772
0.000336684
0.000222077
0.000151615
0.000107417
7.88019e-05
5.96552e-05
4.64557e-05
3.72799e-05
3.1135e-05
2.32905e-05
1.93532e-05
4.86715e-05
3.27076e-05
0.00374735
0.00850208
0.0013019
0.000743829
0.00083339
0.00108158
0.00136786
0.0015441
0.0015954
0.00154702
0.00140503
0.00120592
0.000989079
0.000789585
0.000633177
0.000535018
0.00052526
0.000943466
0.000590884
0.000402246
0.000303784
0.000245575
0.000206321
0.000193128
0.000492682
0.000363615
0.000283193
0.000227361
0.000186273
0.000153175
0.000124663
9.89303e-05
7.44622e-05
4.07371e-05
2.56151e-05
7.65927e-05
4.12074e-05
0.00555356
0.0149183
0.00246705
0.000937584
0.00100407
0.00147917
0.00183074
0.0019574
0.00194626
0.00184284
0.00165427
0.00139953
0.00111569
0.000853296
0.000649539
0.000516665
0.00045813
0.000463513
0.000409441
0.000356046
0.000310191
0.000267807
0.000227996
0.000196095
0.000191545
0.000175473
0.000158348
0.000140873
0.000123507
0.000106131
8.91271e-05
7.3093e-05
5.82978e-05
4.15405e-05
2.92799e-05
5.79925e-05
4.26729e-05
7.16602e-05
0.000125836
0.000178336
0.00802
0.0220947
0.00545249
0.00182974
0.00175457
0.00249105
0.00263791
0.00258438
0.00245562
0.00226475
0.00199326
0.00164522
0.00126228
0.000913629
0.000651126
0.000488711
0.000416051
0.000397592
0.000384743
0.000361381
0.00032531
0.000281734
0.000237123
0.000198295
0.000172525
0.000155765
0.00014243
0.00012878
0.000113913
9.79873e-05
8.20082e-05
6.70529e-05
5.39723e-05
4.23193e-05
3.51454e-05
4.52759e-05
4.59468e-05
5.63674e-05
0.000234599
0.000204611
0.0107347
0.0264112
0.0111844
0.00563639
0.00498044
0.00441747
0.00390609
0.0034938
0.00315926
0.00282673
0.00242628
0.00194421
0.00142747
0.000973319
0.000650965
0.000470653
0.000401642
0.000388852
0.000380599
0.000355079
0.000314314
0.000267146
0.0002218
0.000184698
0.000160109
0.000146548
0.000137457
0.000129014
0.000120095
0.000109717
9.80233e-05
8.60523e-05
7.50144e-05
6.54796e-05
6.25207e-05
7.08536e-05
9.12558e-05
0.000150627
0.000342594
0.000324128
0.0112716
0.0274341
0.0160702
0.011414
0.00855971
0.00659821
0.00534233
0.00456133
0.00402484
0.00352567
0.00294143
0.00226258
0.00155208
0.000968628
0.000598983
0.000425022
0.000374644
0.000361303
0.000343182
0.000310303
0.000267471
0.000224343
0.000187662
0.000161132
0.000145582
0.000138752
0.000137194
0.000139377
0.000145343
0.000155074
0.000166313
0.000176949
0.000191232
0.000216765
0.000264785
0.000404177
0.000754294
0.00146772
0.00426869
0.00117127
0.0103904
0.0169868
0.0134127
0.0103604
0.00815646
0.00681533
0.00603042
0.00551786
0.00502144
0.00432834
0.00341383
0.00240063
0.0013658
0.000718245
0.000460956
0.000360081
0.00032152
0.000298709
0.000272062
0.00023922
0.000204898
0.000174044
0.000150089
0.000134454
0.000126806
0.000125757
0.000130359
0.000141003
0.000159134
0.000186916
0.000227415
0.000285231
0.000366862
0.000486627
0.000655178
0.000876444
0.00112581
0.00134333
0.00151395
0.000946908
0.00306507
0.00487135
0.00673671
0.00721208
0.00710679
0.00651779
0.00542064
0.00367708
0.00217048
0.00124956
0.000727686
0.000458808
0.000338309
0.000282933
0.000252024
0.000226464
0.000199869
0.000173113
0.000149196
0.000130179
0.000116734
0.000108538
0.000104917
0.000105455
0.000110317
0.000120374
0.000137131
0.000162826
0.000200728
0.000255233
0.00033238
0.000439041
0.000577512
0.00073531
0.000875583
0.000952375
0.000887677
0.000555902
0.00286667
0.00789612
0.00788257
0.00614172
0.00479351
0.00357286
0.00249534
0.00163102
0.00100451
0.000630861
0.00042898
0.000324958
0.000272134
0.000242689
0.000222846
0.000206407
0.00019147
0.00017816
0.000167013
0.000158263
0.000151813
0.000147414
0.00014487
0.000144214
0.000145848
0.000150725
0.000160437
0.000177224
0.000204104
0.000245124
0.000305339
0.000389206
0.000496043
0.000620287
0.000702696
0.000785678
0.00080858
0.00058883
0.00213147
0.00254216
0.00286752
0.00363424
0.00308228
0.00260071
0.00223004
0.00181171
0.00139218
0.00103153
0.000758351
0.000579265
0.00046992
0.000400939
0.000352599
0.000313897
0.00027899
0.000245774
0.000214852
0.000187879
0.000166043
0.000149505
0.000137696
0.000129861
0.000125464
0.00012438
0.000126893
0.000133604
0.000145335
0.000163102
0.000188187
0.00022235
0.000268047
0.000328336
0.000405287
0.000516797
0.000539313
0.000486466
0.000407366
0.000328014
)
;

boundaryField
{
    floor
    {
        Cmu             0.09;
        kappa           0.41;
        E               9.8;
        type            epsilonWallFunction;
        value           nonuniform List<scalar> 
29
(
0.000281418
5.39662e-05
8.91243e-05
0.000139174
0.000168174
0.000167095
0.00015314
0.000126429
0.000101618
8.21613e-05
6.73221e-05
5.59406e-05
4.71075e-05
4.01292e-05
3.45405e-05
2.99326e-05
2.5938e-05
2.22105e-05
1.90657e-05
1.41608e-05
1.41608e-05
2.37563e-05
3.27076e-05
4.12074e-05
0.000281418
5.39662e-05
5.07847e-05
0.000195446
0.000943466
)
;
    }
    ceiling
    {
        Cmu             0.09;
        kappa           0.41;
        E               9.8;
        type            epsilonWallFunction;
        value           nonuniform List<scalar> 
43
(
0.00213147
0.00254216
0.00286752
0.00363424
0.00308228
0.00260071
0.00223004
0.00181171
0.00139218
0.00103153
0.000758351
0.000579265
0.00046992
0.000400939
0.000352599
0.000313897
0.00027899
0.000245774
0.000214852
0.000187879
0.000166043
0.000149505
0.000137696
0.000129861
0.000125464
0.00012438
0.000126893
0.000133604
0.000145335
0.000163102
0.000188187
0.00022235
0.000268047
0.000328336
0.000405287
0.000516797
0.000539313
0.000486466
0.000407366
0.000328014
0.0103904
0.0169868
0.00286667
)
;
    }
    sWall
    {
        Cmu             0.09;
        kappa           0.41;
        E               9.8;
        type            epsilonWallFunction;
        value           uniform 0.00213147;
    }
    nWall
    {
        Cmu             0.09;
        kappa           0.41;
        E               9.8;
        type            epsilonWallFunction;
        value           nonuniform List<scalar> 6(0.000178336 0.000204611 0.000324128 0.000555902 0.00058883 0.000328014);
    }
    sideWalls
    {
        type            empty;
    }
    glass1
    {
        Cmu             0.09;
        kappa           0.41;
        E               9.8;
        type            epsilonWallFunction;
        value           nonuniform List<scalar> 9(0.000580464 0.00137338 0.00239836 0.00374735 0.00555356 0.00802 0.0107347 0.0112716 0.0103904);
    }
    glass2
    {
        Cmu             0.09;
        kappa           0.41;
        E               9.8;
        type            epsilonWallFunction;
        value           nonuniform List<scalar> 2(0.00117127 0.000946908);
    }
    sun
    {
        Cmu             0.09;
        kappa           0.41;
        E               9.8;
        type            epsilonWallFunction;
        value           nonuniform List<scalar> 
14
(
0.000580464
0.000772558
0.000836133
0.000972628
0.00111725
0.00127556
0.00144319
0.00156986
0.00162456
0.00158652
0.00145212
0.0012278
0.000848565
0.000502914
)
;
    }
    heatsource1
    {
        Cmu             0.09;
        kappa           0.41;
        E               9.8;
        type            epsilonWallFunction;
        value           nonuniform List<scalar> 3(7.16602e-05 0.000125836 0.000178336);
    }
    heatsource2
    {
        Cmu             0.09;
        kappa           0.41;
        E               9.8;
        type            epsilonWallFunction;
        value           nonuniform List<scalar> 4(0.000592715 0.00025601 0.00025601 0.000618944);
    }
    Table_master
    {
        Cmu             0.09;
        kappa           0.41;
        E               9.8;
        type            epsilonWallFunction;
        value           nonuniform List<scalar> 9(0.000336684 0.000222077 0.000151615 0.000107417 7.88019e-05 5.96552e-05 4.64557e-05 3.72799e-05 3.1135e-05);
    }
    Table_slave
    {
        Cmu             0.09;
        kappa           0.41;
        E               9.8;
        type            epsilonWallFunction;
        value           nonuniform List<scalar> 9(0.000492682 0.000363615 0.000283193 0.000227361 0.000186273 0.000153175 0.000124663 9.89303e-05 7.44622e-05);
    }
    inlet
    {
        type            turbulentMixingLengthDissipationRateInlet;
        mixingLength    0.01;
        phi             phi;
        k               k;
        value           uniform 0.000101881;
    }
    outlet
    {
        type            zeroGradient;
    }
}


// ************************************************************************* //
