/*--------------------------------*- C++ -*----------------------------------*\
  =========                 |
  \\      /  F ield         | OpenFOAM: The Open Source CFD Toolbox
   \\    /   O peration     | Website:  https://openfoam.org
    \\  /    A nd           | Version:  6
     \\/     M anipulation  |
\*---------------------------------------------------------------------------*/
FoamFile
{
    version     2.0;
    format      ascii;
    class       surfaceScalarField;
    location    "700";
    object      phi;
}
// * * * * * * * * * * * * * * * * * * * * * * * * * * * * * * * * * * * * * //

dimensions      [1 0 -1 0 0 0 0];

internalField   nonuniform List<scalar> 
852
(
-0.00287534
0.00293302
-0.00379746
0.000922136
-0.00455201
0.000754557
-0.005181
0.000629001
-0.00565575
0.000474762
-0.00595761
0.000301865
-0.00606442
0.000106827
-0.00595018
-0.000114232
-0.00559381
-0.00035636
-0.00500245
-0.000591353
-0.0042192
-0.000783243
-0.00331142
-0.000907766
-0.00234014
-0.000971274
-0.00129337
-0.00104676
-0.00129186
-0.000511873
0.000514861
-5.56661e-05
-0.000456192
0.00053899
-0.000594642
0.00092788
-0.000388877
0.001156
-0.000228107
0.00128045
-0.00012444
0.00133867
-5.82021e-05
0.00136488
-2.61961e-05
0.00137609
-1.11923e-05
0.00137832
-2.21466e-06
0.00137415
4.19448e-06
0.00136425
9.91924e-06
0.00134642
1.78488e-05
0.00131268
3.3766e-05
0.00124209
7.06059e-05
0.00110063
0.000141492
0.000881723
0.000218927
0.000654868
0.00022688
0.000659016
-0.00205378
0.00514175
-0.00299283
0.00186119
-0.00378502
0.00154677
-0.00440627
0.00125026
-0.00487042
0.000938917
-0.00517218
0.000603638
-0.00529024
0.000224899
-0.00519592
-0.000208544
-0.00487272
-0.000679551
-0.00433863
-0.00112543
-0.00364883
-0.00147304
-0.00287719
-0.00167939
-0.00210346
-0.00174499
-0.00145287
-0.00169735
-0.00127062
-0.0014741
-0.000407825
-0.000862835
-0.000407865
0.000690521
-0.00016815
0.00100529
-0.000770952
0.00116226
-0.000751597
0.0013216
-0.000548201
0.0014323
-0.000338794
0.00148266
-0.000174791
0.00148377
-5.92939e-05
0.00148471
-2.71207e-05
0.00148623
-1.27053e-05
0.0014875
-3.4654e-06
0.00148818
3.53541e-06
0.00148799
1.01204e-05
0.001486
1.98619e-05
0.00147854
4.12424e-05
0.00143731
0.000111857
0.00126468
0.000314145
0.000968028
0.000515605
0.000603576
0.000591356
0.00127285
-0.00144897
0.00682696
-0.00228349
0.00269572
-0.00299154
0.00225482
-0.00352286
0.0017816
-0.00392827
0.00134433
-0.00420455
0.000879931
-0.00432183
0.000342186
-0.00423417
-0.000296192
-0.00391923
-0.000994481
-0.0034115
-0.00163316
-0.00278068
-0.00210384
-0.0021031
-0.00235697
-0.00145492
-0.00239316
-0.000918212
-0.00223405
-0.000527616
-0.00186469
-0.000110134
-0.00128031
-0.000517989
0.00124353
-0.00140297
0.00148284
-0.00101025
0.00149981
-0.000768547
0.00152833
-0.000576706
0.00156214
-0.000372594
0.00154072
-0.000153363
0.0014816
0.00145464
0.0014421
0.0014388
0.00144251
0.0014528
0.00147283
0.00151424
0.00162627
0.00134727
0.00059317
0.00100228
0.000860617
0.000554839
0.00103882
0.00184311
-0.00102769
0.00815934
-0.00171814
0.00338619
-0.00218994
0.00272663
-0.00254687
0.00213854
-0.00283205
0.00162952
-0.0030378
0.00108568
-0.00312682
0.000431223
-0.00301883
-0.00040417
-0.00269212
-0.00132119
-0.0022149
-0.00211036
-0.00166981
-0.00264893
-0.00112351
-0.00290326
-0.000627309
-0.00288936
-0.000208339
-0.00265301
0.00015854
-0.00223156
0.000554137
-0.0016759
0.001156
-0.00111984
0.00197338
-0.000808993
0.0015333
-0.000962879
0.00147273
-0.000949665
0.00145156
-0.000747367
0.00143999
-0.000565125
0.00146799
-0.000400577
0.00155734
-0.000242696
0.00168705
-0.000129851
0.00179991
-0.000113003
0.00190269
-0.000102914
0.00198803
-8.548e-05
0.00203835
-5.04606e-05
0.00202891
9.30883e-06
0.00193416
9.46067e-05
0.00172372
0.000210307
0.00134556
0.000378024
0.0011957
0.000743054
0.000877859
0.00117848
0.0003781
0.0015386
0.00224129
-0.00073143
0.00925302
-0.00128467
0.00393944
-0.00139698
0.00283896
-0.0015083
0.00224987
-0.00161527
0.00173651
-0.00169097
0.00116139
-0.00169815
0.000438409
-0.00151293
-0.000589377
-0.00116417
-0.00166994
-0.000752715
-0.00252181
-0.000349486
-0.00305216
5.93962e-06
-0.00325868
0.000293419
-0.00317683
0.000514111
-0.0028737
0.000702048
-0.00241949
0.000911997
-0.00188584
0.0011722
-0.00138003
0.00139466
-0.00103144
0.00134226
-0.000910471
0.00121704
-0.000824427
0.0011411
-0.000671414
0.00110082
-0.00052484
0.00110361
-0.000403353
0.00116043
-0.000299491
0.00126539
-0.000234796
0.00136761
-0.000215209
0.0014695
-0.000204785
0.00156395
-0.000179918
0.00163724
-0.00012373
0.00166777
-2.12028e-05
0.00163449
0.000127904
0.0015287
0.000316116
0.00135509
0.000551655
0.00119643
0.000901727
0.00101857
0.00135637
0.000634313
0.00192288
0.000452467
0.00242316
-0.00105259
0.00150488
-0.0015042
0.000451422
-0.00145553
-0.000645122
0.0103087
-0.00105409
0.00434841
-0.000671452
0.00245634
-0.000434013
0.00201245
-0.000321102
0.00162361
-0.000226261
0.00106657
-3.4651e-05
0.000246812
0.000293201
-0.000917217
0.000634125
-0.00201085
0.000912933
-0.00280061
0.00110174
-0.00324096
0.00119774
-0.00335467
0.00121925
-0.00319834
0.00119159
-0.00284604
0.00114333
-0.00237122
0.00110821
-0.0018507
0.00109334
-0.00136516
0.00106167
-0.000999759
0.00094654
-0.000795328
0.000791546
-0.000669419
0.000677475
-0.000557328
0.000617294
-0.000464643
0.000609946
-0.000395989
0.000655231
-0.000344759
0.00073746
-0.000317009
0.000832539
-0.00031027
0.000933641
-0.000305869
0.00103725
-0.000283509
0.00113697
-0.000223428
0.00121961
-0.000103829
0.00126437
8.31634e-05
0.00126928
0.000311227
0.00124778
0.000573173
0.00125116
0.000898376
0.00132708
0.00128047
0.00148568
0.0017643
0.00190102
0.00200784
0.00213942
0.0012665
0.00175053
0.000840332
0.00035367
-0.000770163
0.0115321
-0.000706633
0.0042849
0.000332859
0.00141686
0.000890508
0.00145481
0.00119755
0.00131659
0.00152197
0.000742158
0.00195998
-0.000191176
0.00236387
-0.0013211
0.00260044
-0.00224741
0.00265936
-0.00285953
0.00256318
-0.00314478
0.00234757
-0.00313906
0.00205567
-0.00290644
0.00172999
-0.00252034
0.00140481
-0.00204603
0.00110933
-0.00155522
0.000851952
-0.00110777
0.000629952
-0.000777746
0.000419239
-0.000584601
0.000238993
-0.000489157
0.000115189
-0.000433508
5.03488e-05
-0.000399786
3.52851e-05
-0.000380908
6.17807e-05
-0.000371237
0.000116054
-0.000371263
0.000184321
-0.000378519
0.000261354
-0.000382881
0.000349035
-0.00037117
0.000452801
-0.000327174
0.00057744
-0.000228447
0.000706389
-4.5764e-05
0.000827503
0.000190134
0.000953883
0.000446814
0.00113094
0.000721342
0.00140782
0.00100361
0.00184835
0.00132379
0.00250689
0.00134932
0.00303423
0.000739191
0.00307389
0.000800689
0.00349227
0.00247284
0.00956529
0.00308567
0.00367208
0.00327259
0.00122995
0.00350243
0.00122499
0.00373902
0.00108001
0.00414155
0.000339641
0.00459901
-0.000648618
0.00479654
-0.00151862
0.00470113
-0.002152
0.00435984
-0.00251823
0.00384481
-0.00262976
0.00322708
-0.00252132
0.00257142
-0.00225078
0.00193037
-0.00187928
0.00133249
-0.00144815
0.000809255
-0.00103197
0.000366722
-0.000665221
2.65816e-05
-0.00043759
-0.000218742
-0.000339261
-0.000385617
-0.000322265
-0.000493961
-0.000325145
-0.000559656
-0.000334073
-0.000594689
-0.000345855
-0.000606812
-0.000359094
-0.000604039
-0.000374015
-0.000593597
-0.000388941
-0.000578045
-0.000398413
-0.000554422
-0.000394771
-0.000512926
-0.000368649
-0.00043233
-0.000309021
-0.000276793
-0.000201279
-7.62331e-05
-1.0405e-05
0.000147547
0.000223056
0.000426768
0.000442142
0.000775992
0.000654406
0.00123988
0.00085992
0.00174196
0.000847261
0.00194424
0.000536929
0.0011498
0.00159516
0.00490088
0.0101191
0.0137829
0.0122729
0.00273998
0.0110265
0.00247143
0.0101229
0.00198363
0.00942943
0.0010331
0.00862977
0.000151046
0.0076633
-0.00055216
0.00659484
-0.00108354
0.0054886
-0.001412
0.00439205
-0.00153322
0.00333719
-0.00146647
0.00235841
-0.00127199
0.00148824
-0.0010091
0.000716015
-0.000675913
7.10178e-05
-0.000386958
-0.000401272
-0.000192916
-0.000696582
-0.000142264
-0.000880266
-0.000155559
-0.00101361
-0.000188899
-0.00111741
-0.00022133
-0.0012022
-0.000249263
-0.00127529
-0.000272745
-0.00134212
-0.000292245
-0.00140836
-0.000307749
-0.0014801
-0.000317182
-0.00156301
-0.00031548
-0.00166311
-0.000294649
-0.00178816
-0.000243587
-0.00194879
-0.00014836
-0.00215383
3.77273e-06
-0.00238296
0.000218748
-0.00266658
0.000506696
-0.00310691
0.000882501
-0.00379734
0.00134485
-0.00480172
0.00186432
-0.00623423
0.00227979
-0.00796449
0.00226722
-0.00747311
0.00110379
-0.00228532
0.00481483
0.00399001
0.00442121
0.00286498
0.00526542
0.00113937
0.00549146
0.000806998
0.00525195
0.000390496
0.00478771
-8.79647e-05
0.00414793
-0.000443789
0.0033775
-0.000641582
0.00253578
-0.000691507
0.00166635
-0.000597028
0.000825029
-0.000430665
5.0917e-05
-0.000234973
-0.000585507
-3.9472e-05
-0.00101032
3.78685e-05
-0.00124678
4.35609e-05
-0.00139268
3.66036e-06
-0.00150385
-4.43705e-05
-0.00160715
-8.55752e-05
-0.00170997
-0.000118495
-0.00181451
-0.000144701
-0.00192255
-0.000164683
-0.00203584
-0.00017894
-0.00215627
-0.000187296
-0.00228538
-0.000188052
-0.00242334
-0.000177495
-0.0025681
-0.000149874
-0.00271405
-9.7612e-05
-0.00285129
-1.10994e-05
-0.0029667
0.0001192
-0.00305666
0.000308734
-0.00313415
0.000584209
-0.00320979
0.000958156
-0.00328405
0.00141914
-0.00331231
0.0018926
-0.00323967
0.00220716
-0.0028946
0.00192216
-0.00161939
-0.0001714
-0.00382907
-0.000569628
0.00461426
0.000778713
0.00151659
0.00111991
0.000798131
0.00137235
0.000554521
0.00146302
0.000299803
0.00132284
5.22048e-05
0.00099457
-0.00011552
0.000512988
-0.000159995
-7.07362e-05
-0.000107766
-0.000667504
-2.46279e-07
-0.00117921
8.10564e-05
-0.00154121
0.000127042
-0.00172456
0.000143892
-0.00180962
0.000122951
-0.00185358
8.75384e-05
-0.00189572
4.58203e-05
-0.00195116
1.10856e-05
-0.00202143
-1.52844e-05
-0.00210465
-3.52537e-05
-0.00219865
-5.06809e-05
-0.00230101
-6.23047e-05
-0.00240937
-7.05517e-05
-0.00252125
-7.54039e-05
-0.00263321
-7.6071e-05
-0.00273997
-7.07147e-05
-0.00283351
-5.63068e-05
-0.00290237
-2.87298e-05
-0.00293145
1.79977e-05
-0.00290909
9.68557e-05
-0.00281443
0.000214094
-0.00261468
0.000384485
-0.00228394
0.000627433
-0.00180842
0.000943641
-0.0011671
0.0012513
-0.000182248
0.00122233
0.001155
0.000584935
0.00159116
-0.000607537
-0.00215488
-0.00747144
-0.0102226
-0.00556641
-0.00402732
-0.0032135
-0.00264713
-0.00233851
-0.00228014
-0.0023916
-0.0025492
-0.00265595
-0.00265633
-0.00257631
-0.00245119
-0.00231004
-0.00219046
-0.00210669
-0.00206489
-0.00205795
-0.00207746
-0.00211698
-0.00217196
-0.00223858
-0.00231343
-0.00239311
-0.00247343
-0.00254833
-0.00260877
-0.00264155
-0.00262752
-0.00253452
-0.00232418
-0.00194335
-0.00131949
-0.000379345
0.000868475
0.00208724
0.00266845
0.00205698
)
;

boundaryField
{
    floor
    {
        type            calculated;
        value           nonuniform List<scalar> 
29
(
0
0
0
0
0
0
0
0
0
0
0
0
0
0
0
0
0
0
0
0
-4.12428e-06
-1.02323e-05
-1.5395e-05
-2.00579e-05
-1.49744e-06
-2.97336e-06
-7.49466e-06
-8.7012e-06
-8.37501e-06
)
;
    }
    ceiling
    {
        type            calculated;
        value           nonuniform List<scalar> 
43
(
-4.45689e-05
-4.32807e-05
-4.19678e-05
-2.24841e-05
-1.56743e-05
-1.18342e-05
-8.79932e-06
-6.14829e-06
-4.05434e-06
-2.37808e-06
-9.98684e-07
1.48809e-07
1.05707e-06
1.93967e-06
2.75593e-06
3.38773e-06
3.79342e-06
4.03022e-06
4.16601e-06
4.2444e-06
4.29178e-06
4.31869e-06
4.32773e-06
4.32044e-06
4.298e-06
4.26143e-06
4.21152e-06
4.14874e-06
4.07293e-06
3.98268e-06
3.87957e-06
3.77586e-06
3.67627e-06
3.58703e-06
3.51985e-06
3.50116e-06
3.58809e-06
3.74188e-06
3.95874e-06
4.96518e-06
1.14684e-05
8.24576e-06
-5.46582e-05
)
;
    }
    sWall
    {
        type            calculated;
        value           uniform -0.000270327;
    }
    nWall
    {
        type            calculated;
        value           nonuniform List<scalar> 6(-4.88542e-05 -5.86454e-05 -6.46802e-05 -7.56172e-05 -8.30082e-05 -0.000102852);
    }
    sideWalls
    {
        type            empty;
        value           nonuniform 0();
    }
    glass1
    {
        type            calculated;
        value           nonuniform List<scalar> 9(-5.76697e-05 -0.000154943 -0.00023623 -0.00030468 -0.000362246 -0.000410503 -0.000453294 -0.000506008 -0.000565271);
    }
    glass2
    {
        type            calculated;
        value           nonuniform List<scalar> 2(-0.000258792 -0.00028689);
    }
    sun
    {
        type            calculated;
        value           uniform 0;
    }
    heatsource1
    {
        type            calculated;
        value           nonuniform List<scalar> 3(2.04149e-07 2.04081e-07 2.04094e-07);
    }
    heatsource2
    {
        type            calculated;
        value           nonuniform List<scalar> 4(5.10353e-08 5.11828e-08 0 0);
    }
    Table_master
    {
        type            calculated;
        value           nonuniform List<scalar> 9(-1.53121e-07 -1.53169e-07 -1.53187e-07 -1.532e-07 -1.53208e-07 -1.53211e-07 -1.53212e-07 -1.53204e-07 -1.53173e-07);
    }
    Table_slave
    {
        type            calculated;
        value           nonuniform List<scalar> 9(1.53006e-07 1.53002e-07 1.52971e-07 1.52946e-07 1.52933e-07 1.52938e-07 1.52949e-07 1.5299e-07 1.53072e-07);
    }
    inlet
    {
        type            calculated;
        value           uniform -0.0060649;
    }
    outlet
    {
        type            calculated;
        value           nonuniform List<scalar> 2(0.00778633 0.00279447);
    }
}


// ************************************************************************* //
