/*--------------------------------*- C++ -*----------------------------------*\
  =========                 |
  \\      /  F ield         | OpenFOAM: The Open Source CFD Toolbox
   \\    /   O peration     | Website:  https://openfoam.org
    \\  /    A nd           | Version:  6
     \\/     M anipulation  |
\*---------------------------------------------------------------------------*/
FoamFile
{
    version     2.0;
    format      ascii;
    class       volScalarField;
    location    "180";
    object      alphat;
}
// * * * * * * * * * * * * * * * * * * * * * * * * * * * * * * * * * * * * * //

dimensions      [1 -1 -1 0 0 0 0];

internalField   nonuniform List<scalar> 
459
(
0.00161068
0.00198018
0.00198123
0.00188981
0.00179045
0.0016997
0.00161799
0.00154527
0.00147828
0.00141453
0.00135176
0.00128739
0.00121781
0.00113612
0.00104147
0.000710223
0.000914801
0.00098646
0.00100176
0.000965339
0.000921714
0.000865159
0.000809062
0.000758937
0.000715031
0.000676514
0.000642463
0.000611867
0.000584187
0.000558033
0.000531628
0.000503238
0.000460459
0.000438802
0.00185202
0.00569958
0.00485319
0.0043624
0.00404558
0.00384926
0.0037193
0.0035777
0.0034174
0.00322795
0.00299551
0.00270579
0.00234934
0.00192284
0.00146748
0.00101301
0.000897478
0.00106964
0.00312844
0.00268161
0.00277018
0.00294192
0.0029229
0.00226246
0.00192618
0.00169327
0.00151928
0.00138495
0.00127956
0.00119767
0.00111217
0.00101253
0.000917037
0.000894431
0.000806063
0.000540538
0.00189887
0.00637888
0.00468779
0.0042113
0.0040183
0.00403716
0.004153
0.0042385
0.00423675
0.00412165
0.00388521
0.0035311
0.00307463
0.00254284
0.00198852
0.00147343
0.000910246
0.00112744
0.00320264
0.00276608
0.00303943
0.00345697
0.00346133
0.00113163
0.00100309
0.000894653
0.000804297
0.000728969
0.000665955
0.000613274
0.000571464
0.000541645
0.000604901
0.000787588
0.000976458
0.000616569
0.00187343
0.00579567
0.00408753
0.00410555
0.00412684
0.00441267
0.00471295
0.00484977
0.00483562
0.0046829
0.00440429
0.00401555
0.00353764
0.00299927
0.00243415
0.00188385
0.00128311
0.000917033
0.00161547
0.00215991
0.00304416
0.00396709
0.00462952
0.0045141
0.00122812
0.00112922
0.00105037
0.000983132
0.000920827
0.000859451
0.000796263
0.000728783
0.000651663
0.000597545
0.00073534
0.00116054
0.000712954
0.00186813
0.0047728
0.00370408
0.00440005
0.0047137
0.00522392
0.00536929
0.0053402
0.00523299
0.00503741
0.00475255
0.00438528
0.00394924
0.00347546
0.00299036
0.00253942
0.00215594
0.00220315
0.00291954
0.00401841
0.00510111
0.00592285
0.00639703
0.00644181
0.00559962
0.00506956
0.00459164
0.00409371
0.00357418
0.00303601
0.00248076
0.00191093
0.00132515
0.000879466
0.000806604
0.00117091
0.00100244
0.000797704
0.000889984
0.00134051
0.00184526
0.00396151
0.00341948
0.00448952
0.00504838
0.00569368
0.00585886
0.0057862
0.00565849
0.00548524
0.00526064
0.00497984
0.00464327
0.00430874
0.00401101
0.00384187
0.00390089
0.00461004
0.00568307
0.0066485
0.0073556
0.00775771
0.00787735
0.00775175
0.00736538
0.0068454
0.00619367
0.00546185
0.00468093
0.00387503
0.00306292
0.00227105
0.0015512
0.00111299
0.00103985
0.00120464
0.00118763
0.00127548
0.00187182
0.00178312
0.0018094
0.00333437
0.00311187
0.00475526
0.00535855
0.00587551
0.00614608
0.0061434
0.00608488
0.00600487
0.00590493
0.00578881
0.00566785
0.00557225
0.00557373
0.00578171
0.00629508
0.00720459
0.00801318
0.00854072
0.00878453
0.0087693
0.0085515
0.00819463
0.00769149
0.00706636
0.00635211
0.00556617
0.00473931
0.00391391
0.00314275
0.0024882
0.00201207
0.00178004
0.00171667
0.00167511
0.00143786
0.00179713
0.0034049
0.00242648
0.00174789
0.00266191
0.00261518
0.0050824
0.00601142
0.00617427
0.00623735
0.00621653
0.00622035
0.00624204
0.00627847
0.00633772
0.00643312
0.00659464
0.00687113
0.00732994
0.00795633
0.00862684
0.00904162
0.00915719
0.00900234
0.00862755
0.00807136
0.00744115
0.00682163
0.00620779
0.00557992
0.00493782
0.00431473
0.00376421
0.00334133
0.00308095
0.00297622
0.00296409
0.00290388
0.00270694
0.00213616
0.00245968
0.00629598
0.00336825
0.00161874
0.00161087
0.00180464
0.00513431
0.00687006
0.00694358
0.00687534
0.00685324
0.00688456
0.00693547
0.00700345
0.00710176
0.00723952
0.00743552
0.0077121
0.00807408
0.00846268
0.008747
0.00878736
0.00855179
0.00808086
0.00747548
0.0068564
0.00629001
0.00580379
0.00539306
0.0050451
0.00476325
0.00456738
0.00447944
0.00450824
0.0046372
0.00481378
0.00494206
0.00490007
0.0046035
0.0039036
0.00405062
0.00865696
0.00381492
0.00119552
0.00463868
0.00767751
0.0081565
0.00829507
0.00838362
0.00845727
0.00851105
0.00855238
0.00859418
0.00863938
0.00868833
0.0087469
0.00880437
0.00882532
0.00875853
0.00857441
0.00829219
0.00795666
0.0076141
0.00729749
0.00702386
0.00680002
0.00662922
0.00651736
0.00647471
0.00651276
0.00663801
0.00684452
0.00710528
0.00736299
0.00752508
0.00747103
0.00711433
0.00644056
0.00643156
0.00921319
0.00325672
0.00281968
0.00815296
0.00926599
0.00957196
0.0096742
0.00977535
0.00985716
0.00990309
0.00991546
0.00990184
0.00986792
0.00981784
0.00975833
0.00969349
0.0096221
0.00953548
0.0094219
0.00927959
0.00911959
0.0089569
0.00880205
0.00866133
0.00854126
0.00845065
0.00840057
0.00840302
0.00846889
0.00860496
0.00880924
0.00906318
0.00931861
0.00948023
0.00939815
0.0089599
0.00822547
0.0076203
0.00713121
0.00272854
0.00146714
0.00153451
0.00199036
0.00223252
0.0022797
0.00229679
0.00231487
0.00232438
0.00232879
0.00232994
0.00232904
0.00232706
0.00232492
0.00232377
0.00232381
0.00232447
0.0023242
0.00232111
0.00231437
0.00230471
0.00229352
0.0022822
0.00227182
0.0022632
0.0022571
0.00225422
0.00225529
0.002261
0.00227174
0.00228736
0.00230654
0.00232607
0.00233984
0.00233929
0.0023218
0.00230541
0.00233498
0.00243036
0.00250389
0.00226548
)
;

boundaryField
{
    floor
    {
        type            compressible::alphatWallFunction;
        Prt             0.85;
        value           nonuniform List<scalar> 
29
(
0.000148536
0.000101126
0.000130675
0.000140828
0.000142984
0.000137843
0.000131655
0.000123581
0.00011551
0.000108241
0.000101827
9.61604e-05
9.11182e-05
8.65593e-05
8.24108e-05
7.84682e-05
7.44643e-05
7.01313e-05
6.35427e-05
6.01852e-05
6.01844e-05
7.58354e-05
8.72855e-05
0.000101552
0.000148535
0.000101125
0.00015252
0.000160568
0.000130968
)
;
    }
    ceiling
    {
        type            compressible::alphatWallFunction;
        Prt             0.85;
        value           nonuniform List<scalar> 
43
(
0.000207099
0.000216155
0.000276409
0.000307785
0.000313859
0.000316054
0.000318375
0.000319595
0.000320161
0.000320309
0.000320193
0.000319939
0.000319666
0.000319518
0.000319524
0.00031961
0.000319576
0.000319179
0.000318316
0.000317076
0.00031564
0.000314186
0.000312851
0.000311743
0.000310957
0.000310585
0.000310722
0.000311455
0.000312836
0.000314842
0.000317303
0.000319809
0.000321575
0.000321505
0.000319264
0.000317162
0.000320951
0.000333145
0.000342511
0.000312025
0.00022727
0.000226213
0.000382403
)
;
    }
    sWall
    {
        type            compressible::alphatWallFunction;
        Prt             0.85;
        value           uniform 0.000207087;
    }
    nWall
    {
        type            compressible::alphatWallFunction;
        Prt             0.85;
        value           nonuniform List<scalar> 6(0.00019001 0.000249315 0.000332739 0.000436994 0.000371041 0.000312108);
    }
    sideWalls
    {
        type            empty;
    }
    glass1
    {
        type            compressible::alphatWallFunction;
        Prt             0.85;
        value           nonuniform List<scalar> 9(0.000226985 0.000259019 0.000265175 0.000261818 0.000261103 0.000258065 0.000253289 0.000245084 0.000227825);
    }
    glass2
    {
        type            compressible::alphatWallFunction;
        Prt             0.85;
        value           nonuniform List<scalar> 2(0.000453739 0.000508659);
    }
    sun
    {
        type            compressible::alphatWallFunction;
        Prt             0.85;
        value           nonuniform List<scalar> 
14
(
0.000226236
0.000274971
0.000275111
0.000263158
0.000250094
0.000238092
0.000227224
0.000217501
0.000208498
0.000199889
0.000191369
0.000182585
0.000173034
0.00016174
)
;
    }
    heatsource1
    {
        type            compressible::alphatWallFunction;
        Prt             0.85;
        value           nonuniform List<scalar> 3(0.000113569 0.000126835 0.000189553);
    }
    heatsource2
    {
        type            compressible::alphatWallFunction;
        Prt             0.85;
        value           nonuniform List<scalar> 4(0.000144257 0.000127895 0.000127893 0.000129713);
    }
    Table_master
    {
        type            compressible::alphatWallFunction;
        Prt             0.85;
        value           nonuniform List<scalar> 9(0.000160817 0.000142847 0.000127479 0.000114505 0.000103556 9.42916e-05 8.64645e-05 8.01941e-05 7.56877e-05);
    }
    Table_slave
    {
        type            compressible::alphatWallFunction;
        Prt             0.85;
        value           nonuniform List<scalar> 9(0.000174154 0.000160487 0.000149491 0.000140039 0.000131213 0.000122449 0.000113348 0.000103532 9.21782e-05);
    }
    inlet
    {
        type            fixedValue;
        value           uniform 1.94e-05;
    }
    outlet
    {
        type            zeroGradient;
    }
}


// ************************************************************************* //
