/*--------------------------------*- C++ -*----------------------------------*\
  =========                 |
  \\      /  F ield         | OpenFOAM: The Open Source CFD Toolbox
   \\    /   O peration     | Website:  https://openfoam.org
    \\  /    A nd           | Version:  6
     \\/     M anipulation  |
\*---------------------------------------------------------------------------*/
FoamFile
{
    version     2.0;
    format      ascii;
    class       surfaceScalarField;
    location    "480";
    object      phi;
}
// * * * * * * * * * * * * * * * * * * * * * * * * * * * * * * * * * * * * * //

dimensions      [1 0 -1 0 0 0 0];

internalField   nonuniform List<scalar> 
852
(
-0.00246745
0.00250597
-0.00339853
0.000931068
-0.00413486
0.000736309
-0.00472204
0.00058717
-0.00513356
0.000411502
-0.00534492
0.000211351
-0.00532904
-1.58986e-05
-0.00505659
-0.000272462
-0.00452169
-0.000534915
-0.00376252
-0.000759188
-0.00285646
-0.000906072
-0.00190296
-0.000953515
-0.00101026
-0.000892712
-0.000311094
-0.000699175
-0.00031495
0.000148254
-0.000153635
0.000104504
4.37353e-05
0.000196165
-9.16813e-05
0.000358148
-0.000162007
0.000490064
-0.00013194
0.000579984
-8.99445e-05
0.000643063
-6.31041e-05
0.00068759
-4.45509e-05
0.000720532
-3.29655e-05
0.000744832
-2.43235e-05
0.000761459
-1.66497e-05
0.000769298
-7.86289e-06
0.000763909
5.36514e-06
0.000736139
2.77461e-05
0.000666954
6.91606e-05
0.000529855
0.000137073
0.000323979
0.00020585
-0.0001355
0.000459452
-0.000142017
-0.00180983
0.00442105
-0.00270961
0.00183084
-0.00346482
0.0014915
-0.00404856
0.00117089
-0.0044585
0.000821433
-0.00467853
0.000431364
-0.00467951
-1.49301e-05
-0.00443441
-0.000517573
-0.00394598
-0.00102336
-0.00326475
-0.00144043
-0.00247578
-0.00169505
-0.00168063
-0.00174868
-0.000978964
-0.00159439
-0.000439053
-0.0012391
-3.87924e-05
-0.000715221
0.000142378
-0.000181232
0.000142316
-0.000120205
-4.62899e-05
0.00031972
-0.000396199
0.000562761
-0.000334737
0.000709748
-0.00030901
0.000794583
-0.000216793
0.000835327
-0.000130708
0.000848918
-7.67143e-05
0.000859461
-5.5114e-05
0.000868089
-4.16142e-05
0.000875113
-3.13678e-05
0.000881
-2.25581e-05
0.000885595
-1.24778e-05
0.00088721
3.72816e-06
0.000882397
3.25379e-05
0.000847367
0.000104168
0.000704183
0.000280234
0.000441086
0.000468923
0.000308169
0.000592343
0.000148835
-0.00130164
0.00588537
-0.00207233
0.00260152
-0.00275151
0.00217067
-0.00326505
0.00168442
-0.00363758
0.00119395
-0.00385082
0.000644584
-0.00386242
-3.34851e-06
-0.00362666
-0.000753345
-0.00316026
-0.00148977
-0.00253433
-0.00206638
-0.00183828
-0.00239111
-0.00116027
-0.0024267
-0.000568461
-0.00218621
-0.000114164
-0.00169341
0.00021087
-0.00104027
0.000357526
-0.000327902
0.00049983
0.000441984
-0.000508033
0.000773978
-0.000728207
0.0010526
-0.000613369
0.00116549
-0.000421921
0.001189
-0.000240315
0.00112643
-6.81586e-05
0.00104985
0.000994873
0.000953393
0.000922159
0.000899734
0.00088739
0.000891251
0.000923921
0.00102822
0.000894485
0.000413949
0.000756646
0.000606738
0.000630994
0.000717972
0.000753075
-0.000932459
0.00703039
-0.00153577
0.00320481
-0.00201101
0.00264589
-0.00237383
0.00204722
-0.00265237
0.00147248
-0.00282308
0.000815284
-0.00281997
-6.47856e-06
-0.00256371
-0.00100962
-0.0021106
-0.00194289
-0.0015554
-0.00262159
-0.000977627
-0.00296889
-0.000438538
-0.0029658
3.1541e-05
-0.0026563
0.00042835
-0.00209023
0.000784924
-0.00139686
0.00115476
-0.000697753
0.00182699
-0.000172414
0.00208303
-0.00027531
0.00211907
-0.000544079
0.00190836
-0.000517517
0.00174433
-0.000449348
0.00163935
-0.000316963
0.00158106
-0.000182041
0.00158062
-6.77357e-05
0.00157225
8.20014e-06
0.00154485
2.72345e-05
0.00150393
4.07424e-05
0.00145288
5.08771e-05
0.00139119
6.15151e-05
0.00131473
7.62843e-05
0.00121505
9.95115e-05
0.0010763
0.000138573
0.000867235
0.000208887
0.000888068
0.000393093
0.000909721
0.000585063
0.000963207
0.000664463
0.00168055
-0.000664813
0.00795086
-0.00110878
0.00364876
-0.00126114
0.00279825
-0.00139985
0.00218591
-0.00151898
0.00159159
-0.00158901
0.000885294
-0.00151571
-7.97976e-05
-0.00120503
-0.00132032
-0.000788633
-0.00235929
-0.000353898
-0.00305632
4.95014e-05
-0.00337229
0.000395635
-0.00331194
0.000681372
-0.00294205
0.000945248
-0.00235413
0.00121663
-0.00166826
0.00153373
-0.00101487
0.00190202
-0.000540714
0.00205602
-0.000429324
0.00193165
-0.000419723
0.00178307
-0.00036895
0.00162589
-0.000292183
0.00149956
-0.000190652
0.0014055
-8.8e-05
0.00133567
2.0761e-06
0.00127993
6.39191e-05
0.00121599
9.11554e-05
0.00115198
0.000104733
0.00108822
0.000114608
0.00102378
0.000125936
0.000957176
0.000142865
0.000887103
0.000169561
0.000815226
0.000210426
0.00075638
0.000267709
0.000789656
0.000359792
0.000949043
0.000425652
0.00139125
0.000222234
0.00226495
0.000806823
0.00109015
0.00117458
-0.000331017
0.00142093
-0.00037515
-0.000574188
0.00881759
-0.000856291
0.00393085
-0.000559944
0.00250188
-0.00039825
0.0020242
-0.000308875
0.0015022
-0.000192235
0.000768638
6.97379e-05
-0.000341791
0.000420093
-0.00167068
0.000740763
-0.00267996
0.000986874
-0.00330243
0.00114946
-0.00353487
0.0012487
-0.00341118
0.0013091
-0.00300246
0.00135978
-0.00240483
0.00142622
-0.00173472
0.00152579
-0.00111446
0.00163657
-0.000651508
0.00162741
-0.000420177
0.00151324
-0.00030557
0.0013703
-0.000226028
0.00122421
-0.000146108
0.00109498
-6.14478e-05
0.000987738
1.92275e-05
0.000904568
8.52255e-05
0.000840293
0.000128172
0.00078171
0.000149716
0.000726797
0.000159622
0.000675144
0.000166236
0.000626585
0.00017447
0.000581865
0.000187559
0.000543447
0.000207954
0.000516823
0.000237024
0.000511006
0.0002735
0.000554015
0.000316757
0.000643211
0.000336431
0.000626891
0.00023853
0.000678467
0.000755223
0.000269021
0.001584
-0.000407147
0.00209708
-0.000825571
-0.000674813
0.00981763
-0.000548426
0.00380445
0.000304048
0.00164939
0.000728408
0.00159982
0.00102295
0.00120764
0.00141945
0.000372114
0.00188956
-0.000811922
0.00220586
-0.001987
0.00235833
-0.00283244
0.00235609
-0.00330019
0.00223328
-0.00341206
0.0020364
-0.0032143
0.00181078
-0.00277686
0.00159385
-0.00218791
0.00141157
-0.00155247
0.00127887
-0.000981782
0.00118205
-0.000554705
0.00106632
-0.000304463
0.000930347
-0.00016962
0.000788563
-8.42622e-05
0.000654669
-1.22327e-05
0.000539904
5.32967e-05
0.000452479
0.00010663
0.000391032
0.00014665
0.000345642
0.000173537
0.000307436
0.000187897
0.000272613
0.000194419
0.000240821
0.000198002
0.000213475
0.000201789
0.000193508
0.000207499
0.000185378
0.000216057
0.000194417
0.000227958
0.000224139
0.000243752
0.000274665
0.000266204
0.000314025
0.000297045
0.000215511
0.000337019
0.000125695
0.000845014
-0.000102234
0.0018119
-0.000124833
0.00211965
-0.000991621
0.0019949
0.00818597
0.00253913
0.00326021
0.00257052
0.00161798
0.00278315
0.00138717
0.00313209
0.000858689
0.00365401
-0.000149839
0.00407992
-0.00123784
0.0041883
-0.00209538
0.0040104
-0.00265454
0.003626
-0.00291577
0.00311678
-0.00290284
0.00255691
-0.00265444
0.00200938
-0.00222935
0.00151657
-0.00169513
0.00110123
-0.00113716
0.000782138
-0.000662718
0.000550516
-0.000323106
0.000376063
-0.000130031
0.000231134
-2.4712e-05
0.00010624
4.06104e-05
6.41929e-06
8.75649e-05
-6.52371e-05
0.000124929
-0.000113683
0.000155051
-0.000145498
0.000178438
-0.000166748
0.000194761
-0.000182788
0.000203909
-0.000195968
0.000207571
-0.000205653
0.000207659
-0.000209167
0.000205275
-0.000202351
0.000200654
-0.000179888
0.000193566
-0.000135882
0.000183924
-6.4957e-05
0.000172798
3.51951e-05
0.000166024
0.000149793
0.000182419
0.00022596
0.000260824
0.000416736
0.000654213
0.000748352
0.00148026
0.00156498
0.00130299
0.000317122
0.00855087
0.011778
0.0099971
0.00339883
0.00910005
0.00228421
0.00852731
0.00143142
0.00795652
0.000420941
0.00720935
-0.000490676
0.00633088
-0.00121688
0.00537446
-0.0016981
0.00438458
-0.00192588
0.00340182
-0.00192007
0.00247184
-0.00172447
0.00164739
-0.00140493
0.00096001
-0.00100778
0.000411958
-0.000589138
1.8826e-05
-0.000269616
-0.000233897
-7.04105e-05
-0.000393642
2.96885e-05
-0.000499229
8.08504e-05
-0.000569554
0.00011091
-0.000616039
0.000134023
-0.000644611
0.000153474
-0.000659222
0.000169633
-0.000663289
0.000182477
-0.000660026
0.000191468
-0.000652169
0.000196023
-0.000640801
0.000196172
-0.000625236
0.000192063
-0.000603458
0.000183467
-0.000572462
0.000169628
-0.000528376
0.00014945
-0.000466436
0.000121953
-0.000380691
8.70237e-05
-0.000260901
4.62037e-05
-8.82642e-05
9.75366e-06
0.000131017
4.15145e-05
0.000504336
0.000280867
0.00113025
0.000854325
0.00175955
0.000673666
0.00179979
0.00643241
0.00325065
0.00592721
0.00278944
0.00596314
0.00139553
0.00587603
0.000508104
0.00552712
-0.000141714
0.00493142
-0.000621143
0.00413435
-0.00090101
0.00321412
-0.00100565
0.00224798
-0.000953958
0.00131175
-0.000788279
0.000488577
-0.000581802
-0.000158166
-0.000361088
-0.000602596
-0.000144743
-0.000862113
-1.01308e-05
-0.00100122
6.8669e-05
-0.0010749
0.00010334
-0.00111249
0.000118412
-0.00113019
0.00012858
-0.00113362
0.000137422
-0.00112576
0.000145585
-0.00110892
0.000152756
-0.00108496
0.000158492
-0.00105567
0.000162144
-0.00102268
0.000163002
-0.00098709
0.000160549
-0.000949399
0.000154341
-0.000909727
0.000143764
-0.000868022
0.000127891
-0.000824186
0.000105582
-0.000778097
7.58333e-05
-0.000729297
3.81933e-05
-0.000674638
-8.48652e-06
-0.000599643
-6.52707e-05
-0.000497327
-6.08309e-05
-0.000374926
0.000158437
-0.000175217
0.000654589
-8.26807e-05
0.000581102
0.00166655
0.00114187
0.00207167
0.0023647
0.00156663
0.00286528
0.000894983
0.00296509
0.000408338
0.00273441
8.89787e-05
0.00228427
-0.000171015
0.0016912
-0.000307968
0.00100394
-0.000318434
0.000319347
-0.000269418
-0.000284142
-0.000184853
-0.000779885
-8.61082e-05
-0.00114019
-8.24303e-07
-0.00134424
5.92735e-05
-0.00144566
9.12494e-05
-0.00148895
0.000111925
-0.00150332
0.000117678
-0.00150238
0.000117447
-0.00149055
0.000116718
-0.00146995
0.000116793
-0.00144191
0.000117509
-0.00140755
0.00011836
-0.00136792
0.000118828
-0.00132417
0.000118361
-0.00127761
0.000116413
-0.00122962
0.000112526
-0.00118162
0.000106304
-0.00113525
9.73624e-05
-0.00109277
8.538e-05
-0.00105761
7.03921e-05
-0.00103511
5.3305e-05
-0.00103268
3.57241e-05
-0.00106003
1.8832e-05
-0.00113448
9.15773e-06
-0.00121258
1.72347e-05
-0.00116087
0.000106699
-0.000841587
0.000335275
-0.00077537
0.000514855
0.000826561
-0.00427289
-0.00509041
-0.00306605
-0.00154688
-0.000700887
-0.000343188
-0.000306747
-0.000531667
-0.000894016
-0.00126701
-0.00159118
-0.00183136
-0.00197398
-0.00203288
-0.00203295
-0.00200206
-0.00195117
-0.00189496
-0.00183926
-0.0017845
-0.0017298
-0.00167448
-0.00161838
-0.00156182
-0.00150572
-0.00145152
-0.00140112
-0.00135682
-0.00132131
-0.00129759
-0.00128866
-0.00129662
-0.00132206
-0.00136451
-0.00141701
-0.0014617
-0.0014161
-0.00113964
-0.000681891
)
;

boundaryField
{
    floor
    {
        type            calculated;
        value           nonuniform List<scalar> 
29
(
0
0
0
0
0
0
0
0
0
0
0
0
0
0
0
0
0
0
0
0
6.49134e-06
1.72904e-05
2.67302e-05
3.57123e-05
3.85193e-06
5.36823e-06
1.28491e-05
1.9747e-05
1.9253e-05
)
;
    }
    ceiling
    {
        type            calculated;
        value           nonuniform List<scalar> 
43
(
5.37487e-05
4.98408e-05
4.73214e-05
4.74652e-05
4.89741e-05
5.05947e-05
5.2452e-05
5.38116e-05
5.42997e-05
5.44909e-05
5.46901e-05
5.52729e-05
5.64716e-05
5.80419e-05
5.93008e-05
6.03282e-05
6.10015e-05
6.14333e-05
6.17197e-05
6.19184e-05
6.20602e-05
6.21583e-05
6.22177e-05
6.22403e-05
6.22265e-05
6.21768e-05
6.20915e-05
6.19708e-05
6.18157e-05
6.16301e-05
6.14258e-05
6.12344e-05
6.11325e-05
6.1249e-05
6.16255e-05
6.18982e-05
6.10694e-05
5.87871e-05
5.70763e-05
6.23623e-05
4.03908e-05
3.30978e-05
3.71242e-05
)
;
    }
    sWall
    {
        type            calculated;
        value           uniform -0.000201997;
    }
    nWall
    {
        type            calculated;
        value           nonuniform List<scalar> 6(4.39e-05 4.32456e-05 4.11889e-05 5.05268e-05 6.45913e-05 8.22771e-05);
    }
    sideWalls
    {
        type            empty;
        value           nonuniform 0();
    }
    glass1
    {
        type            calculated;
        value           nonuniform List<scalar> 9(-3.85284e-05 -0.000105272 -0.000162699 -0.000212565 -0.000255668 -0.000292551 -0.00032524 -0.000363253 -0.0004053);
    }
    glass2
    {
        type            calculated;
        value           nonuniform List<scalar> 2(0.000256211 0.000276852);
    }
    sun
    {
        type            calculated;
        value           uniform 0;
    }
    heatsource1
    {
        type            calculated;
        value           nonuniform List<scalar> 3(2.03368e-07 2.03606e-07 2.03881e-07);
    }
    heatsource2
    {
        type            calculated;
        value           nonuniform List<scalar> 4(5.1057e-08 5.11195e-08 0 0);
    }
    Table_master
    {
        type            calculated;
        value           nonuniform List<scalar> 9(-1.52912e-07 -1.52979e-07 -1.53006e-07 -1.53025e-07 -1.53038e-07 -1.53046e-07 -1.53049e-07 -1.53038e-07 -1.53005e-07);
    }
    Table_slave
    {
        type            calculated;
        value           nonuniform List<scalar> 9(1.52672e-07 1.52721e-07 1.52734e-07 1.5275e-07 1.52767e-07 1.52787e-07 1.52812e-07 1.52845e-07 1.52893e-07);
    }
    inlet
    {
        type            calculated;
        value           uniform -0.00628421;
    }
    outlet
    {
        type            calculated;
        value           nonuniform List<scalar> 2(0.00442114 0.000767682);
    }
}


// ************************************************************************* //
