// -*- C++ -*-
// File generated by PyFoam - sorry for the ugliness

FoamFile
{
 version 2.0;
 format ascii;
 class volVectorField;
 location "480";
 object U;
}

dimensions [ 0 1 -1 0 0 0 0 ];

internalField nonuniform List<vector> 459
(
  (0.0236253 0.0720239 0)
  (-0.139984 0.0232123 0)
  (-0.164535 0.016692 0)
  (-0.193329 0.0116974 0)
  (-0.214981 0.00628041 0)
  (-0.22861 0.00050234 0)
  (-0.232788 -0.00576696 0)
  (-0.225754 -0.0126323 0)
  (-0.207455 -0.0198901 0)
  (-0.178676 -0.0264111 0)
  (-0.142227 -0.0310493 0)
  (-0.102398 -0.0329249 0)
  (-0.0641484 -0.0312526 0)
  (-0.0293118 -0.0244883 0)
  (0.0309253 -0.0099823 0)
  (-0.122305 -0.000995799 0)
  (0.0412522 0.000472366 0)
  (0.0113303 -0.000882817 0)
  (0.0113224 -0.00468018 0)
  (0.0179778 -0.00441065 0)
  (0.0232401 -0.00314207 0)
  (0.0264786 -0.00226637 0)
  (0.0287639 -0.00174845 0)
  (0.0304308 -0.00145387 0)
  (0.0316486 -0.00126372 0)
  (0.032517 -0.00111499 0)
  (0.0330468 -0.000953951 0)
  (0.0331275 -0.000690777 0)
  (0.0325016 -0.000154518 0)
  (0.0306567 0.000974953 0)
  (0.026839 0.00312947 0)
  (0.023092 0.00520462 0)
  (-0.0480186 0.0129424 0)
  (0.146645 -0.00966132 0)
  (0.164547 0.147097 0)
  (-0.131093 0.0601494 0)
  (-0.134607 0.0487041 0)
  (-0.164281 0.0388433 0)
  (-0.185769 0.0276799 0)
  (-0.199639 0.0150397 0)
  (-0.204524 0.000461564 0)
  (-0.198394 -0.0161452 0)
  (-0.181725 -0.0330216 0)
  (-0.155684 -0.0473254 0)
  (-0.123389 -0.0565548 0)
  (-0.0889409 -0.0592255 0)
  (-0.0566681 -0.054793 0)
  (-0.0299178 -0.0431401 0)
  (-0.00799528 -0.0236631 0)
  (0.00310657 -0.00144873 0)
  (0.00357418 0.0153294 0)
  (-0.153992 0.000221482 0)
  (0.0370932 -0.0112172 0)
  (0.0231202 -0.00972099 0)
  (0.0268125 -0.00982239 0)
  (0.0323542 -0.00730228 0)
  (0.0355834 -0.00417015 0)
  (0.0363271 -0.00264928 0)
  (0.036806 -0.0015403 0)
  (0.037214 -0.000762725 0)
  (0.0375594 -0.000154023 0)
  (0.0378436 0.000397199 0)
  (0.0380775 0.00102198 0)
  (0.0382409 0.00191758 0)
  (0.0382296 0.00326822 0)
  (0.0376169 0.00570066 0)
  (0.0346398 0.0113156 0)
  (0.0341742 0.0162246 0)
  (-0.0455194 0.0219795 0)
  (0.204901 0.00183772 0)
  (0.295158 0.220611 0)
  (-0.143686 0.0954063 0)
  (-0.10265 0.0787689 0)
  (-0.131462 0.0612574 0)
  (-0.150866 0.0427335 0)
  (-0.164134 0.0220793 0)
  (-0.169405 -0.00169621 0)
  (-0.16327 -0.0283499 0)
  (-0.14701 -0.0548852 0)
  (-0.122607 -0.0762886 0)
  (-0.0936271 -0.0888127 0)
  (-0.0638244 -0.0907068 0)
  (-0.0365761 -0.0819503 0)
  (-0.0140525 -0.0632115 0)
  (0.00321566 -0.0368087 0)
  (0.0149492 -0.0096185 0)
  (0.0147993 0.0233585 0)
  (-0.10274 -0.00636106 0)
  (0.0381947 -0.0232744 0)
  (0.045896 -0.0224404 0)
  (0.0481126 -0.0171858 0)
  (0.0505772 -0.0108448 0)
  (0.0507944 -0.00582573 0)
  (0.0468785 -0.00755336 0)
  (0.0438504 -0.00644431 0)
  (0.0417685 -0.00580662 0)
  (0.0402748 -0.00544737 0)
  (0.0391669 -0.00524637 0)
  (0.0384198 -0.00509221 0)
  (0.0381999 -0.0048025 0)
  (0.039039 -0.00396314 0)
  (0.042069 -0.000895518 0)
  (0.0422369 0.0134292 0)
  (0.0440256 0.0229147 0)
  (-0.0256665 0.028671 0)
  (0.224436 0.0259848 0)
  (0.415265 0.280147 0)
  (-0.171255 0.126107 0)
  (-0.0680746 0.104654 0)
  (-0.0955076 0.0808685 0)
  (-0.110075 0.0573086 0)
  (-0.120935 0.0305159 0)
  (-0.125326 -0.00183437 0)
  (-0.117335 -0.0391741 0)
  (-0.100504 -0.0753641 0)
  (-0.0780829 -0.102929 0)
  (-0.0535451 -0.117763 0)
  (-0.0296372 -0.118554 0)
  (-0.00850966 -0.106421 0)
  (0.0102506 -0.0823861 0)
  (0.0259482 -0.0529861 0)
  (0.0421111 -0.0226893 0)
  (0.0601866 0.00271382 0)
  (0.087446 -0.0597056 0)
  (0.0913633 -0.0374565 0)
  (0.0890834 -0.0325279 0)
  (0.0796226 -0.0263577 0)
  (0.0723107 -0.0184329 0)
  (0.0686347 -0.0107518 0)
  (0.0673664 -0.00345948 0)
  (0.0680858 -0.00173938 0)
  (0.0674166 -0.00164395 0)
  (0.0658977 -0.00148459 0)
  (0.0638548 -0.00129451 0)
  (0.0614052 -0.00105326 0)
  (0.0584618 -0.000700929 0)
  (0.0547572 -0.000131053 0)
  (0.0497147 0.00086937 0)
  (0.04196 0.0026142 0)
  (0.037328 0.0164394 0)
  (0.0447078 0.0263922 0)
  (-0.00945706 0.0314606 0)
  (0.236085 0.0579036 0)
  (0.522386 0.326235 0)
  (-0.206946 0.15052 0)
  (-0.0323661 0.120463 0)
  (-0.0573214 0.0929684 0)
  (-0.0644907 0.0667832 0)
  (-0.0705338 0.0362745 0)
  (-0.0712267 -0.00295068 0)
  (-0.0581972 -0.0507201 0)
  (-0.0410858 -0.0945069 0)
  (-0.0226872 -0.12522 0)
  (-0.00511 -0.139996 0)
  (0.0106396 -0.13825 0)
  (0.0233395 -0.123015 0)
  (0.0346739 -0.0980861 0)
  (0.0457829 -0.0682425 0)
  (0.0584011 -0.0390372 0)
  (0.0740869 -0.0177344 0)
  (0.0862365 -0.0154276 0)
  (0.0879777 -0.0149014 0)
  (0.0813862 -0.016166 0)
  (0.0735027 -0.0143754 0)
  (0.0669368 -0.010167 0)
  (0.0621848 -0.00552307 0)
  (0.0589179 -0.00141518 0)
  (0.0562296 0.00125627 0)
  (0.0537679 0.00273629 0)
  (0.0510861 0.00358589 0)
  (0.0483093 0.0041697 0)
  (0.0455301 0.00474243 0)
  (0.0427127 0.00551063 0)
  (0.0397867 0.00668258 0)
  (0.0367337 0.00851989 0)
  (0.0335934 0.0114101 0)
  (0.0325023 0.0176994 0)
  (0.0416588 0.0230626 0)
  (0.0172002 0.0215755 0)
  (0.115004 0.0550724 0)
  (0.0840262 0.0544408 0)
  (-0.0971847 0.0572754 0)
  (0.338225 -0.0213909 0)
  (0.603977 0.364425 0)
  (-0.244143 0.16648 0)
  (-0.00273482 0.119908 0)
  (-0.018517 0.096516 0)
  (-0.0169004 0.0710611 0)
  (-0.0166691 0.0397566 0)
  (-0.0067775 -0.00519097 0)
  (0.0139415 -0.0661219 0)
  (0.0285036 -0.111743 0)
  (0.0397851 -0.140433 0)
  (0.0476341 -0.152078 0)
  (0.0523623 -0.148005 0)
  (0.0550054 -0.131131 0)
  (0.0568505 -0.105499 0)
  (0.0590881 -0.0761741 0)
  (0.0627978 -0.0485727 0)
  (0.0681956 -0.0280289 0)
  (0.0712066 -0.0194206 0)
  (0.0687466 -0.0163433 0)
  (0.0626368 -0.0135352 0)
  (0.0558816 -0.0098197 0)
  (0.0497659 -0.00556476 0)
  (0.0446779 -0.00150831 0)
  (0.0405261 0.00191311 0)
  (0.0374674 0.00420931 0)
  (0.0349076 0.00533782 0)
  (0.0324944 0.00586866 0)
  (0.0301923 0.00622428 0)
  (0.028021 0.0066547 0)
  (0.0259965 0.00733712 0)
  (0.0241815 0.00842583 0)
  (0.0227278 0.0100545 0)
  (0.0218122 0.0122645 0)
  (0.0223792 0.0150811 0)
  (0.0275657 0.0162287 0)
  (0.0154319 0.00773539 0)
  (0.0390815 0.0331922 0)
  (0.0428807 0.0556585 0)
  (-0.135713 0.0733856 0)
  (0.352116 -0.040392 0)
  (0.650444 0.398237 0)
  (-0.266217 0.154053 0)
  (0.0207884 0.0829928 0)
  (0.0282079 0.0841908 0)
  (0.0366946 0.0668654 0)
  (0.0453004 0.0307902 0)
  (0.0720541 -0.0262061 0)
  (0.0926241 -0.0817934 0)
  (0.102466 -0.122392 0)
  (0.104368 -0.14589 0)
  (0.100405 -0.153163 0)
  (0.0924002 -0.146108 0)
  (0.0824299 -0.127748 0)
  (0.0723912 -0.102015 0)
  (0.0636466 -0.0736589 0)
  (0.0570632 -0.0476843 0)
  (0.0527278 -0.0280483 0)
  (0.0487115 -0.016936 0)
  (0.043363 -0.011135 0)
  (0.0371288 -0.00709586 0)
  (0.0310525 -0.00350136 0)
  (0.0255064 -6.98498e-05 0)
  (0.0210638 0.00289875 0)
  (0.0179876 0.00515219 0)
  (0.0157835 0.00661064 0)
  (0.0140362 0.00733372 0)
  (0.012474 0.00765853 0)
  (0.011027 0.00787176 0)
  (0.00972888 0.00814744 0)
  (0.00867435 0.00859433 0)
  (0.00802536 0.00928368 0)
  (0.00799651 0.0102443 0)
  (0.00875112 0.0114205 0)
  (0.0105595 0.0126782 0)
  (0.0137996 0.0133361 0)
  (0.00726625 0.0115174 0)
  (0.0130661 0.0341473 0)
  (0.0326366 0.0746414 0)
  (-0.184759 0.0904368 0)
  (0.44161 -0.048052 0)
  (0.743789 0.401002 0)
  (-0.0756144 0.125903 0)
  (0.0830529 0.0125759 0)
  (0.12622 0.0084891 0)
  (0.129407 0.00168574 0)
  (0.141525 -0.0319839 0)
  (0.171141 -0.0692853 0)
  (0.183875 -0.102071 0)
  (0.18085 -0.125883 0)
  (0.166958 -0.138372 0)
  (0.146236 -0.139036 0)
  (0.122013 -0.128787 0)
  (0.0973004 -0.109908 0)
  (0.0744936 -0.0855103 0)
  (0.0549839 -0.0595389 0)
  (0.0394151 -0.0365652 0)
  (0.0279327 -0.0195925 0)
  (0.0196479 -0.00955454 0)
  (0.013009 -0.00404299 0)
  (0.00712215 -0.000488713 0)
  (0.00211543 0.0022549 0)
  (-0.00153841 0.00448472 0)
  (-0.00405075 0.00620292 0)
  (-0.0057068 0.00748832 0)
  (-0.00679067 0.00835976 0)
  (-0.00756528 0.0088415 0)
  (-0.00819775 0.00907349 0)
  (-0.00871291 0.00919254 0)
  (-0.00903256 0.00928061 0)
  (-0.00900626 0.00937238 0)
  (-0.00842352 0.0094752 0)
  (-0.00703528 0.00959178 0)
  (-0.00460908 0.00976371 0)
  (-0.000881194 0.0102122 0)
  (0.00424788 0.0115273 0)
  (0.00640914 0.0144616 0)
  (0.0169012 0.0341763 0)
  (0.0543583 0.0756912 0)
  (-0.146504 0.0759586 0)
  (0.736522 0.0038921 0)
  (0.869202 0.401521 0)
  (0.417572 0.28472 0)
  (0.421913 0.213468 0)
  (0.416103 0.143908 0)
  (0.385211 0.0905785 0)
  (0.360646 0.0401344 0)
  (0.329412 -0.0121046 0)
  (0.293048 -0.0561143 0)
  (0.253121 -0.0858107 0)
  (0.210638 -0.10052 0)
  (0.167374 -0.102088 0)
  (0.125369 -0.0931464 0)
  (0.0869131 -0.0768672 0)
  (0.0540137 -0.0563059 0)
  (0.0276874 -0.0348907 0)
  (0.00795233 -0.0170303 0)
  (-0.00586596 -0.0046941 0)
  (-0.0140952 0.0015302 0)
  (-0.0196874 0.00476781 0)
  (-0.0233054 0.0066652 0)
  (-0.025762 0.00805272 0)
  (-0.0273454 0.00919181 0)
  (-0.0282381 0.010138 0)
  (-0.0286019 0.0109052 0)
  (-0.0285866 0.011477 0)
  (-0.0283316 0.0118357 0)
  (-0.027921 0.012003 0)
  (-0.0273573 0.0120077 0)
  (-0.026578 0.0118592 0)
  (-0.0254725 0.0115431 0)
  (-0.0238898 0.0110369 0)
  (-0.021637 0.0103412 0)
  (-0.0184803 0.00953545 0)
  (-0.0141274 0.0088633 0)
  (-0.00824505 0.00887113 0)
  (-0.000712356 0.0109537 0)
  (0.0159564 0.0231152 0)
  (0.0533841 0.053118 0)
  (-0.110509 0.0445743 0)
  (0.725852 0.0457305 0)
  (0.124592 0.0551621 0)
  (0.23174 0.0765789 0)
  (0.267983 0.0516343 0)
  (0.2611 0.0174342 0)
  (0.247035 -0.0125734 0)
  (0.226218 -0.0381512 0)
  (0.196679 -0.0561036 0)
  (0.159287 -0.0649966 0)
  (0.117755 -0.0650744 0)
  (0.0757827 -0.0574809 0)
  (0.0371921 -0.0445162 0)
  (0.0047446 -0.0280604 0)
  (-0.0189192 -0.0110006 0)
  (-0.0328373 0.000581145 0)
  (-0.0411058 0.00674997 0)
  (-0.0452694 0.00966599 0)
  (-0.0474204 0.0111637 0)
  (-0.0485336 0.0120936 0)
  (-0.0489538 0.0127861 0)
  (-0.048834 0.0133148 0)
  (-0.0482793 0.0136864 0)
  (-0.047378 0.0138965 0)
  (-0.0462107 0.013928 0)
  (-0.0448547 0.0137613 0)
  (-0.0433696 0.0133914 0)
  (-0.0417876 0.0128191 0)
  (-0.0401195 0.0120387 0)
  (-0.0383647 0.0110315 0)
  (-0.0365135 0.00977166 0)
  (-0.0345486 0.00823375 0)
  (-0.0324748 0.0063674 0)
  (-0.0303919 0.00394841 0)
  (-0.028326 0.000877773 0)
  (-0.0244027 0.000946291 0)
  (-0.0142498 0.010105 0)
  (-0.00448471 0.0315787 0)
  (-0.160025 0.0251968 0)
  (0.441702 0.0731601 0)
  (-0.0285191 0.119606 0)
  (0.0885029 0.0766773 0)
  (0.116943 0.0133801 0)
  (0.12502 -0.0380316 0)
  (0.122554 -0.0750016 0)
  (0.110346 -0.0875028 0)
  (0.0873382 -0.0874384 0)
  (0.0587925 -0.0844734 0)
  (0.0284634 -0.0805533 0)
  (-0.000881982 -0.0776354 0)
  (-0.0249052 -0.0783873 0)
  (-0.0427244 -0.0807747 0)
  (-0.0547792 -0.0806398 0)
  (-0.0610591 -0.081125 0)
  (-0.0637381 -0.0812855 0)
  (-0.0647756 -0.0820816 0)
  (-0.0649718 -0.0830442 0)
  (-0.0646543 -0.0838289 0)
  (-0.0639353 -0.0843645 0)
  (-0.0628731 -0.0846789 0)
  (-0.061515 -0.0848196 0)
  (-0.0599061 -0.0848369 0)
  (-0.0580937 -0.0847903 0)
  (-0.0561319 -0.0847445 0)
  (-0.0540785 -0.0847611 0)
  (-0.0519924 -0.0849058 0)
  (-0.0499375 -0.0852638 0)
  (-0.0479922 -0.0859502 0)
  (-0.046266 -0.0871064 0)
  (-0.0449466 -0.0888744 0)
  (-0.0444135 -0.0913352 0)
  (-0.045285 -0.0942621 0)
  (-0.0477029 -0.0963632 0)
  (-0.0493817 -0.0942665 0)
  (-0.0482966 -0.0794929 0)
  (-0.0588847 -0.0504002 0)
  (-0.129895 -0.0362025 0)
  (0.350578 -0.00822662 0)
  (0.153449 -0.18575 0)
  (-0.250911 -0.0279236 0)
  (-0.164155 0.232624 0)
  (-0.0904332 0.22769 0)
  (-0.0510953 0.235693 0)
  (-0.0254028 0.265915 0)
  (-0.0159986 0.295429 0)
  (-0.0172641 0.287407 0)
  (-0.0302188 0.271451 0)
  (-0.0471159 0.265348 0)
  (-0.0626054 0.265997 0)
  (-0.0747969 0.27096 0)
  (-0.0828941 0.279355 0)
  (-0.0872211 0.289121 0)
  (-0.0881642 0.294745 0)
  (-0.0873036 0.300385 0)
  (-0.085363 0.304386 0)
  (-0.0829866 0.307884 0)
  (-0.080566 0.310872 0)
  (-0.0781877 0.313344 0)
  (-0.0758285 0.315398 0)
  (-0.0734534 0.317113 0)
  (-0.071044 0.318539 0)
  (-0.0686037 0.319707 0)
  (-0.0661592 0.320646 0)
  (-0.0637618 0.321379 0)
  (-0.0614847 0.321925 0)
  (-0.0594188 0.322306 0)
  (-0.0576706 0.322564 0)
  (-0.0563541 0.32278 0)
  (-0.0555889 0.323101 0)
  (-0.0555384 0.323769 0)
  (-0.0564458 0.325117 0)
  (-0.058242 0.32718 0)
  (-0.0593692 0.328438 0)
  (-0.0575966 0.325372 0)
  (-0.0587452 0.31168 0)
  (-0.0882848 0.291713 0)
  (-0.15565 0.28954 0)
  (0.448144 0.328056 0)
)
;

boundaryField
{
  floor
  {
    type noSlip;
  }
  ceiling
  {
    type noSlip;
  }
  sWall
  {
    type noSlip;
  }
  nWall
  {
    type noSlip;
  }
  sideWalls
  {
    type empty;
  }
  glass1
  {
    type noSlip;
  }
  glass2
  {
    type noSlip;
  }
  sun
  {
    type noSlip;
  }
  heatsource1
  {
    type noSlip;
  }
  heatsource2
  {
    type noSlip;
  }
  Table_master
  {
    type noSlip;
  }
  Table_slave
  {
    type noSlip;
  }
  inlet
  {
    type fixedValue;
    value uniform (0.277164 -0.114805 0);
  }
  outlet
  {
    type zeroGradient;
  }
} 	// ************************************************************************* //

