/*--------------------------------*- C++ -*----------------------------------*\
  =========                 |
  \\      /  F ield         | OpenFOAM: The Open Source CFD Toolbox
   \\    /   O peration     | Website:  https://openfoam.org
    \\  /    A nd           | Version:  6
     \\/     M anipulation  |
\*---------------------------------------------------------------------------*/
FoamFile
{
    version     2.0;
    format      ascii;
    class       surfaceScalarField;
    location    "100";
    object      phi;
}
// * * * * * * * * * * * * * * * * * * * * * * * * * * * * * * * * * * * * * //

dimensions      [1 0 -1 0 0 0 0];

internalField   nonuniform List<scalar> 
852
(
-0.00227006
0.00233019
-0.00227953
9.62053e-06
-0.00220253
-7.68366e-05
-0.00220858
6.21471e-06
-0.00224562
3.72068e-05
-0.00228218
3.67264e-05
-0.00230065
1.86395e-05
-0.00228731
-1.31775e-05
-0.00222826
-5.88919e-05
-0.00210861
-0.000119489
-0.00191461
-0.000193842
-0.0016341
-0.000280347
-0.00124837
-0.000385588
-0.000710057
-0.00053816
-0.00070819
-0.000621268
0.000624679
-0.000606788
-1.44632e-05
-0.000427605
-0.00017917
-0.000335446
-9.21468e-05
-0.000313964
-2.14695e-05
-0.000328377
1.44306e-05
-0.000342095
1.37377e-05
-0.000344753
2.67858e-06
-0.00032725
-1.74877e-05
-0.000277339
-4.98982e-05
-0.000204452
-7.28696e-05
-0.000137042
-6.73809e-05
-0.000101163
-3.5839e-05
-8.39848e-05
-1.71244e-05
-1.28005e-05
-7.11074e-05
0.000164275
-0.000176951
0.000450818
-0.000286395
0.000589992
-0.000139042
0.000593134
-0.00163024
0.00411167
-0.00205355
0.000433098
-0.00216735
3.71347e-05
-0.00223385
7.28813e-05
-0.00229144
9.49659e-05
-0.00233609
8.15363e-05
-0.0023609
4.36136e-05
-0.00235801
-1.5897e-05
-0.00231887
-9.78797e-05
-0.002233
-0.000205206
-0.00208768
-0.000339011
-0.00186745
-0.000500424
-0.00156028
-0.000692617
-0.00118789
-0.000910409
-0.000798444
-0.00109751
0.000215037
-0.0010134
0.000215118
0.000330431
0.000303351
2.68734e-05
0.00028912
-0.000318511
0.000166232
-0.000456287
4.56445e-05
-0.000478556
8.12096e-07
-0.000507302
4.31867e-05
-0.000503902
1.03424e-05
-0.00048116
-2.00593e-05
-0.0004541
-4.45347e-05
-0.000428342
-7.56212e-05
-0.000412738
-8.84058e-05
-0.000410468
-6.95516e-05
-0.00042085
-2.53356e-05
-0.000445886
8.0571e-06
-0.000446048
-7.07667e-05
-0.000336964
-0.000285815
-0.000237495
-0.000385635
-0.000174324
-0.000202029
0.000427548
-0.00118033
0.00551282
-0.001748
0.00100094
-0.00199023
0.000279536
-0.00212156
0.000204383
-0.0022044
0.00017798
-0.00226057
0.000137878
-0.00229691
8.0111e-05
-0.00231362
9.72324e-07
-0.00230852
-0.000102814
-0.0022785
-0.000235073
-0.00221845
-0.000398913
-0.00212324
-0.000595483
-0.00199368
-0.00082204
-0.00184405
-0.00105989
-0.00169038
-0.00125105
-0.0014049
-0.00129876
-0.00118966
-0.000675113
0.000989434
-0.000864981
0.000479056
-0.000935645
0.000236983
-0.000940193
5.03058e-05
-0.00085908
-8.01603e-05
-0.000597958
-0.000217806
-0.000587448
-0.000607329
-0.000651652
-0.000727007
-0.000815085
-0.000884262
-0.000909192
-0.000900704
-0.000971007
-0.000801944
-0.000454544
-0.000924821
-0.000262419
-0.000925839
-0.000200685
-0.000489189
-0.000846746
0.00663685
-0.0014566
0.00161098
-0.00174046
0.00056358
-0.00191237
0.000376468
-0.00201225
0.000278041
-0.00207041
0.000196201
-0.00210624
0.000116107
-0.00213079
2.56882e-05
-0.00214983
-8.36099e-05
-0.0021685
-0.000216254
-0.00219218
-0.000375072
-0.00222851
-0.000559001
-0.00229172
-0.000758683
-0.00240291
-0.000948551
-0.00257109
-0.00108271
-0.00277467
-0.00109505
-0.00315102
-0.000813172
-0.00283656
-0.000305459
-0.00213563
0.000288609
-0.00204262
0.000386173
-0.00204772
0.000242246
-0.00208333
8.61027e-05
-0.0021065
-5.67936e-05
-0.00217276
-0.000151341
-0.0020225
-0.000150186
-0.00185868
-0.000163751
-0.00167749
-0.000181099
-0.00148716
-0.00019023
-0.00129718
-0.00018987
-0.0011164
-0.00018065
-0.00094793
-0.000168308
-0.000777553
-0.000170189
-0.000549413
-0.000227927
-0.000608091
-0.000395494
-0.000408233
-0.000461899
-8.53437e-05
-0.000523199
-0.000566994
-0.000596307
0.00755874
-0.00119985
0.0022147
-0.00139339
0.000757325
-0.00154225
0.000525517
-0.00166446
0.000400434
-0.00172916
0.000261078
-0.00175345
0.000140576
-0.00176431
3.67087e-05
-0.00177784
-6.99122e-05
-0.00180607
-0.000187869
-0.00185936
-0.000321622
-0.00194704
-0.000471163
-0.00207752
-0.000628035
-0.00225416
-0.00077175
-0.00246966
-0.000867051
-0.0027078
-0.000856744
-0.00285873
-0.000662087
-0.00283775
-0.000326285
-0.00255043
1.44784e-06
-0.00229259
0.0001285
-0.00214752
9.73732e-05
-0.00206982
8.60721e-06
-0.00203211
-9.42935e-05
-0.00201035
-0.000172866
-0.00194448
-0.000215822
-0.00185944
-0.00024854
-0.00176646
-0.000273824
-0.00166904
-0.000287381
-0.00157177
-0.000286854
-0.00147776
-0.000274356
-0.00138434
-0.000261408
-0.0012793
-0.000274908
-0.00115349
-0.000353399
-0.00103682
-0.000511832
-0.000778825
-0.000719577
-0.000299276
-0.00100244
0.000393961
-0.00125994
0.00113677
-0.000742706
-2.90776e-05
0.00116602
8.25565e-06
-0.000544914
0.00847187
-0.00102773
0.00269771
-0.000857216
0.000587023
-0.000824206
0.000492722
-0.000994548
0.000570983
-0.00113318
0.000399899
-0.00117952
0.000187102
-0.00118788
4.52425e-05
-0.00119076
-6.68634e-05
-0.00121025
-0.000168213
-0.00126141
-0.000270294
-0.00135368
-0.000378726
-0.00149105
-0.0004905
-0.00166981
-0.000592813
-0.00187665
-0.000660046
-0.00208099
-0.000652223
-0.0022084
-0.000534506
-0.00220485
-0.000329654
-0.00207004
-0.000133176
-0.00190841
-3.29418e-05
-0.00178371
-2.71246e-05
-0.00170506
-6.98259e-05
-0.00166722
-0.000131914
-0.00165005
-0.000189811
-0.00163222
-0.000233417
-0.00161312
-0.0002674
-0.00159619
-0.000290492
-0.00158453
-0.00029878
-0.00158146
-0.000289648
-0.00158937
-0.000266162
-0.00160748
-0.000243014
-0.00163106
-0.000251033
-0.00165452
-0.000329656
-0.0016595
-0.000506577
-0.00157874
-0.000800073
-0.00134286
-0.00123807
-0.000818907
-0.00178364
0.000553019
-0.00211438
0.00225348
-0.000534117
0.00229837
-0.000755717
0.00963602
-0.000517384
0.00245958
0.000254324
-0.000184453
0.000488261
0.00025902
0.000221505
0.00083797
-5.34562e-05
0.000675079
-0.000216165
0.000350013
-0.000304254
0.000133521
-0.000353019
-1.79196e-05
-0.000390085
-0.000130972
-0.000447748
-0.000212458
-0.000539847
-0.000286453
-0.000672511
-0.000357659
-0.000841363
-0.000423782
-0.00102993
-0.0004713
-0.00120702
-0.000474943
-0.00132728
-0.000414066
-0.00135473
-0.000302016
-0.0013
-0.000187709
-0.00121509
-0.000117657
-0.00114312
-9.8898e-05
-0.00109822
-0.000114513
-0.00108155
-0.000148368
-0.00108521
-0.000185928
-0.0010999
-0.000218498
-0.00112323
-0.000243833
-0.00115589
-0.000257587
-0.00120064
-0.000253778
-0.00126289
-0.000227142
-0.00135125
-0.000177544
-0.00147718
-0.000116822
-0.00165139
-7.65646e-05
-0.00187701
-0.000103793
-0.00214133
-0.000242019
-0.0024139
-0.000527263
-0.00266318
-0.00098857
-0.00281844
-0.00162815
-0.00263659
-0.002296
-0.000908656
-0.0022618
0.00143389
0.00190581
0.00819106
0.0029266
0.00143899
0.00320175
-0.000459377
0.00263704
0.000823964
0.00199144
0.00148381
0.00155543
0.00111132
0.00124609
0.000659568
0.00101747
0.000362353
0.000835796
0.000163953
0.000692429
1.25903e-05
0.000578043
-9.78849e-05
0.000462249
-0.000170473
0.000324782
-0.000220004
0.00016246
-0.000261271
-1.44205e-05
-0.000294227
-0.000180382
-0.000308788
-0.000303541
-0.00029071
-0.000363519
-0.00024184
-0.000367083
-0.000183946
-0.000342859
-0.000141679
-0.000317918
-0.000123633
-0.00030626
-0.000125961
-0.000312684
-0.00014173
-0.000335449
-0.000162945
-0.00037037
-0.000183353
-0.000414898
-0.000199077
-0.000467159
-0.000205095
-0.00052599
-0.00019471
-0.000592235
-0.000160655
-0.000671451
-9.80847e-05
-0.000778945
-9.08453e-06
-0.000954591
9.93204e-05
-0.00126145
0.000203296
-0.00174734
0.000244103
-0.00241337
0.000138984
-0.00325436
-0.000147368
-0.00437304
-0.000509261
-0.00581807
-0.000850766
-0.00599116
-0.00208852
-0.00437078
0.00869941
0.010128
0.00805174
0.00161712
0.00514309
0.00373286
0.00382794
0.00279919
0.00310256
0.00183693
0.00263666
0.00112569
0.00233117
0.000668057
0.00211535
0.000379975
0.0019324
0.000195749
0.00175968
7.50368e-05
0.00159546
-6.04105e-06
0.00143639
-6.0727e-05
0.00127613
-0.000100813
0.00111564
-0.000133529
0.000964177
-0.000157116
0.000838228
-0.000164552
0.000750375
-0.000153777
0.000699423
-0.000132784
0.000671648
-0.000113692
0.000651778
-0.00010355
0.000629446
-0.000103415
0.000599153
-0.000111219
0.000559165
-0.000122737
0.000510251
-0.000134217
0.000454261
-0.000142864
0.000394357
-0.000144965
0.000335347
-0.000135471
0.000283426
-0.000108504
0.000244385
-5.88116e-05
0.000219906
1.56253e-05
0.000211045
0.00010841
0.000217827
0.000196743
0.000236248
0.000225906
0.000240919
0.000134533
0.000206974
-0.000113211
0.000171527
-0.000473608
0.000224096
-0.000903137
1.79357e-06
-0.00186603
-0.00416598
-0.00225403
0.00287857
-0.000648806
0.00212794
0.00107049
0.00108016
0.00194237
0.000965297
0.00232311
0.000745193
0.00250104
0.000490361
0.00257886
0.000302382
0.00259789
0.000176943
0.002578
9.51556e-05
0.00252734
4.48534e-05
0.00245463
1.22094e-05
0.00236489
-1.08403e-05
0.00226097
-2.93784e-05
0.00214749
-4.34126e-05
0.00203409
-5.0926e-05
0.00193156
-5.10204e-05
0.00184574
-4.67463e-05
0.00177543
-4.31531e-05
0.00171563
-4.35274e-05
0.00166097
-4.85385e-05
0.00160716
-5.71831e-05
0.0015508
-6.61479e-05
0.00149053
-7.37241e-05
0.00142688
-7.8988e-05
0.00136212
-7.9982e-05
0.00130088
-7.40039e-05
0.00125051
-5.79074e-05
0.00122027
-2.83473e-05
0.00121772
1.83957e-05
0.00125334
7.30147e-05
0.00133189
0.000118412
0.00144536
0.000112658
0.00156561
1.44908e-05
0.00165492
-0.000202311
0.00171217
-0.000530651
0.00178506
-0.000975828
0.00164787
-0.00172866
-0.00247384
-0.000841175
0.00370589
0.000675125
0.000611969
0.00138424
0.00037136
0.00204855
0.00030127
0.00259151
0.000202516
0.0029481
0.000134042
0.00316097
8.97879e-05
0.00327906
5.91171e-05
0.00333384
4.06412e-05
0.00334514
3.38071e-05
0.00332342
3.41879e-05
0.00327439
3.84438e-05
0.0032023
4.29634e-05
0.00311379
4.53522e-05
0.0030176
4.55059e-05
0.00292333
4.34918e-05
0.00283767
3.91469e-05
0.0027624
3.23517e-05
0.00269559
2.35171e-05
0.0026338
1.34797e-05
0.00257362
3.22117e-06
0.00251329
-5.58544e-06
0.00245214
-1.2352e-05
0.00239018
-1.67945e-05
0.00232876
-1.83351e-05
0.0022714
-1.64234e-05
0.00222421
-1.04916e-05
0.00219609
-1.11394e-08
0.002197
1.77056e-05
0.00223169
3.85445e-05
0.00230182
4.84927e-05
0.00238918
2.55136e-05
0.00245347
-4.95945e-05
0.00242565
-0.000174279
0.00225565
-0.000360451
0.00187324
-0.000593226
0.00106795
-0.000923182
-0.00135407
0.0034344
-0.00147522
0.00221006
0.00280128
0.00314929
0.00342444
0.00359822
0.00370116
0.00375778
0.00378197
0.00378627
0.00378273
0.00377898
0.00377932
0.00378442
0.00379247
0.0038015
0.00380948
0.00381413
0.00381296
0.00380389
0.00378563
0.00375788
0.00372205
0.00368018
0.00363457
0.00358812
0.0035443
0.00350713
0.0034812
0.0034738
0.0034881
0.00351314
0.00351583
0.00344384
0.00324748
0.00286509
0.00224989
0.00130556
)
;

boundaryField
{
    floor
    {
        type            calculated;
        value           nonuniform List<scalar> 
29
(
0
0
0
0
0
0
0
0
0
0
0
0
0
0
0
0
0
0
0
0
-3.03746e-06
-8.62321e-06
-8.79723e-06
-7.17095e-06
-1.7232e-06
-3.39314e-06
-9.08107e-06
-1.09291e-05
-8.89209e-06
)
;
    }
    ceiling
    {
        type            calculated;
        value           nonuniform List<scalar> 
43
(
5.3942e-05
3.53634e-05
2.09956e-05
2.11363e-05
2.37235e-05
2.64799e-05
2.90879e-05
3.1443e-05
3.35063e-05
3.52543e-05
3.66521e-05
3.76569e-05
3.82394e-05
3.83939e-05
3.81498e-05
3.75721e-05
3.67486e-05
3.57799e-05
3.4762e-05
3.37686e-05
3.28413e-05
3.19927e-05
3.12157e-05
3.04757e-05
2.97552e-05
2.90481e-05
2.83433e-05
2.76294e-05
2.68976e-05
2.61417e-05
2.5317e-05
2.44612e-05
2.36594e-05
2.30342e-05
2.25941e-05
2.22798e-05
2.21304e-05
2.2152e-05
2.13218e-05
2.2733e-05
1.26319e-05
1.05585e-05
1.42474e-05
)
;
    }
    sWall
    {
        type            calculated;
        value           uniform -0.000127552;
    }
    nWall
    {
        type            calculated;
        value           nonuniform List<scalar> 6(-3.71807e-05 -3.6287e-05 -4.38284e-05 -4.40936e-05 -5.16607e-05 -7.10782e-05);
    }
    sideWalls
    {
        type            empty;
        value           nonuniform 0();
    }
    glass1
    {
        type            calculated;
        value           nonuniform List<scalar> 9(-5.99798e-05 -0.000151087 -0.000220673 -0.000277133 -0.000325429 -0.000368059 -0.000408282 -0.000460696 -0.000520825);
    }
    glass2
    {
        type            calculated;
        value           nonuniform List<scalar> 2(-0.000186293 -0.000202837);
    }
    sun
    {
        type            calculated;
        value           uniform 0;
    }
    heatsource1
    {
        type            calculated;
        value           nonuniform List<scalar> 3(2.02972e-07 2.0319e-07 2.0409e-07);
    }
    heatsource2
    {
        type            calculated;
        value           nonuniform List<scalar> 4(5.09871e-08 5.11366e-08 0 0);
    }
    Table_master
    {
        type            calculated;
        value           nonuniform List<scalar> 9(-1.53681e-07 -1.53687e-07 -1.53661e-07 -1.53606e-07 -1.53523e-07 -1.53425e-07 -1.53325e-07 -1.5322e-07 -1.53056e-07);
    }
    Table_slave
    {
        type            calculated;
        value           nonuniform List<scalar> 9(1.52432e-07 1.52485e-07 1.52536e-07 1.52592e-07 1.52649e-07 1.52701e-07 1.52742e-07 1.52766e-07 1.52743e-07);
    }
    inlet
    {
        type            calculated;
        value           uniform 0.000993008;
    }
    outlet
    {
        type            calculated;
        value           nonuniform List<scalar> 2(-0.00336042 0.00487465);
    }
}


// ************************************************************************* //
