/*--------------------------------*- C++ -*----------------------------------*\
  =========                 |
  \\      /  F ield         | OpenFOAM: The Open Source CFD Toolbox
   \\    /   O peration     | Website:  https://openfoam.org
    \\  /    A nd           | Version:  6
     \\/     M anipulation  |
\*---------------------------------------------------------------------------*/
FoamFile
{
    version     2.0;
    format      ascii;
    class       volScalarField;
    location    "400";
    object      nut;
}
// * * * * * * * * * * * * * * * * * * * * * * * * * * * * * * * * * * * * * //

dimensions      [0 2 -1 0 0 0 0];

internalField   nonuniform List<scalar> 
459
(
0.000728833
0.000777272
0.000738574
0.000702523
0.000663572
0.000642295
0.000628975
0.000617451
0.000607384
0.000600528
0.000597551
0.000598198
0.000601564
0.000606902
0.000617135
0.000457921
0.000428071
0.000239185
0.000198521
0.00019265
0.000195651
0.000204178
0.000216996
0.000226749
0.000244678
0.000271146
0.000300024
0.000319091
0.000333029
0.000361099
0.000411726
0.000475924
0.000620231
0.000582007
0.00108477
0.00309195
0.00321734
0.00320721
0.00298458
0.00280974
0.00273522
0.00274521
0.00271211
0.00257363
0.00237059
0.00213725
0.00188324
0.00158732
0.00118923
0.000710675
0.000641675
0.000680345
0.00162072
0.000783808
0.000610194
0.00049435
0.000347744
0.000273759
0.000309217
0.0003864
0.000524252
0.000716143
0.000927526
0.00108935
0.00122125
0.00139812
0.00183265
0.0019492
0.00245993
0.000848894
0.00118002
0.00395746
0.00459463
0.00504351
0.0047927
0.00426648
0.00380115
0.00364649
0.00377998
0.00381059
0.00365425
0.00336408
0.00299755
0.00257286
0.00207162
0.00150066
0.000849033
0.000824964
0.00179469
0.0011759
0.00110333
0.000888557
0.000663096
0.000288909
0.000334234
0.000378797
0.000423533
0.000473237
0.000531976
0.000606294
0.000710625
0.000872544
0.00256783
0.00293633
0.00376821
0.00109472
0.00172988
0.00223667
0.00254301
0.00318299
0.00384003
0.00422434
0.00430962
0.00416348
0.00417273
0.004438
0.00458087
0.00450262
0.00425905
0.00389189
0.00338094
0.00264629
0.00164492
0.000876182
0.00170583
0.00196583
0.00157442
0.0011951
0.000927337
0.000735485
0.000600216
0.000626577
0.000656872
0.000692879
0.000735252
0.000786487
0.00085157
0.0009398
0.001071
0.00295175
0.00326319
0.00391854
0.00120067
0.00263795
0.00265838
0.00247776
0.00257504
0.00302796
0.00358241
0.00396637
0.00401693
0.00400149
0.00447615
0.00495827
0.0052356
0.00531891
0.00530163
0.00522609
0.00506576
0.00472264
0.0041981
0.00387055
0.00362849
0.00339462
0.00321464
0.0031228
0.00310252
0.00312266
0.00319357
0.00325174
0.00328708
0.00330899
0.00332642
0.00334412
0.00336833
0.00340435
0.00344974
0.00320331
0.00281448
0.00229073
0.00152618
0.001644
0.00166773
0.00301247
0.00317092
0.00277582
0.00256935
0.002803
0.00329034
0.00370767
0.00385081
0.00385355
0.00411397
0.0048167
0.00539027
0.00572708
0.00594819
0.00608683
0.00613145
0.006021
0.00572299
0.00537171
0.00510424
0.00493941
0.00483929
0.0047949
0.00480049
0.00483564
0.00488329
0.00492676
0.00495396
0.0049697
0.00497428
0.00496567
0.00494192
0.00490168
0.00484155
0.0047577
0.00470395
0.00473801
0.00498443
0.0053402
0.0021229
0.00338252
0.00371853
0.00333363
0.00269937
0.00279026
0.00325336
0.0036715
0.00385021
0.00391293
0.00414285
0.00465004
0.00520499
0.00566652
0.00606242
0.00638572
0.00660348
0.00668591
0.0066056
0.00643734
0.00627991
0.00616349
0.00607822
0.00602198
0.00599656
0.00599173
0.00599545
0.00599778
0.00599602
0.00599179
0.00598542
0.00597692
0.00596922
0.00596972
0.00598721
0.00602404
0.00607691
0.00616309
0.00657987
0.00775623
0.00253795
0.00384416
0.00443861
0.00516395
0.00292203
0.00301517
0.00354021
0.00400856
0.00421639
0.0043519
0.00456127
0.0048689
0.00523329
0.00561537
0.0059925
0.0063615
0.00670217
0.00696581
0.00710495
0.0071386
0.00712319
0.00709089
0.00705073
0.00701254
0.00698191
0.00695403
0.00692183
0.0068836
0.00683983
0.00679248
0.00674141
0.0066849
0.0066252
0.00657185
0.00654286
0.00656473
0.00666449
0.00681434
0.00705937
0.00884026
0.00298834
0.00453054
0.00570687
0.0104509
0.00428149
0.00331647
0.00432737
0.00489043
0.00508114
0.00520614
0.00542092
0.00572042
0.00603917
0.00632917
0.00658427
0.00682463
0.00706577
0.00729721
0.00748936
0.00762723
0.0077183
0.00777434
0.00780416
0.00781638
0.00781779
0.00780995
0.00778598
0.00774626
0.00769313
0.00762864
0.00755184
0.00745909
0.00734988
0.00722903
0.00710881
0.00701541
0.00700206
0.00713761
0.00746661
0.00876628
0.00299279
0.0177595
0.0111584
0.00508601
0.00616074
0.0069736
0.00721008
0.00740369
0.00763431
0.00786622
0.00805838
0.00819397
0.00828143
0.00834327
0.00840187
0.0084685
0.00854127
0.00861291
0.00867778
0.00873273
0.00877639
0.00880905
0.00883193
0.00884573
0.00884826
0.00883305
0.00880103
0.00875021
0.00867344
0.00856762
0.00843354
0.00827456
0.00809779
0.00791873
0.00776849
0.00769588
0.00773291
0.00746057
0.00215415
0.00590573
0.00833261
0.0075535
0.00765573
0.00815276
0.00864762
0.00906953
0.00940178
0.00962823
0.00974522
0.00977047
0.00973657
0.00967846
0.00962306
0.00958453
0.00956574
0.00956357
0.00957293
0.00958878
0.00960726
0.00962606
0.00964413
0.00966166
0.00968012
0.00970032
0.00971992
0.00972317
0.00968487
0.00961149
0.00951152
0.00939155
0.00925577
0.00910673
0.00894614
0.00876821
0.00854774
0.00745557
0.00209155
0.00183891
0.00180145
0.0031932
0.00303646
0.0028087
0.00261453
0.0024995
0.00244037
0.0024155
0.00240769
0.00240642
0.00240573
0.0024021
0.00239407
0.00238207
0.00236773
0.00235289
0.0023389
0.00232639
0.00231547
0.00230595
0.00229749
0.00228977
0.0022825
0.00227548
0.00226845
0.00226143
0.00225407
0.00224663
0.00224022
0.00223274
0.00222371
0.0022135
0.00220283
0.00219247
0.00218325
0.00217743
0.00218316
0.00209494
0.00187032
)
;

boundaryField
{
    floor
    {
        type            nutkWallFunction;
        Cmu             0.09;
        kappa           0.41;
        E               9.8;
        value           nonuniform List<scalar> 
29
(
7.44321e-05
5.42023e-05
5.03085e-05
2.48372e-05
1.90561e-05
1.82078e-05
1.86397e-05
1.98654e-05
2.17017e-05
2.30888e-05
2.56168e-05
2.93044e-05
3.3275e-05
3.58699e-05
3.77541e-05
4.15195e-05
4.82168e-05
5.65623e-05
7.4843e-05
7.00556e-05
7.00555e-05
0.000102804
0.000131894
0.000144195
7.44321e-05
5.42022e-05
8.22624e-05
9.99011e-05
0.000106068
)
;
    }
    ceiling
    {
        type            nutkWallFunction;
        Cmu             0.09;
        kappa           0.41;
        E               9.8;
        value           nonuniform List<scalar> 
43
(
0.000216486
0.000212309
0.000361359
0.000344945
0.000320954
0.000300343
0.000288046
0.000281691
0.000278999
0.00027814
0.000277987
0.000277898
0.000277496
0.000276623
0.000275325
0.000273776
0.000272172
0.00027066
0.000269307
0.000268125
0.000267092
0.000266175
0.000265336
0.000264547
0.000263783
0.000263019
0.000262255
0.000261455
0.000260647
0.000259949
0.000259135
0.000258154
0.000257045
0.000255887
0.00025476
0.000253758
0.000253122
0.000253735
0.000244156
0.00021958
0.000497556
0.000614399
0.000634178
)
;
    }
    sWall
    {
        type            nutkWallFunction;
        Cmu             0.09;
        kappa           0.41;
        E               9.8;
        value           uniform 0.000216515;
    }
    nWall
    {
        type            nutkWallFunction;
        Cmu             0.09;
        kappa           0.41;
        E               9.8;
        value           nonuniform List<scalar> 6(0.000197136 0.000247172 0.000291801 0.000250586 0.000243784 0.000219587);
    }
    sideWalls
    {
        type            empty;
    }
    glass1
    {
        type            nutkWallFunction;
        Cmu             0.09;
        kappa           0.41;
        E               9.8;
        value           nonuniform List<scalar> 9(8.82341e-05 0.000130793 0.000141879 0.00020419 0.00030269 0.000342188 0.000380718 0.00042819 0.000497738);
    }
    glass2
    {
        type            nutkWallFunction;
        Cmu             0.09;
        kappa           0.41;
        E               9.8;
        value           nonuniform List<scalar> 2(0.000339249 0.00033972);
    }
    sun
    {
        type            nutkWallFunction;
        Cmu             0.09;
        kappa           0.41;
        E               9.8;
        value           nonuniform List<scalar> 
14
(
8.82494e-05
9.41532e-05
8.94379e-05
8.50162e-05
8.02075e-05
7.75654e-05
7.59068e-05
7.44694e-05
7.32118e-05
7.23539e-05
7.19812e-05
7.20625e-05
7.24843e-05
7.31527e-05
)
;
    }
    heatsource1
    {
        type            nutkWallFunction;
        Cmu             0.09;
        kappa           0.41;
        E               9.8;
        value           nonuniform List<scalar> 3(0.000181298 0.000194501 0.000197151);
    }
    heatsource2
    {
        type            nutkWallFunction;
        Cmu             0.09;
        kappa           0.41;
        E               9.8;
        value           nonuniform List<scalar> 4(8.60057e-05 7.74873e-05 7.74873e-05 0.00010281);
    }
    Table_master
    {
        type            nutkWallFunction;
        Cmu             0.09;
        kappa           0.41;
        E               9.8;
        value           nonuniform List<scalar> 9(3.17069e-05 3.78781e-05 4.38383e-05 4.97306e-05 5.61855e-05 6.3706e-05 7.30771e-05 8.60029e-05 0.000105631);
    }
    Table_slave
    {
        type            nutkWallFunction;
        Cmu             0.09;
        kappa           0.41;
        E               9.8;
        value           nonuniform List<scalar> 9(7.22862e-05 7.55816e-05 7.93479e-05 8.37969e-05 8.89976e-05 9.52383e-05 0.000103097 0.00011364 0.000129111);
    }
    inlet
    {
        type            calculated;
        value           uniform 0.0177595;
    }
    outlet
    {
        type            calculated;
        value           nonuniform List<scalar> 2(0.00183891 0.00180145);
    }
}


// ************************************************************************* //
