// -*- C++ -*-
// File generated by PyFoam - sorry for the ugliness

FoamFile
{
 version 2.0;
 format ascii;
 class volVectorField;
 location "900";
 object U;
}

dimensions [ 0 1 -1 0 0 0 0 ];

internalField nonuniform List<vector> 459
(
  (0.194478 -0.239362 0)
  (0.331134 -0.160544 0)
  (0.458412 -0.105051 0)
  (0.535665 -0.0710229 0)
  (0.571443 -0.0502156 0)
  (0.585008 -0.0366146 0)
  (0.588268 -0.0269023 0)
  (0.583756 -0.0187792 0)
  (0.572311 -0.0112171 0)
  (0.55311 -0.00338701 0)
  (0.524276 0.00570189 0)
  (0.482443 0.0176511 0)
  (0.421443 0.0360252 0)
  (0.324789 0.072848 0)
  (0.253538 0.174454 0)
  (-0.12843 0.0223183 0)
  (-0.0432534 0.0158656 0)
  (-0.0836174 -0.0122475 0)
  (-0.0622757 -0.0333973 0)
  (-0.026105 -0.0498511 0)
  (0.0380855 -0.0494032 0)
  (0.0701237 -0.0288276 0)
  (0.0961244 -0.0176845 0)
  (0.111424 -0.0123748 0)
  (0.11827 -0.00866822 0)
  (0.11926 -0.0051046 0)
  (0.115446 -0.00144728 0)
  (0.107946 0.0020934 0)
  (0.0973444 0.00539913 0)
  (0.0838453 0.00858721 0)
  (0.0669873 0.0123113 0)
  (0.0538957 0.0148601 0)
  (-0.0584909 0.0243181 0)
  (0.212751 -0.012985 0)
  (0.129515 -0.371286 0)
  (0.236619 -0.228949 0)
  (0.339501 -0.122151 0)
  (0.39762 -0.0587421 0)
  (0.421563 -0.0232735 0)
  (0.429425 -0.00232764 0)
  (0.431447 0.0118031 0)
  (0.428824 0.022307 0)
  (0.421626 0.0316917 0)
  (0.40926 0.0419921 0)
  (0.390793 0.0552301 0)
  (0.365171 0.0738425 0)
  (0.332762 0.101479 0)
  (0.296069 0.144817 0)
  (0.285136 0.224682 0)
  (0.264491 0.198186 0)
  (0.158056 0.162249 0)
  (-0.207875 0.0475437 0)
  (0.00138448 0.0436348 0)
  (-0.0368447 0.00352321 0)
  (0.000691464 -0.0498916 0)
  (0.0312919 -0.0740862 0)
  (0.0615501 -0.0737538 0)
  (0.077168 -0.0390672 0)
  (0.0831344 -0.0168676 0)
  (0.0856025 -0.00739699 0)
  (0.0874691 -0.000932377 0)
  (0.0875626 0.00518927 0)
  (0.0856878 0.00999924 0)
  (0.083682 0.0133064 0)
  (0.0824409 0.015891 0)
  (0.0810552 0.0194104 0)
  (0.0750384 0.0281164 0)
  (0.0693823 0.0354338 0)
  (-0.0343459 0.0432211 0)
  (0.274344 0.0151611 0)
  (0.0854456 -0.514459 0)
  (0.15143 -0.336892 0)
  (0.222652 -0.187546 0)
  (0.252587 -0.0989783 0)
  (0.256192 -0.0519244 0)
  (0.252837 -0.0255168 0)
  (0.250505 -0.0080214 0)
  (0.251648 0.00696371 0)
  (0.253704 0.0220502 0)
  (0.254522 0.0391975 0)
  (0.252765 0.0603219 0)
  (0.247817 0.0874598 0)
  (0.240287 0.122757 0)
  (0.229887 0.167581 0)
  (0.226656 0.222855 0)
  (0.199211 0.206843 0)
  (0.145794 0.229775 0)
  (-0.263939 0.0524298 0)
  (0.0488451 0.0282419 0)
  (0.0407581 -0.0308622 0)
  (0.0606101 -0.0755589 0)
  (0.0776102 -0.0963738 0)
  (0.0949333 -0.101419 0)
  (0.0946887 -0.0740378 0)
  (0.0626125 -0.0429815 0)
  (0.0371201 -0.0242463 0)
  (0.0283499 -0.0121224 0)
  (0.0312009 -0.00282868 0)
  (0.0379173 0.00298816 0)
  (0.046513 0.00602064 0)
  (0.0580848 0.00819463 0)
  (0.0736934 0.0131941 0)
  (0.081089 0.0353081 0)
  (0.0829394 0.0498388 0)
  (-0.00969796 0.0625085 0)
  (0.309306 0.0569278 0)
  (0.0514379 -0.601669 0)
  (0.0789465 -0.398443 0)
  (0.11937 -0.202924 0)
  (0.116033 -0.0879043 0)
  (0.0948452 -0.0352746 0)
  (0.0847285 -0.0121591 0)
  (0.085778 -0.000587019 0)
  (0.0978113 0.00891483 0)
  (0.112136 0.0211046 0)
  (0.125093 0.0375741 0)
  (0.136111 0.0594536 0)
  (0.145284 0.0878681 0)
  (0.153003 0.123616 0)
  (0.158616 0.166415 0)
  (0.171082 0.216475 0)
  (0.18141 0.234036 0)
  (0.190345 0.269901 0)
  (0.224913 0.156132 0)
  (0.0229668 0.0706051 0)
  (0.0845452 -0.00291024 0)
  (0.111947 -0.0560038 0)
  (0.119162 -0.0893698 0)
  (0.117705 -0.10258 0)
  (0.105506 -0.098668 0)
  (0.107079 -0.0578232 0)
  (0.137128 -0.0345489 0)
  (0.158448 -0.0219051 0)
  (0.166401 -0.0142817 0)
  (0.166273 -0.00875784 0)
  (0.161348 -0.00412264 0)
  (0.15252 0.000137753 0)
  (0.138993 0.00480706 0)
  (0.119542 0.0108738 0)
  (0.0981212 0.0358155 0)
  (0.0972155 0.0572216 0)
  (0.0192048 0.0753424 0)
  (0.327622 0.116208 0)
  (0.0191796 -0.645663 0)
  (0.0163128 -0.426709 0)
  (0.0323393 -0.184635 0)
  (-0.00204342 -0.0484693 0)
  (-0.0287181 -0.0191714 0)
  (-0.0305437 -0.0132542 0)
  (-0.0226527 -0.0127589 0)
  (-0.00995613 -0.00967234 0)
  (0.00910777 0.00211538 0)
  (0.0284318 0.0211247 0)
  (0.0453659 0.0453675 0)
  (0.0617186 0.0751363 0)
  (0.0783833 0.110855 0)
  (0.0954388 0.152195 0)
  (0.120592 0.199045 0)
  (0.147245 0.224018 0)
  (0.17306 0.23854 0)
  (0.205332 0.152028 0)
  (0.176166 0.0865726 0)
  (0.190732 0.0171586 0)
  (0.186733 -0.0425479 0)
  (0.173727 -0.0786561 0)
  (0.157736 -0.0896928 0)
  (0.140303 -0.0792179 0)
  (0.132792 -0.0461391 0)
  (0.136201 -0.0217756 0)
  (0.138722 -0.00785919 0)
  (0.135825 0.000835745 0)
  (0.128617 0.00745569 0)
  (0.119827 0.012943 0)
  (0.110109 0.0181185 0)
  (0.0996406 0.0241074 0)
  (0.088885 0.0326301 0)
  (0.0811303 0.0490039 0)
  (0.0894896 0.0637286 0)
  (0.0534056 0.0710528 0)
  (0.184566 0.118504 0)
  (0.163539 0.104904 0)
  (-0.165823 0.0972459 0)
  (0.58904 0.00446563 0)
  (-0.016347 -0.64361 0)
  (-0.0384172 -0.421709 0)
  (-0.0340219 -0.152568 0)
  (-0.0735347 -0.0268747 0)
  (-0.0996931 -0.0155884 0)
  (-0.0998232 -0.0203135 0)
  (-0.0908083 -0.0254433 0)
  (-0.0782321 -0.0253413 0)
  (-0.0638973 -0.0169461 0)
  (-0.0465117 0.000752309 0)
  (-0.0274183 0.0253689 0)
  (-0.00882031 0.0547632 0)
  (0.0133336 0.0909754 0)
  (0.036518 0.129327 0)
  (0.0674157 0.169716 0)
  (0.0995226 0.190979 0)
  (0.135151 0.194973 0)
  (0.171243 0.138668 0)
  (0.185095 0.075824 0)
  (0.197458 0.00990019 0)
  (0.192976 -0.0400194 0)
  (0.1771 -0.0662238 0)
  (0.155684 -0.0716028 0)
  (0.133275 -0.0610976 0)
  (0.115685 -0.0389031 0)
  (0.105025 -0.0185844 0)
  (0.09674 -0.00427717 0)
  (0.0872716 0.00602154 0)
  (0.0785895 0.0136423 0)
  (0.0706877 0.0196514 0)
  (0.0635972 0.0251012 0)
  (0.0574316 0.0310775 0)
  (0.052566 0.0387029 0)
  (0.0508092 0.04951 0)
  (0.0594046 0.0582867 0)
  (0.0421448 0.053688 0)
  (0.0811169 0.0860827 0)
  (0.0973946 0.0942896 0)
  (-0.189165 0.10461 0)
  (0.535679 -0.0381941 0)
  (-0.0646269 -0.579917 0)
  (-0.106291 -0.382591 0)
  (-0.094625 -0.133979 0)
  (-0.119632 0.0118098 0)
  (-0.158101 -0.00634768 0)
  (-0.154254 -0.0263185 0)
  (-0.141775 -0.0378611 0)
  (-0.128102 -0.0395357 0)
  (-0.114992 -0.032017 0)
  (-0.101589 -0.0161583 0)
  (-0.0849678 0.00710313 0)
  (-0.0676623 0.0346202 0)
  (-0.0468088 0.0658592 0)
  (-0.0225796 0.0992955 0)
  (0.0122217 0.135523 0)
  (0.0474516 0.153282 0)
  (0.0882766 0.152688 0)
  (0.125125 0.109505 0)
  (0.148699 0.0546087 0)
  (0.159473 0.00286476 0)
  (0.15398 -0.031464 0)
  (0.136453 -0.0474519 0)
  (0.112922 -0.0485138 0)
  (0.0885454 -0.0387404 0)
  (0.0675133 -0.0221416 0)
  (0.0516507 -0.00544843 0)
  (0.0389005 0.00742429 0)
  (0.0307728 0.015671 0)
  (0.0248554 0.0212452 0)
  (0.0204495 0.0256616 0)
  (0.0172761 0.0297971 0)
  (0.0153693 0.0342668 0)
  (0.0149933 0.0395458 0)
  (0.0171569 0.0460693 0)
  (0.0256477 0.0514722 0)
  (0.0176919 0.0489038 0)
  (0.0314032 0.0788801 0)
  (0.0782759 0.11801 0)
  (-0.248438 0.144131 0)
  (0.618056 -0.0538498 0)
  (-0.148373 -0.44157 0)
  (-0.250803 -0.304277 0)
  (-0.265674 -0.145518 0)
  (-0.174073 0.0460867 0)
  (-0.223956 -0.00923264 0)
  (-0.200634 -0.0404094 0)
  (-0.180429 -0.0530461 0)
  (-0.164862 -0.0531179 0)
  (-0.152781 -0.0445409 0)
  (-0.142373 -0.029449 0)
  (-0.131218 -0.00884791 0)
  (-0.116153 0.0163659 0)
  (-0.09848 0.04357 0)
  (-0.0757823 0.0712932 0)
  (-0.0444634 0.098317 0)
  (-0.00820345 0.113958 0)
  (0.0359935 0.110459 0)
  (0.0692936 0.0754915 0)
  (0.0895578 0.0347701 0)
  (0.0939426 0.00166086 0)
  (0.0858895 -0.0183636 0)
  (0.0675606 -0.0263708 0)
  (0.0446928 -0.024574 0)
  (0.0218961 -0.0157496 0)
  (0.00178591 -0.00273515 0)
  (-0.0127107 0.00918367 0)
  (-0.019499 0.0164374 0)
  (-0.0232845 0.0211017 0)
  (-0.0252327 0.0246648 0)
  (-0.0258709 0.0277712 0)
  (-0.025324 0.0307085 0)
  (-0.0234157 0.0336592 0)
  (-0.0197459 0.0367921 0)
  (-0.0134271 0.040439 0)
  (-0.00213575 0.0445099 0)
  (0.00221439 0.046435 0)
  (0.020735 0.072932 0)
  (0.098486 0.124364 0)
  (-0.224502 0.138154 0)
  (1.10619 0.0443182 0)
  (-0.298108 -0.300138 0)
  (-0.562644 -0.287815 0)
  (-0.747675 -0.266316 0)
  (-0.183411 -0.0585173 0)
  (-0.270515 -0.0511697 0)
  (-0.223889 -0.0653282 0)
  (-0.200705 -0.068456 0)
  (-0.187559 -0.0614158 0)
  (-0.179205 -0.0487844 0)
  (-0.172728 -0.0331218 0)
  (-0.16588 -0.0153139 0)
  (-0.156067 0.00458756 0)
  (-0.142411 0.0263165 0)
  (-0.123229 0.0477964 0)
  (-0.0967006 0.0666851 0)
  (-0.0645616 0.0769417 0)
  (-0.0286631 0.0738721 0)
  (-0.00160437 0.0523591 0)
  (0.0109353 0.0285775 0)
  (0.00932322 0.0110938 0)
  (-0.000567366 0.000544051 0)
  (-0.0170243 -0.00229345 0)
  (-0.0354833 0.000895501 0)
  (-0.0518526 0.00715786 0)
  (-0.0629173 0.013667 0)
  (-0.0684646 0.0186748 0)
  (-0.0705425 0.0221221 0)
  (-0.0706798 0.0248562 0)
  (-0.0694285 0.0272255 0)
  (-0.0670062 0.0293189 0)
  (-0.0633752 0.0311244 0)
  (-0.0582826 0.0326131 0)
  (-0.0512606 0.0338065 0)
  (-0.0415215 0.0348707 0)
  (-0.0282232 0.0359464 0)
  (-0.0149758 0.0361492 0)
  (0.0137932 0.0497437 0)
  (0.0891951 0.0935988 0)
  (-0.187303 0.0863678 0)
  (1.08172 0.0908434 0)
  (-1.56392 -0.257345 0)
  (-0.00965577 -0.171344 0)
  (-0.209131 -0.124104 0)
  (-0.200144 -0.112885 0)
  (-0.193376 -0.100314 0)
  (-0.193766 -0.0801053 0)
  (-0.196936 -0.05642 0)
  (-0.199422 -0.0318778 0)
  (-0.199112 -0.007674 0)
  (-0.194407 0.0149529 0)
  (-0.1839 0.032998 0)
  (-0.168853 0.0459647 0)
  (-0.148647 0.0556169 0)
  (-0.12459 0.0596845 0)
  (-0.100354 0.0565597 0)
  (-0.0835537 0.0464873 0)
  (-0.0771702 0.0358755 0)
  (-0.0795519 0.0279309 0)
  (-0.0871427 0.023722 0)
  (-0.0965586 0.0232818 0)
  (-0.104881 0.0252812 0)
  (-0.110608 0.0282992 0)
  (-0.113293 0.0312834 0)
  (-0.113376 0.0336331 0)
  (-0.111695 0.0352828 0)
  (-0.108802 0.0364738 0)
  (-0.104917 0.0372523 0)
  (-0.100131 0.0375558 0)
  (-0.0944523 0.0372784 0)
  (-0.0878358 0.0363034 0)
  (-0.0801818 0.0344912 0)
  (-0.0713531 0.0316155 0)
  (-0.0613462 0.027503 0)
  (-0.050114 0.0236211 0)
  (-0.0311357 0.0306661 0)
  (-0.0111873 0.0614615 0)
  (-0.258558 0.0483916 0)
  (0.665982 0.12876 0)
  (-0.515016 -0.0386209 0)
  (0.127849 -0.182192 0)
  (-0.090705 -0.165283 0)
  (-0.124915 -0.161269 0)
  (-0.146219 -0.16226 0)
  (-0.168647 -0.165048 0)
  (-0.191244 -0.166972 0)
  (-0.210479 -0.167729 0)
  (-0.224409 -0.166073 0)
  (-0.231428 -0.159792 0)
  (-0.230603 -0.145893 0)
  (-0.222616 -0.124489 0)
  (-0.208904 -0.107574 0)
  (-0.191373 -0.0970949 0)
  (-0.173345 -0.0935339 0)
  (-0.158898 -0.0962712 0)
  (-0.149812 -0.102192 0)
  (-0.14561 -0.109334 0)
  (-0.144814 -0.116309 0)
  (-0.145657 -0.121888 0)
  (-0.146573 -0.125752 0)
  (-0.146597 -0.12821 0)
  (-0.145342 -0.129725 0)
  (-0.142855 -0.130656 0)
  (-0.139355 -0.131195 0)
  (-0.13502 -0.131444 0)
  (-0.129964 -0.131596 0)
  (-0.124305 -0.131923 0)
  (-0.118226 -0.132751 0)
  (-0.112061 -0.134426 0)
  (-0.106423 -0.137253 0)
  (-0.1021 -0.141165 0)
  (-0.0990551 -0.144333 0)
  (-0.0947238 -0.139783 0)
  (-0.0875653 -0.114628 0)
  (-0.0988903 -0.0705623 0)
  (-0.199639 -0.0584297 0)
  (0.494582 0.0127992 0)
  (-0.917062 -0.0163836 0)
  (0.352964 0.219386 0)
  (0.12091 0.473004 0)
  (0.141865 0.460435 0)
  (0.0782511 0.436059 0)
  (-0.0224325 0.41798 0)
  (-0.0933104 0.407695 0)
  (-0.146352 0.415761 0)
  (-0.189897 0.426943 0)
  (-0.222658 0.437981 0)
  (-0.246422 0.446302 0)
  (-0.262553 0.44901 0)
  (-0.271342 0.44306 0)
  (-0.271999 0.428786 0)
  (-0.265632 0.419602 0)
  (-0.254201 0.415492 0)
  (-0.240292 0.415911 0)
  (-0.226575 0.420121 0)
  (-0.214593 0.426911 0)
  (-0.204771 0.435403 0)
  (-0.196924 0.444595 0)
  (-0.19047 0.453401 0)
  (-0.184723 0.461184 0)
  (-0.179164 0.467803 0)
  (-0.173506 0.473369 0)
  (-0.167647 0.478054 0)
  (-0.161578 0.482004 0)
  (-0.155313 0.485353 0)
  (-0.148901 0.488258 0)
  (-0.142444 0.490908 0)
  (-0.136115 0.493554 0)
  (-0.130198 0.496561 0)
  (-0.125113 0.500351 0)
  (-0.120967 0.504837 0)
  (-0.116363 0.507535 0)
  (-0.109429 0.50111 0)
  (-0.108764 0.478266 0)
  (-0.145525 0.450495 0)
  (-0.205764 0.452335 0)
  (0.574236 0.492986 0)
)
;

boundaryField
{
  floor
  {
    type noSlip;
  }
  ceiling
  {
    type noSlip;
  }
  sWall
  {
    type noSlip;
  }
  nWall
  {
    type noSlip;
  }
  sideWalls
  {
    type empty;
  }
  glass1
  {
    type noSlip;
  }
  glass2
  {
    type noSlip;
  }
  sun
  {
    type noSlip;
  }
  heatsource1
  {
    type noSlip;
  }
  heatsource2
  {
    type noSlip;
  }
  Table_master
  {
    type noSlip;
  }
  Table_slave
  {
    type noSlip;
  }
  inlet
  {
    type fixedValue;
    value uniform (0.277164 -0.114805 0);
  }
  outlet
  {
    type zeroGradient;
  }
} 	// ************************************************************************* //

