/*--------------------------------*- C++ -*----------------------------------*=========                 |
  \      /  F ield         | OpenFOAM: The Open Source CFD Toolbox
   \    /   O peration     | Website:  https://openfoam.org
    \  /    A nd           | Version:  6
     \/     M anipulation  |
\*---------------------------------------------------------------------------*/
FoamFile
{
    version     2.0;
    format      ascii;
    class       volScalarField;
    location    "700";
    object      PMV;
}
// * * * * * * * * * * * * * * * * * * * * * * * * * * * * * * * * * * * * * //

dimensions      [0 0 0 0 0 0 0];

internalField   nonuniform List<scalar> 
459
(
0.7207901675335142
0.6570143277735724
0.601447381198006
0.5543593614505213
0.5269181502094226
0.5185812056093473
0.5321117972537852
0.5695166154932781
0.6343208154094228
0.7063405051508953
0.7089209569313822
0.7135656007632818
0.7166619086240436
0.7156298168133843
0.7109852700014383
0.7092770191021927
0.7434924668585517
0.753809925943053
0.7594840519178641
0.7636104752845784
0.7667051742471974
0.7682524855178834
0.7682524855178834
0.7687682502717611
0.7687682502717611
0.7682524855178834
0.7682524855178834
0.7682524855178834
0.7682524855178834
0.7677367179282719
0.7672209475042513
0.7667051742471974
0.764642052914738
0.7548416104513399
0.5934405938326192
0.654240145014811
0.6421804180994176
0.5977608905452095
0.5708633894940514
0.5611945481091307
0.5714595025457975
0.600104592126314
0.6467114981505551
0.7047922019069582
0.7084048719437891
0.7151137668525418
0.7213061876886836
0.7228542318456129
0.7197581190765092
0.7213061876886836
0.7218222051266303
0.6975729185261975
0.752778230239715
0.7605156746653173
0.7677367179282719
0.7744414750267247
0.779082947798642
0.7806300538902418
0.7816614436147956
0.7821771341720604
0.7826928218575787
0.7832085066699117
0.7832085066699117
0.7837241886078321
0.7837241886078321
0.7832085066699117
0.7811457501870468
0.7785672400388225
0.7739257415535515
0.7075792052730697
0.4283415936007524
0.6083925852133432
0.6692849634838133
0.6443402164182536
0.6262407799474824
0.6168667041707961
0.6204525163267212
0.630916164364798
0.644327798390212
0.6670976447443129
0.7053083056666132
0.7145977141897405
0.7233702411241589
0.7274982172397845
0.7274982172397845
0.7269822297760102
0.7254342510018378
0.7434924668585517
0.752778230239715
0.7636104752845784
0.7734100052299925
0.7826928218575787
0.789396499824335
0.7899121471634896
0.7899121471634896
0.7904277916106004
0.7909434331643589
0.79145907182346
0.7919747075864244
0.7924903404520208
0.7924903404520208
0.7919747075864244
0.7909434331643589
0.7873338815747583
0.7811457501870468
0.6351220631330968
0.3226367428067519
0.5520638563817839
0.6800654555523772
0.6915426750171576
0.6995539487179545
0.6996651750446609
0.6943474954266441
0.6679910565138156
0.6346228267289065
0.622238531627329
0.6490881720425011
0.7135656007632818
0.7254342510018378
0.7331738987067539
0.7352377005639986
0.7342058051340673
0.7316260184683431
0.7106229056427245
0.7254549813266129
0.7549894311408551
0.7692840121886215
0.7826928218575787
0.7945528429130113
0.8033179589198742
0.8115667071579575
0.8177527731541681
0.8223920425023278
0.8270310705987514
0.8258477327488071
0.8201574119969577
0.820186394071433
0.831428388029692
0.8399159854239989
0.8260001963671245
0.8110511824546918
0.7960996892693865
0.5714875568885782
0.24981217699242692
0.5005185788796174
0.6841228827819281
0.7089209569313822
0.7115013415425271
0.71408165882622
0.7151137668525418
0.6954833924613996
0.614862017123971
0.5833633340613883
0.6062334486316734
0.6748310874132326
0.7280142019709893
0.7398810936297333
0.7455560477338823
0.7455560477338823
0.7455560477338823
0.7512306657168143
0.7610314818159061
0.7734100052299925
0.7868182197958875
0.7997088955810373
0.8115667071579575
0.8213611145715237
0.8296082038117976
0.8363083989686565
0.8409466971978533
0.8450694230245368
0.8481613397451206
0.8502225566029801
0.8512531467110206
0.8517684371798199
0.8502225566029801
0.843008084387551
0.8195079670793437
0.7898419999060587
0.6221585849336421
0.6579888217508937
0.678967177512132
0.544864600719075
0.20167724943410648
0.45986107241058416
0.6981449047581425
0.7104691957685001
0.71408165882622
0.7192420907772212
0.7213061876886836
0.6707442115424248
0.581478547101868
0.5518867148927598
0.5769940395530502
0.6489058353118157
0.7326579413723124
0.7496830760639732
0.7589682363236353
0.7630946822331606
0.7656736192391673
0.7728942660574466
0.7832085066699117
0.7950684612711745
0.8074424270658241
0.8198147003615363
0.8301236214661473
0.8388852615458988
0.8461000741074047
0.8512531467110206
0.8548601157097416
0.8574364301474207
0.8589821819281278
0.8600126677239198
0.8605279060000682
0.8594974263661211
0.8574364301474207
0.8522837245899306
0.843008084387551
0.8191707430437728
0.7325894749112567
0.7527849836603548
0.6897831185162142
0.5773137219433697
0.17557736936064772
0.4555097058469974
0.7182100260435055
0.7166619086240436
0.7192420907772212
0.724918252620404
0.7118066461863375
0.5987009170206662
0.5361189388443948
0.524024773575479
0.5636386807137795
0.6494194551644331
0.740397012392073
0.7630946822331606
0.7770200995904325
0.7842398676698921
0.789396499824335
0.7971309056345233
0.8069268788173315
0.8177527731541681
0.8290927831594742
0.8394006249972572
0.847646027905234
0.8543448436146311
0.8589821819281278
0.8615583733017936
0.8636192708624346
0.864649701098327
0.8651649115750775
0.864649701098327
0.864649701098327
0.8631040511062477
0.8610431411931854
0.8574364301474207
0.850737853184944
0.8414620485421427
0.811448622403581
0.7857901921810275
0.6530339920885939
0.5903640325157355
0.14458239396344164
0.7050897609547359
0.7434924668585517
0.7145260057977539
0.6919323819549813
0.6119596824310991
0.5448838525061259
0.49791365495431356
0.48096251590820394
0.5055740055184185
0.5770206745528506
0.6910650768891617
0.753809925943053
0.7816614436147956
0.7986777083463454
0.8074424270658241
0.8136287764638956
0.8213611145715237
0.8301236214661473
0.8394006249972572
0.847646027905234
0.8548601157097416
0.8600126677239198
0.8636192708624346
0.8656801189558552
0.8667105244234725
0.8667105244234725
0.8667105244234725
0.8656801189558552
0.8651649115750775
0.8641344875269436
0.8625888282597509
0.8610431411931854
0.8579516838173485
0.8533142902282626
0.8471307130180566
0.8388852615458988
0.8321852620761626
0.6649104157957542
0.32585047687225377
0.11168572699064701
0.3425496182823868
0.3395943561351233
0.34860575766958163
0.3708826063488024
0.39002900273518004
0.392248770320871
0.4003477962926336
0.4401300786281062
0.5240413371701093
0.6493339356077409
0.7373014583906264
0.7775358159334166
0.8069268788173315
0.8213611145715237
0.8296082038117976
0.8357930173990226
0.8419773968561494
0.848676648536242
0.8548601157097416
0.8600126677239198
0.8636192708624346
0.8656801189558552
0.8667105244234725
0.8672257225074846
0.8667105244234725
0.8661953232391127
0.8651649115750775
0.8641344875269436
0.8631040511062477
0.8610431411931854
0.8594974263661211
0.8425481324080107
0.8107307219637486
0.7666979338298072
0.701187915120987
0.6241571681025042
0.5473307491604917
0.458478386324182
0.235080073511466
0.012744635975008384
0.09732118980579745
0.1610225563866014
0.21314643078383305
0.28012616408134755
0.37942783281112064
0.5143399759349317
0.6665931802493317
0.7202741446623346
0.7759886583307215
0.8115667071579575
0.8306390361211555
0.840431342824645
0.8466153950849532
0.8512531467110206
0.8553753847375497
0.8589821819281278
0.86207360232448
0.8641344875269436
0.8651649115750775
0.8656801189558552
0.8656801189558552
0.8656801189558552
0.8643618434593484
0.8471789630658275
0.8295313620671896
0.8121326838166321
0.7945565896949105
0.7761117804786538
0.7578341862443465
0.7412379559010499
0.7264683250171109
0.7108169002786052
0.6927914592971811
0.6777252234800258
0.6912420445240662
0.7743230408799494
0.5209307654863042
0.21510005138048824
0.4800497486480307
0.517796361345946
0.5565646149063115
0.5999694336161878
0.6459391347904212
0.6975664687917427
0.7455560477338823
0.7852712171612222
0.815690798492098
0.8313126435362781
0.8285864646737875
0.8271624514231984
0.8270764225421398
0.8262191652875
0.8245189647175868
0.8206042689576251
0.8156337896100404
0.8106219598336055
0.8042361915629505
0.7967019606048173
0.7859106858285657
0.7728285708418867
0.7566899382726132
0.7378941905635557
0.7179558534701607
0.6993196462228588
0.6872916876920011
0.6835534250258782
0.6902581390497702
0.7071170557484922
0.7337919713917778
0.7734930864771684
0.8266998166326638
0.8631040511062477
0.8656801189558552
0.7965532557279223
0.6170380112984052
0.04481231841209846
0.052723707782853325
0.1030601438506501
0.23914058338465324
0.37321253458117837
0.4453531094281908
0.48240169553719076
0.5095816689099594
0.5292752953646006
0.5412621796381749
0.5484407955266889
0.5500411694262547
0.5481296770002023
0.5468680053656032
0.5455802366775628
0.5446995478722686
0.5433498718330736
0.5410271317372559
0.5383931920341
0.5356291883791366
0.5340198372056277
0.5331704498366687
0.5319939869675966
0.5287088114383532
0.5232274826516972
0.5152017862646905
0.5048837182564379
0.49402157925057644
0.4844003952550339
0.4795894315611269
0.48172511303547116
0.4903918410118909
0.5059731331908656
0.5266005191710604
0.5489972383116641
0.5679214708466985
0.576119751155164
0.5694113298430987
0.47578745039794373
0.3864156856380572
)
;

boundaryField
{
    ".*"
    {
        type            zeroGradient;
    }
}


// ************************************************************************* //
