// -*- C++ -*-
// File generated by PyFoam - sorry for the ugliness

FoamFile
{
 version 2.0;
 format ascii;
 class volVectorField;
 location "1300";
 object U;
}

dimensions [ 0 1 -1 0 0 0 0 ];

internalField nonuniform List<vector> 459
(
  (0.0328321 0.0854852 0)
  (-0.16618 0.0257079 0)
  (-0.190837 0.0178431 0)
  (-0.22144 0.0122945 0)
  (-0.243708 0.00623363 0)
  (-0.256787 -0.000122399 0)
  (-0.259326 -0.0068253 0)
  (-0.250156 -0.0138742 0)
  (-0.229967 -0.0207674 0)
  (-0.200277 -0.0264441 0)
  (-0.164128 -0.0300644 0)
  (-0.124981 -0.0313713 0)
  (-0.0861038 -0.0308843 0)
  (-0.0522204 -0.0302334 0)
  (-0.0368596 -0.0311643 0)
  (-0.00293586 0.00748867 0)
  (-0.022632 -0.0174269 0)
  (0.000970331 -0.0262338 0)
  (0.0219895 -0.0195161 0)
  (0.0377224 -0.0131455 0)
  (0.0494184 -0.00841139 0)
  (0.0563654 -0.00503664 0)
  (0.0598488 -0.00327236 0)
  (0.0614375 -0.002514 0)
  (0.0622714 -0.00215069 0)
  (0.0628003 -0.00191639 0)
  (0.0630826 -0.00172456 0)
  (0.0630518 -0.00148765 0)
  (0.062498 -0.00103269 0)
  (0.0608518 2.32514e-05 0)
  (0.0569079 0.0022223 0)
  (0.0493427 0.00461947 0)
  (0.0414545 0.00672439 0)
  (-0.0102005 0.0204146 0)
  (0.205023 0.174647 0)
  (-0.154316 0.0672762 0)
  (-0.152761 0.0521939 0)
  (-0.184009 0.040636 0)
  (-0.205762 0.0277024 0)
  (-0.218814 0.0133822 0)
  (-0.221793 -0.00257035 0)
  (-0.213342 -0.0196684 0)
  (-0.194688 -0.035746 0)
  (-0.167722 -0.048292 0)
  (-0.1357 -0.0555453 0)
  (-0.102044 -0.0570907 0)
  (-0.0699613 -0.0536244 0)
  (-0.0431526 -0.0467354 0)
  (-0.0261367 -0.0376448 0)
  (-0.0126805 -0.018316 0)
  (-0.00701497 0.0138593 0)
  (0.0596358 0.031525 0)
  (0.0311862 -0.0198281 0)
  (0.0383222 -0.0306508 0)
  (0.0491229 -0.0260603 0)
  (0.0576032 -0.0180043 0)
  (0.0632535 -0.0106138 0)
  (0.0655016 -0.00439405 0)
  (0.0658317 -0.000937945 0)
  (0.0657455 0.000537778 0)
  (0.0658278 0.00122061 0)
  (0.065994 0.00164998 0)
  (0.0661134 0.00202275 0)
  (0.0661437 0.00250867 0)
  (0.066031 0.00344518 0)
  (0.0652431 0.00573939 0)
  (0.061357 0.0120621 0)
  (0.0515888 0.017468 0)
  (0.0451845 0.0213661 0)
  (-0.0436681 0.0440803 0)
  (0.362801 0.260956 0)
  (-0.169922 0.106653 0)
  (-0.114111 0.083977 0)
  (-0.143902 0.0634483 0)
  (-0.162834 0.0422341 0)
  (-0.174524 0.0190699 0)
  (-0.176749 -0.00679162 0)
  (-0.167379 -0.034085 0)
  (-0.148739 -0.0589458 0)
  (-0.12347 -0.0773379 0)
  (-0.0950969 -0.0869248 0)
  (-0.0665474 -0.0876942 0)
  (-0.0400811 -0.080828 0)
  (-0.0178886 -0.0679351 0)
  (-0.00167841 -0.0499864 0)
  (0.0105614 -0.0244772 0)
  (0.0171801 0.00992694 0)
  (0.105523 -0.0385191 0)
  (0.0729815 -0.0428897 0)
  (0.0690366 -0.0394246 0)
  (0.0711986 -0.0317304 0)
  (0.0727467 -0.0226616 0)
  (0.0736187 -0.0150436 0)
  (0.0719372 -0.0122387 0)
  (0.0678794 -0.00874743 0)
  (0.0650612 -0.00685466 0)
  (0.0637825 -0.00577635 0)
  (0.0632209 -0.0050922 0)
  (0.0629436 -0.00461457 0)
  (0.0629821 -0.0041523 0)
  (0.0638096 -0.00334039 0)
  (0.0666375 -0.000198925 0)
  (0.0645994 0.0170355 0)
  (0.0513484 0.0292618 0)
  (0.0507449 0.0379655 0)
  (-0.0731892 0.0691876 0)
  (0.504794 0.33017 0)
  (-0.203172 0.141337 0)
  (-0.0738494 0.11056 0)
  (-0.101366 0.0823345 0)
  (-0.114481 0.0551101 0)
  (-0.122201 0.0247814 0)
  (-0.120644 -0.0106826 0)
  (-0.107933 -0.0485322 0)
  (-0.088556 -0.0813378 0)
  (-0.0657777 -0.103982 0)
  (-0.0428517 -0.114358 0)
  (-0.0214607 -0.113644 0)
  (-0.00233665 -0.103601 0)
  (0.0138821 -0.0861319 0)
  (0.0272434 -0.064034 0)
  (0.041545 -0.0380088 0)
  (0.0635386 -0.0111867 0)
  (0.0940805 0.000813564 0)
  (0.101558 -0.0324695 0)
  (0.0879985 -0.0380729 0)
  (0.0793962 -0.0340846 0)
  (0.0751519 -0.0279348 0)
  (0.0723443 -0.0206187 0)
  (0.0709489 -0.0120969 0)
  (0.0726294 -0.0071074 0)
  (0.076777 -0.00557984 0)
  (0.0802037 -0.00472277 0)
  (0.0825011 -0.00406285 0)
  (0.0838834 -0.00322541 0)
  (0.0837982 -0.00195249 0)
  (0.0811987 -2.51261e-05 0)
  (0.0748463 0.00284574 0)
  (0.0619482 0.0071944 0)
  (0.0509862 0.0274434 0)
  (0.0403352 0.0442376 0)
  (0.0536278 0.057797 0)
  (-0.103623 0.0919846 0)
  (0.626787 0.383678 0)
  (-0.243866 0.169561 0)
  (-0.034769 0.125241 0)
  (-0.0572023 0.092519 0)
  (-0.0619594 0.0619194 0)
  (-0.0625352 0.0265361 0)
  (-0.0509683 -0.0177779 0)
  (-0.0327842 -0.0648068 0)
  (-0.0137983 -0.101994 0)
  (0.00388333 -0.125261 0)
  (0.0181844 -0.133362 0)
  (0.0294204 -0.129619 0)
  (0.0380635 -0.116989 0)
  (0.0448522 -0.0980359 0)
  (0.0509417 -0.0754183 0)
  (0.0582921 -0.0518021 0)
  (0.0694992 -0.0326466 0)
  (0.0799251 -0.0283504 0)
  (0.0814322 -0.0343192 0)
  (0.07487 -0.0332665 0)
  (0.0668218 -0.0284705 0)
  (0.0606385 -0.0230187 0)
  (0.0562462 -0.0173443 0)
  (0.0538667 -0.0114708 0)
  (0.0539039 -0.00625897 0)
  (0.0560113 -0.00385549 0)
  (0.0583706 -0.00299014 0)
  (0.0606585 -0.00227329 0)
  (0.0627794 -0.000761357 0)
  (0.0643555 0.00209294 0)
  (0.064226 0.00641108 0)
  (0.0618079 0.0123605 0)
  (0.0564091 0.0205943 0)
  (0.0498683 0.0359984 0)
  (0.0408944 0.0544849 0)
  (0.0618809 0.0749497 0)
  (-0.0170769 0.104171 0)
  (0.0455529 0.0341593 0)
  (-0.0610475 -0.034249 0)
  (-0.268826 -0.0565348 0)
  (0.71455 0.4282 0)
  (-0.283153 0.188337 0)
  (-0.00563685 0.120074 0)
  (-0.0116458 0.0916144 0)
  (-0.00479318 0.0618417 0)
  (0.00581578 0.0194203 0)
  (0.0352732 -0.0355951 0)
  (0.0563207 -0.0835141 0)
  (0.0709874 -0.117326 0)
  (0.0793111 -0.135886 0)
  (0.0821184 -0.140477 0)
  (0.0809434 -0.133886 0)
  (0.0771561 -0.119149 0)
  (0.0721801 -0.0992595 0)
  (0.0674978 -0.0770957 0)
  (0.0644574 -0.0553345 0)
  (0.0639303 -0.0377048 0)
  (0.0634896 -0.0287996 0)
  (0.0594586 -0.0266457 0)
  (0.0518488 -0.0246503 0)
  (0.0435995 -0.0211761 0)
  (0.036962 -0.017294 0)
  (0.0323687 -0.0134759 0)
  (0.0300013 -0.00979791 0)
  (0.0298601 -0.00692068 0)
  (0.0314833 -0.00595349 0)
  (0.0339358 -0.00592556 0)
  (0.0368701 -0.00563951 0)
  (0.0401212 -0.00412701 0)
  (0.0434769 -0.000535607 0)
  (0.0464269 0.0054044 0)
  (0.047977 0.0133904 0)
  (0.0483346 0.0236407 0)
  (0.0489047 0.0379216 0)
  (0.0482555 0.055819 0)
  (0.0702536 0.0786133 0)
  (0.0522333 0.0971203 0)
  (0.0914952 0.0682082 0)
  (0.114453 0.0445799 0)
  (-0.127921 -0.00714736 0)
  (0.767638 0.468791 0)
  (-0.301727 0.173652 0)
  (0.0222293 0.067777 0)
  (0.0498897 0.0626351 0)
  (0.0709022 0.0430371 0)
  (0.10515 -0.005753 0)
  (0.136587 -0.0593026 0)
  (0.154538 -0.0998006 0)
  (0.160163 -0.124931 0)
  (0.155588 -0.135814 0)
  (0.143488 -0.13465 0)
  (0.126739 -0.124307 0)
  (0.107887 -0.107703 0)
  (0.0890849 -0.087752 0)
  (0.0720797 -0.067005 0)
  (0.0579518 -0.0474977 0)
  (0.0471932 -0.0318946 0)
  (0.038646 -0.0225601 0)
  (0.0303123 -0.0184527 0)
  (0.0218194 -0.0162307 0)
  (0.0141656 -0.0140484 0)
  (0.00831758 -0.0119674 0)
  (0.00448561 -0.0101608 0)
  (0.00268261 -0.00866084 0)
  (0.00276226 -0.00784062 0)
  (0.00423119 -0.00810327 0)
  (0.00647104 -0.00882106 0)
  (0.00925891 -0.00913453 0)
  (0.0126403 -0.00818699 0)
  (0.0167418 -0.00497825 0)
  (0.0224953 0.00145513 0)
  (0.028186 0.0101891 0)
  (0.0336253 0.020522 0)
  (0.0406298 0.0331173 0)
  (0.0484709 0.0477169 0)
  (0.0702679 0.0660581 0)
  (0.0839346 0.0743462 0)
  (0.115849 0.0523429 0)
  (0.155329 0.0439712 0)
  (-0.0359438 0.0925668 0)
  (0.872498 0.470012 0)
  (-0.0639359 0.152226 0)
  (0.110319 -0.0141441 0)
  (0.182365 -0.0423363 0)
  (0.214612 -0.0545115 0)
  (0.24594 -0.0769531 0)
  (0.263143 -0.0988736 0)
  (0.263289 -0.114242 0)
  (0.248087 -0.121196 0)
  (0.221668 -0.119879 0)
  (0.188554 -0.111557 0)
  (0.152772 -0.0980322 0)
  (0.117469 -0.0811021 0)
  (0.085014 -0.0629452 0)
  (0.0570061 -0.0454398 0)
  (0.0340179 -0.0297503 0)
  (0.0168697 -0.0180566 0)
  (0.00454343 -0.0116193 0)
  (-0.00488628 -0.00919559 0)
  (-0.0121414 -0.0085232 0)
  (-0.0179293 -0.0081693 0)
  (-0.0221703 -0.00797934 0)
  (-0.0249548 -0.00798379 0)
  (-0.0264157 -0.00822676 0)
  (-0.0267734 -0.00886461 0)
  (-0.0264335 -0.0099677 0)
  (-0.0257872 -0.0112259 0)
  (-0.0249469 -0.0121849 0)
  (-0.0237579 -0.0123444 0)
  (-0.0218266 -0.0111153 0)
  (-0.0181779 -0.00775924 0)
  (-0.00956497 -0.00160643 0)
  (-0.00135615 0.00633632 0)
  (0.00916411 0.0144516 0)
  (0.02083 0.0214462 0)
  (0.0405608 0.0287053 0)
  (0.0595358 0.0222154 0)
  (0.0794903 -0.00479841 0)
  (0.138055 0.0391975 0)
  (-0.40483 0.202502 0)
  (1.01953 0.42298 0)
  (0.484986 0.279516 0)
  (0.499915 0.182718 0)
  (0.526913 0.110958 0)
  (0.5079 0.059028 0)
  (0.46545 0.0116705 0)
  (0.416236 -0.0273336 0)
  (0.362235 -0.0536868 0)
  (0.30379 -0.0668248 0)
  (0.243847 -0.0689173 0)
  (0.185874 -0.0633823 0)
  (0.132453 -0.0533166 0)
  (0.0852214 -0.0406472 0)
  (0.0456377 -0.0275638 0)
  (0.0137821 -0.0158347 0)
  (-0.0114832 -0.00650677 0)
  (-0.0260144 -0.00250833 0)
  (-0.0350216 -0.00160078 0)
  (-0.041066 -0.00217757 0)
  (-0.0457978 -0.00320718 0)
  (-0.0496865 -0.00424272 0)
  (-0.0528583 -0.00525573 0)
  (-0.0554134 -0.00627059 0)
  (-0.0575048 -0.0073228 0)
  (-0.0593708 -0.00846309 0)
  (-0.0613639 -0.00967381 0)
  (-0.0638397 -0.010751 0)
  (-0.0670931 -0.0113261 0)
  (-0.0714364 -0.0108682 0)
  (-0.0772911 -0.00867494 0)
  (-0.0851976 -0.00392951 0)
  (-0.095097 0.00390776 0)
  (-0.105202 0.0143259 0)
  (-0.119991 0.0275634 0)
  (-0.14319 0.0437586 0)
  (-0.177301 0.0618565 0)
  (-0.225665 0.0780092 0)
  (-0.281294 0.0896588 0)
  (-0.349246 0.0967436 0)
  (-0.60878 0.0998221 0)
  (-0.149186 0.00122306 0)
  (0.120498 -0.00018209 0)
  (0.198352 -0.0338912 0)
  (0.185662 -0.0430805 0)
  (0.169467 -0.0404429 0)
  (0.147214 -0.035053 0)
  (0.117643 -0.0284688 0)
  (0.0838831 -0.0208287 0)
  (0.0492238 -0.0125952 0)
  (0.0142523 -0.00440076 0)
  (-0.0184947 0.00289703 0)
  (-0.0404068 0.00701876 0)
  (-0.0554106 0.00921981 0)
  (-0.06425 0.00958155 0)
  (-0.0691891 0.00868345 0)
  (-0.0726489 0.00773139 0)
  (-0.0754141 0.00696952 0)
  (-0.0778565 0.00639345 0)
  (-0.0803053 0.00592416 0)
  (-0.0828901 0.00529548 0)
  (-0.0855922 0.00456032 0)
  (-0.0884859 0.00373531 0)
  (-0.0916932 0.00286905 0)
  (-0.0953579 0.00208455 0)
  (-0.0995615 0.00162059 0)
  (-0.104296 0.00179842 0)
  (-0.109487 0.00295448 0)
  (-0.11496 0.00539358 0)
  (-0.120101 0.00964579 0)
  (-0.1242 0.0166114 0)
  (-0.127605 0.0273973 0)
  (-0.130529 0.0423854 0)
  (-0.133631 0.0607737 0)
  (-0.137343 0.0791651 0)
  (-0.138622 0.088073 0)
  (-0.121197 0.0670532 0)
  (-0.0782494 -0.022959 0)
  (-0.273734 -0.198151 0)
  (0.0175273 0.194119 0)
  (0.0408468 0.0695807 0)
  (0.000314226 0.00530904 0)
  (-0.0135727 -0.002737 0)
  (-0.0277028 -0.000476356 0)
  (-0.043067 0.000138911 0)
  (-0.0594314 0.00146931 0)
  (-0.0746892 0.00382962 0)
  (-0.0863332 0.00587831 0)
  (-0.0927491 0.00607489 0)
  (-0.0967945 0.00399489 0)
  (-0.0983704 -3.88298e-05 0)
  (-0.0984912 -0.004553 0)
  (-0.0978086 -0.009395 0)
  (-0.0972309 -0.0145702 0)
  (-0.0972614 -0.0196213 0)
  (-0.0979275 -0.0242841 0)
  (-0.0991374 -0.028313 0)
  (-0.10077 -0.0315167 0)
  (-0.102738 -0.0337722 0)
  (-0.105098 -0.0352077 0)
  (-0.107758 -0.0357767 0)
  (-0.110613 -0.0354149 0)
  (-0.113563 -0.0342395 0)
  (-0.11649 -0.0323473 0)
  (-0.119164 -0.0295229 0)
  (-0.121216 -0.0253531 0)
  (-0.122176 -0.0192396 0)
  (-0.12162 -0.0112662 0)
  (-0.118669 -0.00113118 0)
  (-0.111964 0.0118831 0)
  (-0.100231 0.0284189 0)
  (-0.0830234 0.0479906 0)
  (-0.0610898 0.0666871 0)
  (-0.0372985 0.0775948 0)
  (0.00254017 0.0616932 0)
  (0.142687 -0.00842086 0)
  (-0.204729 -0.108295 0)
  (-0.0427939 -0.319594 0)
  (-0.413054 -0.123355 0)
  (-0.301146 0.063877 0)
  (-0.250781 -0.0171018 0)
  (-0.211187 -0.0220915 0)
  (-0.200316 -0.0110239 0)
  (-0.195974 -0.00136965 0)
  (-0.192441 0.0066128 0)
  (-0.187731 0.0141064 0)
  (-0.180996 0.0215667 0)
  (-0.172107 0.0290571 0)
  (-0.161474 0.036463 0)
  (-0.150268 0.0436321 0)
  (-0.139626 0.0505877 0)
  (-0.130303 0.0575824 0)
  (-0.122542 0.0645718 0)
  (-0.116372 0.0715124 0)
  (-0.111614 0.0781918 0)
  (-0.108031 0.0842232 0)
  (-0.105421 0.0892415 0)
  (-0.103608 0.0929914 0)
  (-0.102435 0.0953301 0)
  (-0.101817 0.0962953 0)
  (-0.101716 0.0958192 0)
  (-0.102096 0.0938452 0)
  (-0.102883 0.0906609 0)
  (-0.103948 0.0866578 0)
  (-0.105077 0.0819502 0)
  (-0.105888 0.0765987 0)
  (-0.105703 0.0707263 0)
  (-0.10326 0.065594 0)
  (-0.0967292 0.0621183 0)
  (-0.083749 0.0611868 0)
  (-0.0625295 0.063762 0)
  (-0.0335237 0.0703713 0)
  (0.0120708 0.0800656 0)
  (0.0549723 0.0810083 0)
  (0.0956731 0.0683563 0)
  (0.160815 0.0428198 0)
  (-0.232368 -0.00705132 0)
)
;

boundaryField
{
  floor
  {
    type noSlip;
  }
  ceiling
  {
    type noSlip;
  }
  sWall
  {
    type noSlip;
  }
  nWall
  {
    type noSlip;
  }
  sideWalls
  {
    type empty;
  }
  glass1
  {
    type noSlip;
  }
  glass2
  {
    type noSlip;
  }
  sun
  {
    type noSlip;
  }
  heatsource1
  {
    type noSlip;
  }
  heatsource2
  {
    type noSlip;
  }
  Table_master
  {
    type noSlip;
  }
  Table_slave
  {
    type noSlip;
  }
  inlet
  {
    type fixedValue;
    value uniform (0.277164 -0.114805 0);
  }
  outlet
  {
    type zeroGradient;
  }
} 	// ************************************************************************* //

