/*--------------------------------*- C++ -*----------------------------------*\
  =========                 |
  \\      /  F ield         | OpenFOAM: The Open Source CFD Toolbox
   \\    /   O peration     | Website:  https://openfoam.org
    \\  /    A nd           | Version:  6
     \\/     M anipulation  |
\*---------------------------------------------------------------------------*/
FoamFile
{
    version     2.0;
    format      ascii;
    class       surfaceScalarField;
    location    "60";
    object      phi;
}
// * * * * * * * * * * * * * * * * * * * * * * * * * * * * * * * * * * * * * //

dimensions      [1 0 -1 0 0 0 0];

internalField   nonuniform List<scalar> 
852
(
-0.00254477
0.00257315
-0.00362988
0.00108479
-0.00393818
0.000307997
-0.00349449
-0.000443988
-0.002161
-0.00133379
-2.18718e-05
-0.00213942
0.00195805
-0.00198023
0.00343355
-0.00147583
0.004418
-0.000984778
0.00497099
-0.000553332
0.0051314
-0.000160744
0.00490819
0.000222856
0.00424527
0.00066258
0.00290004
0.00134488
0.00289494
-0.000703591
0.000694439
-0.00118421
0.000479694
-0.000506472
-0.000678471
0.000653088
-0.00116031
0.00178224
-0.00113003
0.00274363
-0.00096243
0.00337284
-0.000630491
0.00374549
-0.000374199
0.00398412
-0.000240433
0.0041008
-0.000118645
0.00409024
8.51829e-06
0.00396953
0.000118747
0.00376346
0.000204318
0.00347941
0.000282642
0.00308323
0.000395196
0.002487
0.000595648
0.00163349
0.000853223
0.000411678
0.00122171
0.000399824
-0.0018147
0.00446691
-0.00270325
0.00197304
-0.00299097
0.000595428
-0.00258568
-0.000849547
-0.0014428
-0.00247693
9.19737e-05
-0.00367448
0.00158982
-0.00347839
0.00279278
-0.00267914
0.00362913
-0.0018215
0.00411148
-0.00103605
0.00428812
-0.00033775
0.0042038
0.0003068
0.00391497
0.000951048
0.00362006
0.00163942
0.00414248
0.00237216
0.00201632
0.00212575
0.00201591
-0.000188441
0.000861735
0.00021511
7.55736e-05
0.000959284
-0.00142305
0.00165338
-0.00185483
0.00235369
-0.00183082
0.00294924
-0.00155857
0.00311296
-0.000795076
0.00316554
-0.00042808
0.0032062
-0.000282831
0.00320833
-0.000122783
0.00317048
4.42904e-05
0.00312246
0.000164831
0.00308357
0.000241552
0.00304517
0.000319745
0.00293379
0.000505627
0.0024864
0.00104239
0.00178787
0.00155138
0.00101583
0.00199358
0.00138151
-0.00129117
0.00588143
-0.00198914
0.00267072
-0.00223686
0.000842879
-0.00185328
-0.00123338
-0.000834471
-0.00349597
0.000331903
-0.00484112
0.00143681
-0.00458362
0.00235505
-0.00359775
0.00299315
-0.00245999
0.00335929
-0.00140258
0.00350809
-0.000486946
0.00350188
0.000312625
0.00341276
0.00103978
0.00331335
0.00173846
0.00319652
0.00248862
0.00230078
0.00302113
0.00431633
0.000288646
0.000541112
0.00174284
-0.00137896
0.00225573
-0.00193627
0.00256763
-0.00216705
0.00289046
-0.00215395
0.00348147
-0.0021499
0.00268597
0.00225689
0.00197239
0.00184774
0.00189046
0.00205407
0.00229471
0.00261378
0.0031189
0.0025932
0.00156758
0.00203176
0.00211247
0.0013616
0.00266353
0.00268835
-0.000921821
0.00696544
-0.00143395
0.00318255
-0.00156651
0.000975182
-0.00108388
-0.00171625
-0.000160088
-0.00441996
0.000678967
-0.00568041
0.00143861
-0.00534359
0.00204549
-0.00420502
0.00243551
-0.00285042
0.00263171
-0.00159921
0.0026994
-0.000555054
0.00270657
0.000305052
0.00271253
0.00103344
0.00276011
0.0016905
0.00291668
0.00233169
0.00321109
0.00272636
0.00461452
0.00291254
0.00318885
0.00139483
0.003719
1.05032e-05
0.00346073
-0.00112109
0.0033489
-0.00182477
0.00321223
-0.00203065
0.00300024
-0.00194218
0.00244023
-0.00159007
0.00313461
-0.000694695
0.00342296
-0.000288707
0.00355621
-0.000133723
0.00357335
-1.78043e-05
0.00345618
0.000116158
0.00318625
0.000268408
0.00275506
0.000429065
0.00219204
0.000560534
0.00154896
0.000640985
0.00174095
0.00137474
0.00169229
0.00216075
0.00156073
0.0027949
0.00417785
-0.000661238
0.00782315
-0.000990215
0.00351124
-0.000853562
0.000838266
-0.000102517
-0.00246752
0.000627173
-0.00514983
0.00113993
-0.0061934
0.00154409
-0.00574805
0.00179851
-0.00445983
0.00188788
-0.00294022
0.00186615
-0.00157791
0.00181544
-0.000504766
0.00181177
0.000308325
0.00190152
0.000943309
0.00211812
0.00147353
0.00252581
0.00192364
0.0030994
0.00215242
0.00387552
0.00213606
0.00420513
0.00106487
0.00428045
-6.51505e-05
0.00405117
-0.000892106
0.00366817
-0.00144202
0.00327047
-0.00163314
0.00287136
-0.0015432
0.00251353
-0.00123234
0.00252926
-0.000710523
0.00253339
-0.000292988
0.00242431
-2.49352e-05
0.00221854
0.000187399
0.00194599
0.000387816
0.00162797
0.000585136
0.00131065
0.000744814
0.00105046
0.000819264
0.000880766
0.000809717
0.00103297
0.00122206
0.00139424
0.00179923
0.00223702
0.00195195
0.00374547
0.00266928
0.00169973
0.00204541
-0.00031757
0.00201691
-0.000391506
-0.000533933
0.00858458
-0.000566332
0.00354336
0.000166663
0.000105005
0.00107173
-0.00337279
0.00154449
-0.00562276
0.00172839
-0.0063775
0.00172023
-0.00574018
0.0015613
-0.00430128
0.001299
-0.00267834
0.00103273
-0.00131206
0.000861467
-0.000333898
0.000854364
0.000315068
0.00101187
0.000785455
0.0013184
0.00116667
0.0017781
0.00146361
0.00234946
0.00158074
0.00305302
0.00143218
0.00343859
0.000679001
0.00348227
-0.000109097
0.00330273
-0.000712768
0.00294818
-0.00108763
0.00252316
-0.00120823
0.00208597
-0.00110609
0.00169519
-0.000841617
0.00144618
-0.000461607
0.00122838
-7.53691e-05
0.000994178
0.000208883
0.00076132
0.000419673
0.000545161
0.000603152
0.000377347
0.000751972
0.000285433
0.000835793
0.000265205
0.000838802
0.000272479
0.000802063
0.000472054
0.00102227
0.000837024
0.0014341
0.00122497
0.00156386
0.00151141
0.00238271
0.00084302
0.00271365
-0.000298508
0.00315821
-0.000763549
-0.000160877
0.00900577
0.000382813
0.00299938
0.00174765
-0.0012601
0.00249861
-0.00412395
0.00267651
-0.00580081
0.0024176
-0.00611879
0.00188887
-0.00521173
0.00124068
-0.00365345
0.000600312
-0.00203837
0.00012636
-0.000838487
-8.66198e-05
-0.000121249
-6.40619e-05
0.000292211
0.000135365
0.000585733
0.000471539
0.000830203
0.000922768
0.0010121
0.00145414
0.0010491
0.00202028
0.00086579
0.00231851
0.000380562
0.00232891
-0.000119659
0.00212248
-0.000506456
0.0017634
-0.000728633
0.00132524
-0.000770133
0.000863562
-0.000644455
0.000430723
-0.000408833
7.18868e-05
-0.000102891
-0.000187287
0.000183527
-0.00035211
0.000373377
-0.000458526
0.000525647
-0.000505725
0.000649829
-0.000485852
0.000731576
-0.000408735
0.000758245
-0.00030745
0.000737235
-0.000222936
0.000717388
-4.77367e-05
0.000846949
0.000238823
0.0011474
0.000448382
0.00135414
0.000627078
0.00220384
0.000309704
0.00303083
-6.86035e-05
0.00353629
-0.000901623
0.00256228
0.00673927
0.00358291
0.00197848
0.00425226
-0.00192968
0.00447468
-0.00434654
0.00401319
-0.00533946
0.00304668
-0.00515246
0.00182867
-0.00399397
0.000634035
-0.00245914
-0.000289649
-0.00111503
-0.000786641
-0.000341773
-0.00093776
2.96227e-05
-0.000884101
0.000238326
-0.000694097
0.000395511
-0.000394053
0.000529952
-1.14358e-06
0.000618996
0.000430936
0.000616854
0.000811593
0.000484997
0.000977672
0.000214382
0.000916598
-5.86573e-05
0.000672204
-0.000262111
0.000297267
-0.000353731
-0.000146062
-0.000326836
-0.000586158
-0.000204399
-0.00096046
-3.46073e-05
-0.00120809
0.000144613
-0.00131805
0.000293356
-0.00135336
0.000408513
-0.00132906
0.000501131
-0.00124712
0.000567658
-0.00111624
0.000600484
-0.000956997
0.000598841
-0.000797339
0.000577465
-0.000653798
0.000573756
-0.000464619
0.000657664
-0.000168433
0.000851079
0.000131024
0.00105452
0.000624151
0.0017105
0.00107987
0.0025749
0.00225025
0.00236571
0.000897204
0.0070241
0.00895839
0.00812047
-0.00109194
0.00667993
-0.00290612
0.00486171
-0.00352136
0.00290714
-0.00319807
0.000952024
-0.00203908
-0.000535858
-0.000971531
-0.00136718
-0.000283917
-0.00170483
-4.30066e-06
-0.00178477
0.000109416
-0.00172172
0.000175147
-0.00156931
0.000242994
-0.00135
0.000310546
-0.00108835
0.000357261
-0.000830133
0.000358587
-0.000643092
0.000297923
-0.000607122
0.000178385
-0.000723394
5.75781e-05
-0.000965184
-2.03478e-05
-0.00128471
-3.42233e-05
-0.00161565
4.07822e-06
-0.00189099
7.09307e-05
-0.00206973
0.00014414
-0.00214496
0.000219862
-0.00214358
0.000291984
-0.00208837
0.000353286
-0.00198795
0.000400683
-0.00184955
0.000429226
-0.00168476
0.000435654
-0.00150848
0.000422534
-0.00133237
0.000401309
-0.00115233
0.00039365
-0.000924616
0.000429846
-0.000595052
0.000521377
-0.000185303
0.000644595
0.000514458
0.00101053
0.00139299
0.00169616
0.00233546
0.00142305
0.00275495
0.00589584
-0.000583838
0.00402105
-0.00103141
0.00204438
-0.00154483
5.41608e-05
-0.00120803
-0.0014766
-0.000508525
-0.0022838
-0.000164471
-0.00260919
4.13665e-05
-0.00271347
9.99093e-05
-0.00271049
0.000106382
-0.00265684
0.000121463
-0.0025674
0.00015353
-0.00245206
0.000195202
-0.00232824
0.00023345
-0.00222422
0.000254586
-0.00217392
0.000247659
-0.00220626
0.000210753
-0.00231173
0.000163082
-0.0024579
0.000125856
-0.00260462
0.000112552
-0.00272219
0.000121719
-0.00279249
0.000141326
-0.00281613
0.000167887
-0.00279559
0.000199439
-0.00273641
0.000232914
-0.00264602
0.000262996
-0.00253069
0.000285457
-0.002398
0.000296615
-0.00225681
0.000294532
-0.0021147
0.000280454
-0.00197333
0.000259936
-0.00182244
0.000242711
-0.00163199
0.000239321
-0.0013689
0.000258162
-0.00107007
0.000345619
-0.000757026
0.0006973
-0.00042265
0.0013616
-5.60827e-05
0.00105633
0.00261979
-0.00061521
-2.54982e-05
-0.000996863
-0.00064988
-0.00192636
-0.000615444
-0.00282698
-0.000307502
-0.00329186
-4.3731e-05
-0.00352399
6.76172e-05
-0.00359252
0.000109889
-0.00360718
0.000114567
-0.00360584
0.000105065
-0.00358907
0.000104724
-0.00355246
0.000116957
-0.00349525
0.000138041
-0.00342381
0.000162069
-0.00335158
0.000182414
-0.0032962
0.00019235
-0.00327341
0.000188031
-0.0032843
0.00017405
-0.0033169
0.000158548
-0.00335235
0.000148119
-0.00337442
0.000143922
-0.00337669
0.00014374
-0.00335579
0.000147156
-0.00331008
0.000153915
-0.00323976
0.000162777
-0.00314812
0.000171544
-0.00304092
0.000178435
-0.00292629
0.000182128
-0.00281386
0.000182226
-0.00271319
0.000179861
-0.00263123
0.000178003
-0.00256857
0.000180045
-0.00251448
0.000185182
-0.00244529
0.000188898
-0.00232097
0.000221201
-0.00202908
0.000405279
-0.00142128
0.000753675
-0.00112506
0.000760013
0.00139441
-0.00318242
-0.00255527
-0.00267029
-0.00340177
-0.00409744
-0.00448785
-0.00461812
-0.00463937
-0.00461979
-0.00459646
-0.00458326
-0.00457083
-0.00454642
-0.00450106
-0.00443176
-0.00434226
-0.00424312
-0.00414881
-0.00406919
-0.0040059
-0.00395383
-0.00390663
-0.00386011
-0.00381047
-0.00375417
-0.00368893
-0.00361472
-0.00353337
-0.00344809
-0.00336256
-0.00327943
-0.00319846
-0.00311603
-0.00302931
-0.00293952
-0.00281678
-0.00250679
-0.00184332
-0.00117033
)
;

boundaryField
{
    floor
    {
        type            calculated;
        value           nonuniform List<scalar> 
29
(
0
0
0
0
0
0
0
0
0
0
0
0
0
0
0
0
0
0
0
0
1.17912e-05
3.40079e-05
5.46281e-05
7.11118e-05
4.74934e-06
8.19616e-06
2.05317e-05
3.15936e-05
3.04624e-05
)
;
    }
    ceiling
    {
        type            calculated;
        value           nonuniform List<scalar> 
43
(
0.000114601
0.000103307
8.93715e-05
8.15207e-05
8.01844e-05
8.28954e-05
8.65506e-05
8.89098e-05
9.03701e-05
9.13051e-05
9.19471e-05
9.23718e-05
9.26277e-05
9.2765e-05
9.28562e-05
9.29979e-05
9.32947e-05
9.38163e-05
9.45446e-05
9.5382e-05
9.62018e-05
9.69033e-05
9.7429e-05
9.77509e-05
9.78677e-05
9.7802e-05
9.75994e-05
9.73227e-05
9.70485e-05
9.68621e-05
9.68512e-05
9.70972e-05
9.76528e-05
9.84588e-05
9.90874e-05
9.84106e-05
9.52375e-05
9.01333e-05
8.69692e-05
9.47741e-05
4.83435e-05
4.39202e-05
5.67051e-05
)
;
    }
    sWall
    {
        type            calculated;
        value           uniform -8.84541e-05;
    }
    nWall
    {
        type            calculated;
        value           nonuniform List<scalar> 6(7.36775e-05 7.34468e-05 6.93669e-05 7.89882e-05 0.000100231 0.000129258);
    }
    sideWalls
    {
        type            empty;
        value           nonuniform 0();
    }
    glass1
    {
        type            calculated;
        value           nonuniform List<scalar> 9(-2.86947e-05 -7.93773e-05 -0.000123643 -0.000162482 -0.00019676 -0.000227769 -0.000260592 -0.000296049 -0.000333445);
    }
    glass2
    {
        type            calculated;
        value           nonuniform List<scalar> 2(0.000451317 0.000477608);
    }
    sun
    {
        type            calculated;
        value           uniform 0;
    }
    heatsource1
    {
        type            calculated;
        value           nonuniform List<scalar> 3(1.97188e-07 1.97708e-07 1.97906e-07);
    }
    heatsource2
    {
        type            calculated;
        value           nonuniform List<scalar> 4(5.00202e-08 5.02583e-08 0 0);
    }
    Table_master
    {
        type            calculated;
        value           nonuniform List<scalar> 9(-1.49325e-07 -1.49517e-07 -1.49434e-07 -1.49246e-07 -1.49024e-07 -1.48794e-07 -1.48597e-07 -1.48417e-07 -1.48208e-07);
    }
    Table_slave
    {
        type            calculated;
        value           nonuniform List<scalar> 9(1.49244e-07 1.49174e-07 1.4909e-07 1.49033e-07 1.48959e-07 1.48878e-07 1.48778e-07 1.48661e-07 1.48584e-07);
    }
    inlet
    {
        type            calculated;
        value           uniform -0.00640398;
    }
    outlet
    {
        type            calculated;
        value           nonuniform List<scalar> 2(0.00315604 -0.000730654);
    }
}


// ************************************************************************* //
