/*--------------------------------*- C++ -*----------------------------------*\
  =========                 |
  \\      /  F ield         | OpenFOAM: The Open Source CFD Toolbox
   \\    /   O peration     | Website:  https://openfoam.org
    \\  /    A nd           | Version:  6
     \\/     M anipulation  |
\*---------------------------------------------------------------------------*/
FoamFile
{
    version     2.0;
    format      ascii;
    class       volScalarField;
    location    "260";
    object      alphat;
}
// * * * * * * * * * * * * * * * * * * * * * * * * * * * * * * * * * * * * * //

dimensions      [1 -1 -1 0 0 0 0];

internalField   nonuniform List<scalar> 
459
(
0.00122312
0.00135872
0.00141764
0.00149803
0.00157658
0.00165919
0.00173426
0.00178872
0.00181253
0.00179603
0.0017087
0.00156757
0.00141133
0.00123714
0.00107812
0.000655608
0.000823191
0.000872614
0.000944954
0.000937483
0.000905001
0.000837655
0.000768526
0.000708182
0.000656927
0.00061325
0.0005757
0.000542885
0.000514083
0.000487658
0.000461869
0.00043687
0.000406995
0.000432673
0.00155444
0.00396247
0.00394526
0.00459971
0.00526743
0.0058029
0.0062679
0.00670695
0.00709566
0.00739653
0.00749516
0.00725605
0.00672775
0.00556012
0.00370007
0.00130843
0.00106966
0.00102947
0.00293064
0.00286568
0.0031513
0.00342337
0.00336299
0.00233638
0.00191047
0.00163508
0.00143865
0.0012924
0.00118057
0.00109472
0.00100871
0.00091398
0.00082508
0.000838436
0.000853192
0.000572648
0.0018266
0.00540031
0.00495219
0.00562888
0.00601211
0.00630042
0.00659802
0.00698292
0.00749232
0.00808293
0.00854623
0.00867185
0.00850374
0.00792894
0.00652042
0.00415541
0.00127208
0.00116756
0.00367846
0.00325901
0.00361147
0.00411922
0.00402027
0.00115535
0.000987044
0.000852589
0.000746445
0.000662341
0.000595212
0.000541375
0.000500237
0.000472121
0.000545973
0.000757714
0.00107514
0.000668912
0.0020843
0.00658682
0.0051217
0.00577681
0.00584719
0.00591781
0.00605326
0.00637306
0.00696234
0.00774789
0.00838018
0.00876414
0.00887356
0.00868357
0.00794846
0.00635729
0.00330253
0.00140492
0.00191853
0.00250665
0.00343331
0.00445764
0.00524827
0.00506781
0.00129311
0.0011725
0.00107874
0.00100299
0.000936927
0.000874966
0.000813414
0.000749222
0.000677675
0.000603225
0.000726471
0.00125494
0.000769919
0.00234849
0.00805223
0.00548321
0.00588334
0.00585106
0.00575015
0.00571717
0.00599141
0.00663205
0.00745083
0.0081846
0.00866054
0.00885278
0.00880457
0.00846002
0.007611
0.00597182
0.00468171
0.00485824
0.00545539
0.00622879
0.00691811
0.00735274
0.00732765
0.00622278
0.00554662
0.00507493
0.00459762
0.0040901
0.00355796
0.00300097
0.00241702
0.00181014
0.00126482
0.00101272
0.00122652
0.00106008
0.000815111
0.000942715
0.00140651
0.00263425
0.00974003
0.00699738
0.00636991
0.00626697
0.00588364
0.00566703
0.00588712
0.00656626
0.0074625
0.00826233
0.00875997
0.00893361
0.00889063
0.00873707
0.00844894
0.00793752
0.00772505
0.00811125
0.00855815
0.00892264
0.00912033
0.00911818
0.00889098
0.00838401
0.00781418
0.00718952
0.00650804
0.00577946
0.00501123
0.00420993
0.00338992
0.00258
0.00187819
0.00146125
0.0012882
0.00118704
0.00131178
0.00202252
0.00188047
0.00289188
0.0109288
0.00933189
0.00777884
0.00692248
0.00604386
0.00566447
0.00594633
0.00677185
0.00780583
0.00868327
0.00919041
0.0093392
0.00931612
0.00934538
0.00944535
0.00956201
0.00982656
0.0101991
0.0104342
0.0104551
0.0102884
0.0099658
0.00952127
0.00896704
0.00835089
0.00768568
0.00697097
0.00620992
0.00541083
0.00458648
0.00378236
0.00303024
0.00238747
0.00197305
0.00165239
0.00135059
0.00191923
0.00372841
0.00253111
0.00295003
0.00957434
0.00863116
0.00757239
0.00635103
0.0055334
0.00545033
0.00613282
0.00731207
0.00855159
0.00948552
0.00996566
0.0101028
0.0101384
0.0102241
0.0103431
0.0105197
0.0107392
0.0108907
0.0108622
0.0106267
0.0102096
0.0096409
0.00897895
0.00830326
0.00764341
0.00699143
0.00633394
0.00566907
0.00500971
0.00438189
0.00382262
0.00335629
0.00299488
0.00272677
0.00243772
0.0018975
0.00257126
0.0065917
0.00345974
0.00288631
0.00343039
0.003702
0.00371463
0.00371641
0.00414268
0.0052241
0.00682867
0.00850999
0.00982997
0.0106016
0.0108829
0.0109251
0.0106048
0.0103063
0.0101944
0.0102279
0.0102702
0.0101902
0.00992781
0.00949117
0.00892636
0.00828921
0.00764546
0.00705093
0.00652578
0.00606421
0.00565762
0.0053074
0.00502339
0.00481597
0.00468652
0.00461685
0.00456386
0.00445456
0.004199
0.00355661
0.00403807
0.00871329
0.0038762
0.00105515
0.00166903
0.00336818
0.00555811
0.0077735
0.00963094
0.010798
0.0112843
0.0112758
0.0108306
0.010322
0.00992631
0.00968507
0.00957535
0.00951562
0.00941272
0.00921454
0.00892225
0.00856859
0.00819319
0.00782947
0.0075027
0.00722735
0.00700671
0.00683986
0.00672758
0.0066734
0.00668063
0.00674736
0.00686019
0.00698625
0.00706411
0.00699667
0.00668308
0.00611602
0.00633775
0.00918779
0.00328888
0.00159811
0.00491432
0.00792304
0.0096254
0.0111095
0.0119027
0.0119365
0.0113726
0.0106386
0.0100278
0.00961306
0.009377
0.00925931
0.0092103
0.00919197
0.00917169
0.00912542
0.00904467
0.0089338
0.0088045
0.00867147
0.00854821
0.00844433
0.00836618
0.00831916
0.00830878
0.00834047
0.00841803
0.00854083
0.00869828
0.008859
0.0089516
0.00884935
0.00843635
0.00778497
0.00734852
0.00707526
0.00274898
0.00166502
0.00181152
0.00197664
0.00228794
0.00243188
0.00254282
0.00258622
0.00255319
0.0024795
0.00239358
0.00230953
0.0022514
0.0022185
0.00220357
0.00220064
0.00220456
0.00221076
0.00221532
0.00221602
0.00221253
0.00220593
0.00219789
0.00219
0.00218342
0.00217893
0.00217699
0.00217797
0.00218213
0.00218966
0.00220045
0.00221376
0.00222749
0.00223708
0.00223531
0.00221976
0.00221127
0.00225831
0.00238237
0.00249317
0.0022692
)
;

boundaryField
{
    floor
    {
        type            compressible::alphatWallFunction;
        Prt             0.85;
        value           nonuniform List<scalar> 
29
(
0.000153666
9.30456e-05
0.00011753
0.000124633
0.000134942
0.000133884
0.000129264
0.00011962
0.000109624
0.000100809
9.32498e-05
8.67511e-05
8.11183e-05
7.61581e-05
7.17736e-05
6.77234e-05
6.37438e-05
5.98587e-05
5.51773e-05
5.9201e-05
5.92003e-05
8.0658e-05
9.5025e-05
0.00010983
0.000153664
9.30445e-05
0.000146861
0.000166104
0.000198586
)
;
    }
    ceiling
    {
        type            compressible::alphatWallFunction;
        Prt             0.85;
        value           nonuniform List<scalar> 
43
(
0.000233443
0.000252826
0.000274471
0.000314789
0.000333241
0.000347375
0.000352889
0.000348704
0.000339339
0.000328382
0.000317622
0.000310158
0.000305925
0.000304003
0.000303627
0.000304136
0.000304935
0.000305525
0.000305616
0.000305167
0.000304317
0.00030328
0.000302262
0.000301413
0.000300832
0.000300582
0.000300708
0.000301245
0.000302216
0.000303607
0.000305322
0.000307092
0.000308326
0.000308097
0.000306094
0.000305
0.000311055
0.000326965
0.0003411
0.00031246
0.00039073
0.000458269
0.00022443
)
;
    }
    sWall
    {
        type            compressible::alphatWallFunction;
        Prt             0.85;
        value           uniform 0.000232464;
    }
    nWall
    {
        type            compressible::alphatWallFunction;
        Prt             0.85;
        value           nonuniform List<scalar> 6(0.000198987 0.000262129 0.000346069 0.000440989 0.000373636 0.000312606);
    }
    sideWalls
    {
        type            empty;
    }
    glass1
    {
        type            compressible::alphatWallFunction;
        Prt             0.85;
        value           nonuniform List<scalar> 9(0.000170747 0.000215318 0.000251187 0.000284648 0.000318519 0.00035472 0.000387026 0.000394342 0.000386519);
    }
    glass2
    {
        type            compressible::alphatWallFunction;
        Prt             0.85;
        value           nonuniform List<scalar> 2(0.000465221 0.000516321);
    }
    sun
    {
        type            compressible::alphatWallFunction;
        Prt             0.85;
        value           nonuniform List<scalar> 
14
(
0.000173774
0.000192317
0.000200312
0.00021116
0.000221698
0.000232716
0.000242676
0.000249871
0.000253009
0.000250833
0.000239281
0.000220487
0.000199454
0.000175694
)
;
    }
    heatsource1
    {
        type            compressible::alphatWallFunction;
        Prt             0.85;
        value           nonuniform List<scalar> 3(0.000116076 0.000134324 0.000198505);
    }
    heatsource2
    {
        type            compressible::alphatWallFunction;
        Prt             0.85;
        value           nonuniform List<scalar> 4(0.000185166 0.000152196 0.000152194 0.000180191);
    }
    Table_master
    {
        type            compressible::alphatWallFunction;
        Prt             0.85;
        value           nonuniform List<scalar> 9(0.000164117 0.000140597 0.00012147 0.000106118 9.37675e-05 8.37722e-05 7.56556e-05 6.93857e-05 6.50634e-05);
    }
    Table_slave
    {
        type            compressible::alphatWallFunction;
        Prt             0.85;
        value           nonuniform List<scalar> 9(0.000183078 0.000166494 0.000153468 0.000142847 0.000133509 0.00012468 0.000115835 0.000106526 9.6035e-05);
    }
    inlet
    {
        type            fixedValue;
        value           uniform 1.94e-05;
    }
    outlet
    {
        type            zeroGradient;
    }
}


// ************************************************************************* //
