/*--------------------------------*- C++ -*----------------------------------*\
  =========                 |
  \\      /  F ield         | OpenFOAM: The Open Source CFD Toolbox
   \\    /   O peration     | Website:  https://openfoam.org
    \\  /    A nd           | Version:  6
     \\/     M anipulation  |
\*---------------------------------------------------------------------------*/
FoamFile
{
    version     2.0;
    format      ascii;
    class       surfaceScalarField;
    location    "1500";
    object      phi;
}
// * * * * * * * * * * * * * * * * * * * * * * * * * * * * * * * * * * * * * //

dimensions      [1 0 -1 0 0 0 0];

internalField   nonuniform List<scalar> 
852
(
0.00480988
-0.00478606
0.00876683
-0.00395673
0.0108696
-0.00210261
0.0119657
-0.00109588
0.0126002
-0.000634249
0.0129238
-0.000323439
0.0129707
-4.67055e-05
0.0127676
0.00020333
0.0123263
0.00044153
0.0116368
0.000689706
0.0106669
0.00097012
0.00935143
0.00131563
0.00754912
0.00180251
0.00486467
0.00268464
0.00486303
-0.000332111
0.00033401
-0.000376614
4.45479e-05
-0.000350489
-2.60778e-05
-0.000352648
2.20779e-06
-0.000368351
1.57547e-05
-0.000326155
-4.21417e-05
-0.000200614
-0.000125484
2.63465e-05
-0.000226899
0.000192668
-0.000166255
0.000293771
-0.000101038
0.000367715
-7.38829e-05
0.000436333
-6.85578e-05
0.000513266
-7.68729e-05
0.000555275
-4.19516e-05
0.000543756
1.15767e-05
0.000492124
5.16883e-05
0.000470206
2.19715e-05
0.00038766
8.25979e-05
0.000389598
0.00467605
-0.00939494
0.00721756
-0.00649803
0.00858085
-0.00346569
0.00938551
-0.00190034
0.00988951
-0.00113804
0.010174
-0.000607751
0.0102625
-0.000134995
0.0101506
0.000315407
0.00983108
0.00076129
0.00929111
0.00122988
0.00851748
0.00174395
0.00750816
0.00232514
0.00630998
0.00300089
0.00522043
0.00377438
0.00552088
0.00456278
0.00204238
0.00347864
0.00204252
0.000533975
-0.000196731
0.000515791
6.27853e-05
0.000344199
0.000145567
0.000189655
0.000156803
4.75913e-05
0.000157871
-0.000128086
0.000133592
-0.000162263
-9.12467e-05
-2.95519e-05
-0.000359542
2.71101e-05
-0.000222842
5.31235e-05
-0.000126976
5.84326e-05
-7.91193e-05
3.7121e-05
-4.71766e-05
-2.29377e-05
-1.67469e-05
-0.00010401
3.91862e-05
-0.000185144
9.27711e-05
-0.000289329
0.000155929
-0.000432875
0.000165572
-0.000479641
0.000129421
-8.62721e-05
0.00333697
-0.0126239
0.00492541
-0.00808625
0.00571826
-0.00425833
0.00623152
-0.0024134
0.00660663
-0.00151295
0.00685795
-0.000858885
0.00700263
-0.00027948
0.00702331
0.000294914
0.00689028
0.000894506
0.00657944
0.0015409
0.00608255
0.00224104
0.00541652
0.00299136
0.00464352
0.00377409
0.00386729
0.00455081
0.00310682
0.00532344
0.00167595
0.0049097
0.00371866
-0.000168404
-2.69392e-05
-0.000139684
3.41308e-05
-7.08717e-05
7.682e-05
-5.34437e-06
9.13396e-05
7.66546e-05
7.59366e-05
0.000176879
3.34324e-05
8.58506e-05
-0.000273467
-0.000496073
-0.000622807
-0.000701685
-0.000748623
-0.000765134
-0.000725715
-0.000632716
-0.000393519
-8.31958e-05
-0.000180876
-4.70039e-05
1.58315e-05
-6.72128e-05
-7.12138e-05
0.00202265
-0.0144989
0.0028994
-0.00896279
0.00328102
-0.00463976
0.00346009
-0.00259228
0.00367766
-0.00173034
0.00387999
-0.00106105
0.00405217
-0.000451487
0.00415546
0.000191797
0.00414493
0.000905209
0.00399266
0.00169335
0.00368732
0.00254656
0.00323329
0.00344557
0.00264632
0.00436125
0.00194014
0.00525718
0.0011723
0.00609147
0.000337164
0.00574503
-0.000339459
0.00439539
-0.000925896
0.000583315
-0.0010019
4.91533e-05
-0.00104088
7.32043e-05
-0.00109616
0.000132197
-0.00118352
0.0001788
-0.00129841
0.000190923
-0.00142353
0.000158651
-0.0015213
9.77155e-05
-0.00155131
2.99654e-05
-0.00153644
-1.49257e-05
-0.00149029
-4.62009e-05
-0.00142032
-7.00262e-05
-0.00132998
-9.03938e-05
-0.00121913
-0.00011089
-0.00108333
-0.00013585
-0.000911316
-0.000172054
-0.000756056
-0.000238338
-0.00051151
-0.000291427
-0.000222187
-0.000356406
-0.000298318
0.000929873
-0.0152425
0.00131774
-0.00935043
0.00133407
-0.00465589
0.00112292
-0.00238096
0.0012381
-0.00184535
0.001439
-0.00126179
0.00162955
-0.000641873
0.00175126
7.025e-05
0.00177189
0.000884742
0.00168192
0.00178349
0.00147184
0.00275682
0.00113542
0.00378217
0.000669583
0.00482728
0.000100959
0.00582599
-0.000412688
0.00660531
-0.000834513
0.00616701
-0.000889878
0.00445083
-0.00124777
0.000941291
-0.00145689
0.000258376
-0.0015548
0.000171212
-0.00160594
0.000183443
-0.00162711
0.000200072
-0.00162899
0.000192907
-0.00162268
0.00015244
-0.00161203
8.71607e-05
-0.00160036
1.84032e-05
-0.00157812
-3.70635e-05
-0.00154521
-7.90123e-05
-0.00150403
-0.000111104
-0.00145634
-0.000137977
-0.00140256
-0.00016456
-0.00134079
-0.000197508
-0.00126706
-0.000245673
-0.00119221
-0.000313063
-0.00108035
-0.000403164
-0.00090391
-0.00053273
-0.000489992
-0.000712116
0.000423554
-0.000913633
0.00100131
-0.000577844
0.00101723
-1.39078e-05
-0.0150047
2.09906e-06
-0.00936622
-0.000320666
-0.00433294
-0.000831773
-0.00186969
-0.000806304
-0.00187066
-0.000651815
-0.00141612
-0.000502151
-0.000791379
-0.000419424
-1.23177e-05
-0.000409443
0.000874925
-0.000465197
0.00183941
-0.000596598
0.0028884
-0.000810083
0.00399584
-0.00109793
0.00511531
-0.0014065
0.00613475
-0.00157076
0.00676973
-0.00159413
0.00619052
-0.00133327
0.00419003
-0.00149597
0.00110409
-0.00163271
0.000395217
-0.00169378
0.000232389
-0.0016974
0.000187165
-0.00166108
0.000163858
-0.00160342
0.000135353
-0.0015434
9.25232e-05
-0.00149354
3.74068e-05
-0.00145613
-1.88949e-05
-0.00142714
-6.59539e-05
-0.00140445
-0.000101598
-0.0013878
-0.000127644
-0.00137879
-0.000146874
-0.00137977
-0.000163476
-0.00139272
-0.000184454
-0.00141817
-0.000220104
-0.00144944
-0.000281688
-0.00146797
-0.000384523
-0.00144669
-0.000553904
-0.00132656
-0.000832134
-0.00105801
-0.00118207
-0.000516629
-0.00111911
0.000520031
-0.00100042
-0.0137445
-0.00164395
-0.00872246
-0.00222812
-0.00374858
-0.00291517
-0.00118248
-0.00295245
-0.00183322
-0.00282689
-0.00154151
-0.00268809
-0.000930019
-0.00257562
-0.000124623
-0.00249895
0.00079842
-0.00246123
0.00180186
-0.00245246
0.00287981
-0.0024665
0.00401005
-0.00248548
0.00513447
-0.00245739
0.00610684
-0.00227539
0.00658789
-0.0019583
0.00587354
-0.00151683
0.00374862
-0.00154202
0.00112938
-0.00157931
0.000432615
-0.00156653
0.000219718
-0.00150729
0.000128027
-0.00141706
7.3739e-05
-0.00131561
3.40139e-05
-0.00122087
-2.10736e-06
-0.0011454
-3.79589e-05
-0.00109304
-7.11398e-05
-0.00105938
-9.951e-05
-0.00103953
-0.000121338
-0.00103175
-0.000135312
-0.00103749
-0.000141023
-0.00106141
-0.000139447
-0.00111155
-0.000134197
-0.00119834
-0.000133212
-0.00132896
-0.000150958
-0.00150319
-0.000210196
-0.00172132
-0.000335665
-0.00200589
-0.000547452
-0.00231112
-0.000876734
-0.00212573
-0.00130438
-0.00159114
-0.00358544
-0.0098672
-0.0054767
-0.00683097
-0.00554533
-0.00367976
-0.00575553
-0.000972106
-0.0053144
-0.00227419
-0.0049354
-0.00192036
-0.004678
-0.00118725
-0.00448593
-0.000316527
-0.00432173
0.000634394
-0.0041548
0.0016351
-0.0039564
0.00268159
-0.00370962
0.00376345
-0.00339761
0.00482263
-0.00299574
0.00570514
-0.00247578
0.00606806
-0.00190037
0.00529822
-0.00136654
0.00321486
-0.00128388
0.00104682
-0.00123378
0.00038263
-0.00114127
0.00012732
-0.00100798
-5.15018e-06
-0.000860709
-7.34123e-05
-0.000728997
-9.75831e-05
-0.000626252
-0.000104738
-0.000553633
-0.000110463
-0.000505331
-0.000119327
-0.000474866
-0.00012986
-0.000456904
-0.000139185
-0.000447682
-0.000144417
-0.000445227
-0.000143362
-0.000449695
-0.000134862
-0.000464398
-0.000119379
-0.000497554
-9.9943e-05
-0.000564601
-8.38009e-05
-0.000691604
-8.30862e-05
-0.000921304
-0.000105863
-0.00132242
-0.000146232
-0.00190055
-0.000298505
-0.00202091
-0.00118392
-0.00354526
-0.00957208
-0.0164211
-0.0115275
-0.00857308
-0.00807358
-0.00442584
-0.00691507
-0.00343253
-0.00636775
-0.00246751
-0.00609471
-0.00146012
-0.00591101
-0.000500067
-0.00570352
0.000427074
-0.00540784
0.00133959
-0.00500153
0.00227545
-0.00446697
0.00322906
-0.00379794
0.00415377
-0.00300859
0.00491593
-0.00215662
0.00521622
-0.00136599
0.00450769
-0.000715306
0.00256426
-0.000566381
0.000898004
-0.000462401
0.000278766
-0.000301822
-3.31392e-05
-0.000125188
-0.000181665
1.7018e-05
-0.000215499
0.000119513
-0.000199959
0.000189331
-0.000174437
0.000235246
-0.000156259
0.000263768
-0.00014773
0.00028002
-0.000145993
0.000288072
-0.000147116
0.000291561
-0.000147786
0.000294191
-0.000145871
0.000300049
-0.000140598
0.000313663
-0.000132871
0.000339758
-0.000125918
0.000382161
-0.000126085
0.000441183
-0.000141992
0.000513016
-0.000177583
0.000594002
-0.000227109
0.000641923
-0.000346317
0.000438379
-0.000980274
-0.00303224
-0.00921165
0.000272544
-0.00726025
-0.006377
-0.0068664
-0.00382621
-0.00686745
-0.0024663
-0.00686345
-0.00146396
-0.00675893
-0.000604415
-0.00652014
0.000188446
-0.00613983
0.000959452
-0.00555893
0.00169472
-0.00475736
0.00242765
-0.00374323
0.00313979
-0.0025597
0.00373256
-0.00136115
0.0040178
-0.000195822
0.00334247
0.000599122
0.00176941
0.000816259
0.000680984
0.00094107
0.000154078
0.00104083
-0.000132778
0.00109806
-0.000238773
0.00112207
-0.00023938
0.00113121
-0.000208979
0.0011351
-0.000178206
0.00113602
-0.000157053
0.0011338
-0.000145381
0.00112777
-0.000139845
0.00111798
-0.0001372
0.00110571
-0.00013539
0.00109368
-0.000133724
0.00108605
-0.000132835
0.00108809
-0.000134789
0.00110569
-0.000143392
0.00114416
-0.000164434
0.00120706
-0.000204771
0.00129739
-0.000267788
0.00141485
-0.000344457
0.00147901
-0.000410359
0.0011316
-0.000632764
-0.00188489
-0.000535915
0.000776951
-0.0037244
-0.00318818
-0.0053762
-0.00217424
-0.00650182
-0.00134052
-0.00715863
-0.000806991
-0.00738383
-0.000379057
-0.00721381
1.85878e-05
-0.00673694
0.000482751
-0.00596155
0.000919488
-0.00487877
0.00134504
-0.00350928
0.00177046
-0.00189506
0.00211849
-8.00244e-05
0.00220291
0.00157599
0.00168658
0.00242758
0.000917937
0.00271822
0.000390476
0.00275477
0.000117654
0.00263308
-1.09603e-05
0.00245965
-6.52058e-05
0.00231276
-9.23639e-05
0.00220698
-0.000103065
0.00213532
-0.000106422
0.00208464
-0.000106244
0.00204296
-0.000103572
0.00200222
-9.89795e-05
0.00195853
-9.33896e-05
0.00191136
-8.80941e-05
0.00186238
-8.46175e-05
0.00181436
-8.46888e-05
0.0017701
-9.03972e-05
0.00173136
-0.000104527
0.00169803
-0.000130983
0.00166845
-0.000175063
0.00164409
-0.000243308
0.00164498
-0.000345234
0.00173706
-0.000502327
0.00188077
-0.000776358
1.17491e-05
0.00402272
0.000710987
0.00141743
-0.00184363
-0.00408942
-0.005503
-0.00638362
-0.00683655
-0.00689175
-0.00648237
-0.00563592
-0.00436343
-0.00266486
-0.000617385
0.0015164
0.00313653
0.00399004
0.00431805
0.00437554
0.00430716
0.00418768
0.00404372
0.00389095
0.00373603
0.00358198
0.003431
0.00328483
0.00314443
0.00300952
0.00287833
0.00274734
0.00261092
0.00246062
0.00228406
0.00206351
0.00177464
0.00138351
0.000834511
1.09734e-05
)
;

boundaryField
{
    floor
    {
        type            calculated;
        value           nonuniform List<scalar> 
29
(
0
0
0
0
0
0
0
0
0
0
0
0
0
0
0
0
0
0
0
0
-1.88832e-06
-3.71314e-06
8.76504e-07
5.05764e-06
1.83526e-06
-1.85497e-06
-3.17808e-06
-1.32665e-06
3.19776e-06
)
;
    }
    ceiling
    {
        type            calculated;
        value           nonuniform List<scalar> 
43
(
0.000167464
0.000162314
7.10929e-05
7.33951e-05
7.17249e-05
7.3209e-05
7.3793e-05
7.40319e-05
7.39486e-05
7.35318e-05
7.31976e-05
7.27142e-05
7.20423e-05
7.11773e-05
6.92761e-05
6.65792e-05
6.45739e-05
6.2612e-05
6.03049e-05
5.75635e-05
5.4407e-05
5.17359e-05
4.98377e-05
4.86353e-05
4.79364e-05
4.75492e-05
4.73193e-05
4.7138e-05
4.69412e-05
4.6704e-05
4.64319e-05
4.615e-05
4.5893e-05
4.56989e-05
4.56097e-05
4.56819e-05
4.60126e-05
4.6786e-05
4.72883e-05
4.72307e-05
2.14059e-05
1.82835e-05
3.18776e-05
)
;
    }
    sWall
    {
        type            calculated;
        value           uniform -6.33225e-05;
    }
    nWall
    {
        type            calculated;
        value           nonuniform List<scalar> 6(-1.60103e-05 -1.93181e-05 -1.442e-05 -1.56313e-05 -1.57656e-05 -2.44058e-05);
    }
    sideWalls
    {
        type            empty;
        value           nonuniform 0();
    }
    glass1
    {
        type            calculated;
        value           nonuniform List<scalar> 9(-2.36217e-05 -6.69498e-05 -0.000107822 -0.000147394 -0.000186017 -0.000223693 -0.00025957 -0.000291628 -0.000316278);
    }
    glass2
    {
        type            calculated;
        value           nonuniform List<scalar> 2(-6.66865e-05 -7.45413e-05);
    }
    sun
    {
        type            calculated;
        value           uniform 0;
    }
    heatsource1
    {
        type            calculated;
        value           nonuniform List<scalar> 3(2.00569e-07 2.0059e-07 2.00666e-07);
    }
    heatsource2
    {
        type            calculated;
        value           nonuniform List<scalar> 4(4.89371e-08 4.93389e-08 0 0);
    }
    Table_master
    {
        type            calculated;
        value           nonuniform List<scalar> 9(-1.52129e-07 -1.52174e-07 -1.52088e-07 -1.51988e-07 -1.51906e-07 -1.51835e-07 -1.51771e-07 -1.51708e-07 -1.5162e-07);
    }
    Table_slave
    {
        type            calculated;
        value           nonuniform List<scalar> 9(1.50589e-07 1.50567e-07 1.50556e-07 1.50554e-07 1.50565e-07 1.50587e-07 1.50619e-07 1.50661e-07 1.50697e-07);
    }
    inlet
    {
        type            calculated;
        value           uniform 0.000366378;
    }
    outlet
    {
        type            calculated;
        value           nonuniform List<scalar> 2(-0.00412641 0.00314988);
    }
}


// ************************************************************************* //
