/*--------------------------------*- C++ -*----------------------------------*\
  =========                 |
  \\      /  F ield         | OpenFOAM: The Open Source CFD Toolbox
   \\    /   O peration     | Website:  https://openfoam.org
    \\  /    A nd           | Version:  6
     \\/     M anipulation  |
\*---------------------------------------------------------------------------*/
FoamFile
{
    version     2.0;
    format      ascii;
    class       surfaceScalarField;
    location    "1800";
    object      phi;
}
// * * * * * * * * * * * * * * * * * * * * * * * * * * * * * * * * * * * * * //

dimensions      [1 0 -1 0 0 0 0];

internalField   nonuniform List<scalar> 
852
(
-0.00293627
0.00299253
-0.00397381
0.00103754
-0.00476265
0.000788837
-0.00537997
0.000617326
-0.00579666
0.000416687
-0.0059901
0.000193442
-0.00593842
-5.16851e-05
-0.00562393
-0.000314488
-0.00505866
-0.000565265
-0.00429419
-0.000764477
-0.00341093
-0.000883254
-0.00249762
-0.000913313
-0.00162901
-0.000868616
-0.000827117
-0.000801889
-0.000825677
-0.000674984
0.000677671
-0.00034444
-0.000330544
0.00026295
-0.00060739
0.000734977
-0.000472027
0.00104734
-0.000312364
0.00124083
-0.00019349
0.00134588
-0.000105045
0.00139796
-5.20881e-05
0.00142719
-2.92252e-05
0.0014452
-1.8015e-05
0.00145523
-1.00277e-05
0.00145821
-2.97324e-06
0.00145253
5.67945e-06
0.00142965
2.28775e-05
0.00136712
6.2525e-05
0.00122716
0.000139961
0.000995262
0.0002319
0.000705664
0.000289598
0.000709277
-0.00209468
0.0052387
-0.00309926
0.00204213
-0.00390498
0.00159455
-0.00450904
0.00122138
-0.00491576
0.000823416
-0.00511163
0.000389304
-0.00507137
-9.19428e-05
-0.00478032
-0.000605537
-0.00426155
-0.00108404
-0.00357618
-0.00144985
-0.00280628
-0.00165315
-0.00203242
-0.00168717
-0.00132691
-0.00157412
-0.000778268
-0.00135054
-0.00057525
-0.0010287
-7.92775e-05
-0.000496023
-7.93287e-05
0.000380174
0.000305143
0.000803608
-0.000753979
0.00105121
-0.000854996
0.00125883
-0.000679639
0.00141288
-0.000466419
0.00150261
-0.000283222
0.00151631
-0.000118746
0.00152004
-5.58177e-05
0.00152461
-3.37919e-05
0.00152836
-2.17611e-05
0.00153093
-1.26035e-05
0.00153224
-4.2831e-06
0.00153137
6.55097e-06
0.00152475
2.94999e-05
0.00148366
0.00010361
0.00130915
0.00031447
0.00100747
0.000533589
0.000627104
0.00066996
0.00134569
-0.00146601
0.00693639
-0.00232883
0.00290495
-0.00303725
0.00230297
-0.00354849
0.00173263
-0.00389842
0.00117335
-0.00406913
0.000560009
-0.00401593
-0.000145143
-0.00371646
-0.000905008
-0.00321537
-0.00158512
-0.00258837
-0.00207685
-0.00191717
-0.00232435
-0.00126605
-0.0023383
-0.000685881
-0.00215428
-0.000228402
-0.00180801
7.62001e-05
-0.0013333
0.000277491
-0.000697314
0.000198162
0.00148309
-0.00116993
0.00169696
-0.000967854
0.00167603
-0.00083407
0.00167631
-0.000679919
0.00169758
-0.00048768
0.00170777
-0.000293422
0.00158918
0.00153352
0.00149988
0.00147827
0.00146582
0.00146169
0.00146839
0.00149805
0.00160181
0.00132171
0.000594572
0.000981177
0.00087412
0.000548256
0.00110288
0.00190814
-0.00102396
0.00826031
-0.00170566
0.00358665
-0.00216668
0.00276399
-0.00249379
0.00205974
-0.00271744
0.001397
-0.00280564
0.000648205
-0.00268362
-0.000267162
-0.00233858
-0.00125005
-0.00185379
-0.00206991
-0.00131258
-0.00261806
-0.000782218
-0.00285472
-0.000298437
-0.00282208
0.000120874
-0.00257359
0.000470496
-0.00215764
0.000777405
-0.00164021
0.00114594
-0.00106585
0.00190448
-0.000560377
0.00244069
-0.000528942
0.00203908
-0.00076832
0.00191285
-0.000841619
0.00180378
-0.000725006
0.00171109
-0.000587228
0.00166127
-0.000437857
0.00164257
-0.000274723
0.0017554
-0.000112982
0.00182722
-7.19765e-05
0.00188555
-5.84751e-05
0.00193077
-4.53728e-05
0.00194899
-1.83753e-05
0.00191904
2.97967e-05
0.00181595
0.00010294
0.00160763
0.000208159
0.00124013
0.000367352
0.00110945
0.000725252
0.000823367
0.0011602
0.000386059
0.00154019
0.00231281
-0.000718107
0.00933635
-0.00123456
0.0041031
-0.00132094
0.00285037
-0.00137235
0.00211115
-0.00139332
0.00141796
-0.00130436
0.000559251
-0.00102464
-0.000546883
-0.000615959
-0.00165873
-0.000183992
-0.00250188
0.000204762
-0.00300681
0.000523416
-0.00317337
0.000769291
-0.00306795
0.000955231
-0.00275953
0.00110949
-0.0023119
0.00126264
-0.00179336
0.00146621
-0.00126941
0.00175033
-0.000844497
0.00188817
-0.000666785
0.00179123
-0.000671377
0.0016172
-0.000667588
0.00147122
-0.000579024
0.00135237
-0.000468381
0.00127139
-0.000356876
0.00124128
-0.000244615
0.0012827
-0.000154408
0.00133011
-0.000119382
0.00138247
-0.000110833
0.00143648
-9.93838e-05
0.00148162
-6.35188e-05
0.00149835
1.30677e-05
0.00146606
0.000135233
0.0013728
0.000301422
0.00121926
0.000520892
0.00108525
0.000859258
0.000941672
0.00130378
0.00062289
0.00185897
0.000552166
0.00238354
-0.000966116
0.00151808
-0.00142945
0.000463133
-0.00138247
-0.000626903
0.0103701
-0.000980593
0.00445679
-0.000553203
0.00242298
-0.000187167
0.00174512
9.46828e-05
0.00113611
0.000484509
0.000169425
0.000983075
-0.00104545
0.00140396
-0.00207962
0.00169008
-0.00278799
0.00183723
-0.00315397
0.00187489
-0.00321103
0.00183145
-0.00302451
0.00173707
-0.00266515
0.00162787
-0.00220269
0.00153694
-0.00170243
0.00148998
-0.00122245
0.00148115
-0.000835667
0.00142689
-0.000612521
0.00128324
-0.000527728
0.00109355
-0.000477905
0.000926952
-0.000412422
0.000800191
-0.000341621
0.000719107
-0.000275791
0.000691282
-0.000216791
0.000713628
-0.000176753
0.000761784
-0.000167538
0.000825199
-0.000174249
0.000899284
-0.000173468
0.000978487
-0.000142722
0.00105087
-5.93147e-05
0.0010988
8.73004e-05
0.00111792
0.000282309
0.00111633
0.000522477
0.00114119
0.0008344
0.00124023
0.00120474
0.00142681
0.00167239
0.00186991
0.00194044
0.0021321
0.00125589
0.00174334
0.000851897
0.000417427
-0.000681705
0.0115028
-0.000560742
0.00433582
0.000576011
0.00128623
0.00137235
0.000948783
0.00205829
0.000450169
0.00276005
-0.000532338
0.00330416
-0.00158956
0.00359111
-0.00236656
0.00362567
-0.00282255
0.00345331
-0.00298161
0.00313607
-0.0028938
0.00273506
-0.0026235
0.00230349
-0.00223358
0.00188809
-0.00178728
0.00152435
-0.00133869
0.00122846
-0.000926564
0.000998965
-0.000606172
0.000800716
-0.000414272
0.000601056
-0.000328069
0.000411233
-0.000288081
0.000256243
-0.000257432
0.000145757
-0.000231134
8.08372e-05
-0.000210872
6.18566e-05
-0.00019781
8.20645e-05
-0.000196961
0.000126483
-0.000211957
0.000185919
-0.000233686
0.0002593
-0.000246849
0.00035076
-0.000234182
0.000465181
-0.000173736
0.000590367
-3.78856e-05
0.000715791
0.000156884
0.000852345
0.000385924
0.00103782
0.000648928
0.00132042
0.000922136
0.00176194
0.00123086
0.00242892
0.00127346
0.0029707
0.000714117
0.0029918
0.000830796
0.00347029
0.00259577
0.00941177
0.00330047
0.00363113
0.00370339
0.000883303
0.00439454
0.000257636
0.00521077
-0.000366059
0.00584008
-0.00116165
0.00606104
-0.00181052
0.00590275
-0.00220827
0.00544204
-0.00236185
0.00477107
-0.00231064
0.00398516
-0.00210789
0.0031683
-0.00180665
0.00238197
-0.00144725
0.00167522
-0.00108053
0.0010809
-0.000744374
0.000605457
-0.000451119
0.000254283
-0.000254998
-1.10508e-06
-0.000158884
-0.000197278
-0.000131895
-0.000350957
-0.000134403
-0.000466916
-0.000141473
-0.000547538
-0.000150513
-0.000596398
-0.000162012
-0.000617182
-0.000177026
-0.000616642
-0.000197501
-0.000604655
-0.000223943
-0.000587112
-0.000251229
-0.000563129
-0.000270832
-0.000524382
-0.000272929
-0.000452183
-0.000245935
-0.000317507
-0.000172562
-0.000136059
-2.4564e-05
7.73421e-05
0.000172523
0.000346192
0.000380079
0.000681677
0.000586651
0.00112408
0.000788453
0.00161025
0.000787294
0.00181679
0.000507581
0.00108056
0.00156703
0.00480015
0.00996536
0.0135885
0.012458
0.00201376
0.0117516
0.000964039
0.0110958
0.000289713
0.0102152
-0.000280986
0.00906968
-0.000665043
0.00776403
-0.000902632
0.00639229
-0.000990104
0.00502793
-0.000946278
0.00373799
-0.00081794
0.00257514
-0.000643798
0.0015603
-0.000432415
0.000718155
-0.000238387
5.54709e-05
-8.16895e-05
-0.000411694
1.60453e-05
-0.000700409
3.37177e-05
-0.000879183
1.98899e-05
-0.00100551
-5.57336e-06
-0.00110666
-3.3252e-05
-0.00118902
-5.91118e-05
-0.00125532
-8.42066e-05
-0.00130934
-0.000108
-0.00135548
-0.000130885
-0.0014003
-0.000152672
-0.00145204
-0.000172212
-0.00151828
-0.000184984
-0.00160617
-0.000182938
-0.00172428
-0.000154824
-0.00188279
-8.742e-05
-0.00208717
3.18191e-05
-0.00232456
0.000212824
-0.00262164
0.0004696
-0.00306023
0.000818666
-0.0037318
0.00125822
-0.00470295
0.00175961
-0.00609022
0.00217457
-0.00777482
0.00219218
-0.00730236
0.00109456
-0.00222635
0.0046789
0.00351234
0.00379166
0.00185128
0.00417327
-9.18929e-05
0.00417988
-0.000287599
0.00377599
-0.000261153
0.00314512
-0.000271762
0.00239388
-0.000238865
0.00159017
-0.000142565
0.000776095
-3.86762e-06
3.98813e-06
0.000128309
-0.000635222
0.000206795
-0.00108681
0.000213199
-0.0013736
0.000205097
-0.00153712
0.000179568
-0.00163982
0.000136425
-0.00171335
9.34173e-05
-0.00177442
5.5497e-05
-0.00183178
2.41078e-05
-0.00189031
-5.86201e-07
-0.00195183
-2.26868e-05
-0.00201717
-4.26576e-05
-0.00208828
-5.97804e-05
-0.00216838
-7.25682e-05
-0.00225991
-8.0677e-05
-0.00236379
-8.11071e-05
-0.00247896
-6.77647e-05
-0.00260149
-3.23009e-05
-0.0027236
3.46913e-05
-0.00283325
0.000141474
-0.0029273
0.000306873
-0.00301351
0.000555807
-0.00309735
0.000902503
-0.00317454
0.00133541
-0.00319981
0.00178488
-0.00312066
0.00209541
-0.00275745
0.00182897
-0.00149682
-0.000166059
-0.00365119
-0.000539434
0.00411651
0.000297037
0.00101481
-8.16407e-05
0.000286785
-0.00045567
8.6431e-05
-0.000785965
6.91417e-05
-0.00114673
8.90038e-05
-0.00151336
0.000127763
-0.00183292
0.000176994
-0.00205868
0.000221893
-0.00218447
0.0002541
-0.00224105
0.000263377
-0.00226603
0.000238177
-0.00226422
0.000203293
-0.00225212
0.000167467
-0.00224856
0.000132859
-0.00225836
0.000103222
-0.00228139
7.85304e-05
-0.00231544
5.81526e-05
-0.00235726
4.12294e-05
-0.00240789
2.7943e-05
-0.00246623
1.56906e-05
-0.00253017
4.1602e-06
-0.00259702
-5.72256e-06
-0.00266457
-1.31233e-05
-0.00272922
-1.64607e-05
-0.00278427
-1.27172e-05
-0.00281891
2.34465e-06
-0.00282295
3.87317e-05
-0.00278615
0.000104667
-0.00268688
0.000207604
-0.00249397
0.000362904
-0.0021808
0.000589326
-0.00172827
0.000882879
-0.00110844
0.00116505
-0.000150256
0.00113723
0.00114242
0.000536299
0.00157812
-0.000601758
-0.00199422
-0.00723141
-0.0101327
-0.00597344
-0.00493869
-0.00464073
-0.00454739
-0.00447395
-0.00438263
-0.00425415
-0.00407781
-0.00385779
-0.0036067
-0.00334745
-0.00311445
-0.00291723
-0.00275655
-0.00263104
-0.00253559
-0.00246517
-0.00241537
-0.00238269
-0.00236343
-0.0023565
-0.00236114
-0.00237563
-0.00239745
-0.00242249
-0.00244362
-0.00244949
-0.00241872
-0.00232173
-0.00212152
-0.00176572
-0.00118323
-0.000306924
0.000851759
0.0019826
0.00251227
0.00190349
)
;

boundaryField
{
    floor
    {
        type            calculated;
        value           nonuniform List<scalar> 
29
(
0
0
0
0
0
0
0
0
0
0
0
0
0
0
0
0
0
0
0
0
-3.61235e-06
-9.30687e-06
-1.41936e-05
-1.86162e-05
-1.43978e-06
-2.68656e-06
-7.64631e-06
-8.01273e-06
-7.27216e-06
)
;
    }
    ceiling
    {
        type            calculated;
        value           nonuniform List<scalar> 
43
(
-4.54149e-05
-4.40963e-05
-4.2789e-05
-1.99482e-05
-1.11694e-05
-6.91673e-06
-4.29679e-06
-2.31808e-06
-7.12271e-07
6.51458e-07
1.8702e-06
3.01467e-06
4.13161e-06
5.17419e-06
6.06963e-06
6.78885e-06
7.347e-06
7.77555e-06
8.10532e-06
8.35674e-06
8.5497e-06
8.68192e-06
8.76507e-06
8.79607e-06
8.7713e-06
8.69689e-06
8.57757e-06
8.41468e-06
8.20871e-06
7.959e-06
7.68364e-06
7.39476e-06
7.10518e-06
6.82882e-06
6.57627e-06
6.36685e-06
6.39233e-06
6.62956e-06
7.02131e-06
8.24949e-06
1.10876e-05
8.03832e-06
-6.47318e-05
)
;
    }
    sWall
    {
        type            calculated;
        value           uniform -0.000274897;
    }
    nWall
    {
        type            calculated;
        value           nonuniform List<scalar> 6(-4.7187e-05 -5.65613e-05 -6.10665e-05 -7.19875e-05 -7.88479e-05 -9.89839e-05);
    }
    sideWalls
    {
        type            empty;
        value           nonuniform 0();
    }
    glass1
    {
        type            calculated;
        value           nonuniform List<scalar> 9(-5.62615e-05 -0.000151493 -0.000231684 -0.00029996 -0.000357929 -0.000406817 -0.000451074 -0.000504695 -0.000564675);
    }
    glass2
    {
        type            calculated;
        value           nonuniform List<scalar> 2(-0.000249304 -0.000275858);
    }
    sun
    {
        type            calculated;
        value           uniform 0;
    }
    heatsource1
    {
        type            calculated;
        value           nonuniform List<scalar> 3(2.03964e-07 2.03919e-07 2.03937e-07);
    }
    heatsource2
    {
        type            calculated;
        value           nonuniform List<scalar> 4(5.10989e-08 5.12211e-08 0 0);
    }
    Table_master
    {
        type            calculated;
        value           nonuniform List<scalar> 9(-1.52972e-07 -1.53053e-07 -1.53082e-07 -1.53102e-07 -1.53116e-07 -1.53125e-07 -1.53129e-07 -1.53122e-07 -1.5309e-07);
    }
    Table_slave
    {
        type            calculated;
        value           nonuniform List<scalar> 9(1.52849e-07 1.52874e-07 1.52858e-07 1.52844e-07 1.52839e-07 1.52842e-07 1.52858e-07 1.529e-07 1.5298e-07);
    }
    inlet
    {
        type            calculated;
        value           uniform -0.00617748;
    }
    outlet
    {
        type            calculated;
        value           nonuniform List<scalar> 2(0.00755172 0.00294543);
    }
}


// ************************************************************************* //
