/*--------------------------------*- C++ -*----------------------------------*\
  =========                 |
  \\      /  F ield         | OpenFOAM: The Open Source CFD Toolbox
   \\    /   O peration     | Website:  https://openfoam.org
    \\  /    A nd           | Version:  6
     \\/     M anipulation  |
\*---------------------------------------------------------------------------*/
FoamFile
{
    version     2.0;
    format      ascii;
    class       volScalarField;
    location    "1500";
    object      epsilon;
}
// * * * * * * * * * * * * * * * * * * * * * * * * * * * * * * * * * * * * * //

dimensions      [0 2 -3 0 0 0 0];

internalField   nonuniform List<scalar> 
459
(
0.00559671
0.0048947
0.00431363
0.00386173
0.00350874
0.00322182
0.00298086
0.00276914
0.00257446
0.00238758
0.00220051
0.00200493
0.00178968
0.00153416
0.00123677
2.13313e-06
2.38793e-06
2.51564e-06
2.15753e-06
1.90253e-06
1.59824e-06
1.28238e-06
1.16874e-06
1.05977e-06
1.18468e-06
1.49802e-06
2.08687e-06
3.00756e-06
3.57991e-06
3.61465e-06
3.80498e-06
3.61557e-06
3.17449e-06
2.48242e-06
0.00814779
0.00578063
0.004407
0.00339215
0.00275087
0.00233594
0.00205135
0.0018465
0.00169256
0.00157419
0.00148182
0.00140605
0.0013311
0.00121477
0.0010519
0.00105339
0.000679919
8.21471e-06
7.84873e-06
6.74088e-06
5.96688e-06
5.28239e-06
3.53673e-06
2.51227e-06
1.84256e-06
1.86879e-06
2.51772e-06
3.76887e-06
5.62525e-06
7.64527e-06
9.27935e-06
1.03148e-05
1.00212e-05
8.99555e-06
8.41278e-06
5.91383e-06
0.0101987
0.00696972
0.00452737
0.0029662
0.00216572
0.0017336
0.00148616
0.00133452
0.00122943
0.0011543
0.00110138
0.00106537
0.00103701
0.000983527
0.000913281
0.000926599
0.00069256
2.74295e-05
1.99046e-05
1.66307e-05
1.5599e-05
1.43917e-05
1.36432e-05
9.14314e-06
3.18038e-06
3.70559e-06
5.44847e-06
7.71304e-06
1.07344e-05
1.49515e-05
2.12913e-05
3.2754e-05
2.53495e-05
2.53953e-05
2.95536e-05
2.50007e-05
0.012049
0.00845345
0.00428009
0.00212492
0.00129508
0.000950209
0.000802262
0.000756779
0.000758416
0.000774836
0.00079366
0.000811766
0.000826697
0.000817098
0.000801379
0.000850331
0.000727332
0.000111329
3.8654e-05
2.7804e-05
2.7769e-05
2.98415e-05
3.32615e-05
3.87626e-05
4.87917e-05
5.29284e-05
5.74352e-05
6.20689e-05
6.66178e-05
7.19966e-05
7.94901e-05
9.13176e-05
0.000112414
6.38274e-05
7.48062e-05
9.98269e-05
0.000114479
0.0139451
0.0103345
0.00386728
0.00127339
0.000668638
0.000502968
0.000461981
0.000468675
0.000503327
0.000547523
0.000593563
0.000637396
0.000675362
0.000687406
0.000697551
0.000746617
0.000645807
0.000171869
4.64494e-05
3.25694e-05
3.19995e-05
3.35864e-05
3.5849e-05
3.85581e-05
4.14912e-05
4.41408e-05
4.71188e-05
5.01869e-05
5.34306e-05
5.73352e-05
6.25003e-05
6.95633e-05
7.89665e-05
9.02247e-05
0.000110112
0.00014025
0.000187923
0.000216482
0.00016747
0.000103295
0.0161254
0.012794
0.00398299
0.000732832
0.000489057
0.000372813
0.000347652
0.000355841
0.000383472
0.000426037
0.000473805
0.000521221
0.00056165
0.000581746
0.000603638
0.000639572
0.000552149
0.000185727
6.24358e-05
5.00517e-05
5.1983e-05
5.56094e-05
5.9275e-05
6.29385e-05
6.6692e-05
7.04528e-05
7.38663e-05
7.66514e-05
7.92681e-05
8.22975e-05
8.65518e-05
9.31505e-05
0.000103531
0.000119356
0.000142592
0.000174524
0.000213773
0.00024686
0.000251158
0.000111513
0.0189596
0.0163743
0.00689124
0.0008921
0.000507811
0.000328729
0.000290426
0.000297359
0.000321599
0.000355758
0.000395777
0.000436913
0.000473041
0.000497704
0.000523647
0.00054808
0.000466511
0.000182213
9.32292e-05
9.47287e-05
0.000107005
0.000117255
0.000123519
0.000127274
0.000130558
0.000132673
0.00013386
0.000134914
0.000136075
0.000137724
0.000140595
0.00014598
0.000155914
0.000173202
0.000201187
0.000243678
0.000306502
0.000395941
0.000500781
0.000498125
0.023459
0.0251057
0.0188566
0.00183709
0.000604909
0.000311631
0.000252118
0.000255153
0.000279863
0.000310459
0.000344964
0.000380798
0.000413679
0.000439429
0.000461955
0.000473712
0.000394099
0.000187256
0.000157168
0.000196528
0.000240156
0.00027116
0.000281435
0.000278221
0.000269073
0.000260093
0.000253081
0.00024817
0.000245009
0.000243365
0.00024348
0.000246365
0.00025412
0.000270354
0.000300569
0.000351621
0.000436615
0.000597984
0.000894679
0.000949457
0.0323699
0.0489456
0.0709028
0.00978431
0.00102474
0.000415966
0.000282189
0.000252543
0.000264328
0.000292474
0.000325175
0.000359684
0.00039164
0.000415269
0.00042787
0.000425003
0.000353444
0.000225605
0.000287688
0.000417132
0.000544793
0.000604747
0.00060952
0.000584809
0.00055177
0.000520874
0.000495948
0.000477285
0.000463742
0.000453895
0.000446725
0.000442101
0.000441186
0.000446783
0.000463474
0.000495461
0.000536776
0.000582551
0.000967232
0.00117074
0.164605
0.0251346
0.00217937
0.000791262
0.000499538
0.000393406
0.000367948
0.000376912
0.000401543
0.000432807
0.000462006
0.000479385
0.000480477
0.000485301
0.000439419
0.000410114
0.000609188
0.000914224
0.0011593
0.00128325
0.00130017
0.00125451
0.0011857
0.00111754
0.00106057
0.00101718
0.000985714
0.00096299
0.00094581
0.000931846
0.000920152
0.000911237
0.000906447
0.000905475
0.000899755
0.000875854
0.000947292
0.00138712
0.0189921
0.00358632
0.00321581
0.00158746
0.00104666
0.000719056
0.00053482
0.000447893
0.000425858
0.000434556
0.00045438
0.000468627
0.000471531
0.000454689
0.000473142
0.000689656
0.00118911
0.00185153
0.00240347
0.00269801
0.00275715
0.00267832
0.00254983
0.0024245
0.00232491
0.00225511
0.00220977
0.00217974
0.00215555
0.00212951
0.00209692
0.00205622
0.00200739
0.00194752
0.00186753
0.00173729
0.00189201
0.00194952
0.000497031
0.000516885
0.00391737
0.0014878
0.000753743
0.000670387
0.00064744
0.000638915
0.000642973
0.000658341
0.000669216
0.000682691
0.000698347
0.000711412
0.00071568
0.000697751
0.000695273
0.000729084
0.000801548
0.000917768
0.00108905
0.00126273
0.00139523
0.0014699
0.00149322
0.00148199
0.00145323
0.00141942
0.00138764
0.00136033
0.0013367
0.00131403
0.00128884
0.00125752
0.00121641
0.0011608
0.00108306
0.000969939
0.000869905
0.000761452
)
;

boundaryField
{
    floor
    {
        Cmu             0.09;
        kappa           0.41;
        E               9.8;
        type            epsilonWallFunction;
        value           nonuniform List<scalar> 
29
(
0.00123677
2.13313e-06
2.38793e-06
2.51564e-06
2.15753e-06
1.90253e-06
1.59824e-06
1.28238e-06
1.16874e-06
1.05977e-06
1.18468e-06
1.49802e-06
2.08687e-06
3.00756e-06
3.57991e-06
3.61465e-06
3.80498e-06
3.61557e-06
3.17449e-06
2.48242e-06
2.48242e-06
5.91383e-06
2.50007e-05
0.000114479
0.00123677
2.13313e-06
8.21471e-06
2.74295e-05
0.000111329
)
;
    }
    ceiling
    {
        Cmu             0.09;
        kappa           0.41;
        E               9.8;
        type            epsilonWallFunction;
        value           nonuniform List<scalar> 
43
(
0.000497031
0.000516885
0.00391737
0.0014878
0.000753743
0.000670387
0.00064744
0.000638915
0.000642973
0.000658341
0.000669216
0.000682691
0.000698347
0.000711412
0.00071568
0.000697751
0.000695273
0.000729084
0.000801548
0.000917768
0.00108905
0.00126273
0.00139523
0.0014699
0.00149322
0.00148199
0.00145323
0.00141942
0.00138764
0.00136033
0.0013367
0.00131403
0.00128884
0.00125752
0.00121641
0.0011608
0.00108306
0.000969939
0.000869905
0.000761452
0.0323699
0.0489456
0.0189921
)
;
    }
    sWall
    {
        Cmu             0.09;
        kappa           0.41;
        E               9.8;
        type            epsilonWallFunction;
        value           uniform 0.000497031;
    }
    nWall
    {
        Cmu             0.09;
        kappa           0.41;
        E               9.8;
        type            epsilonWallFunction;
        value           nonuniform List<scalar> 6(0.000103295 0.000111513 0.000498125 0.00138712 0.00194952 0.000761452);
    }
    sideWalls
    {
        type            empty;
    }
    glass1
    {
        Cmu             0.09;
        kappa           0.41;
        E               9.8;
        type            epsilonWallFunction;
        value           nonuniform List<scalar> 9(0.00559671 0.00814779 0.0101987 0.012049 0.0139451 0.0161254 0.0189596 0.023459 0.0323699);
    }
    glass2
    {
        Cmu             0.09;
        kappa           0.41;
        E               9.8;
        type            epsilonWallFunction;
        value           nonuniform List<scalar> 2(0.000949457 0.00117074);
    }
    sun
    {
        Cmu             0.09;
        kappa           0.41;
        E               9.8;
        type            epsilonWallFunction;
        value           nonuniform List<scalar> 
14
(
0.00559671
0.0048947
0.00431363
0.00386173
0.00350874
0.00322182
0.00298086
0.00276914
0.00257446
0.00238758
0.00220051
0.00200493
0.00178968
0.00153416
)
;
    }
    heatsource1
    {
        Cmu             0.09;
        kappa           0.41;
        E               9.8;
        type            epsilonWallFunction;
        value           nonuniform List<scalar> 3(0.000216482 0.00016747 0.000103295);
    }
    heatsource2
    {
        Cmu             0.09;
        kappa           0.41;
        E               9.8;
        type            epsilonWallFunction;
        value           nonuniform List<scalar> 4(0.00105339 0.000679919 0.000679919 0.00069256);
    }
    Table_master
    {
        Cmu             0.09;
        kappa           0.41;
        E               9.8;
        type            epsilonWallFunction;
        value           nonuniform List<scalar> 9(9.14314e-06 3.18038e-06 3.70559e-06 5.44847e-06 7.71304e-06 1.07344e-05 1.49515e-05 2.12913e-05 3.2754e-05);
    }
    Table_slave
    {
        Cmu             0.09;
        kappa           0.41;
        E               9.8;
        type            epsilonWallFunction;
        value           nonuniform List<scalar> 9(4.87917e-05 5.29284e-05 5.74352e-05 6.20689e-05 6.66178e-05 7.19966e-05 7.94901e-05 9.13176e-05 0.000112414);
    }
    inlet
    {
        type            turbulentMixingLengthDissipationRateInlet;
        mixingLength    0.01;
        phi             phi;
        k               k;
        value           uniform 0.164605;
    }
    outlet
    {
        type            zeroGradient;
    }
}


// ************************************************************************* //
