/*--------------------------------*- C++ -*----------------------------------*\
  =========                 |
  \\      /  F ield         | OpenFOAM: The Open Source CFD Toolbox
   \\    /   O peration     | Website:  https://openfoam.org
    \\  /    A nd           | Version:  6
     \\/     M anipulation  |
\*---------------------------------------------------------------------------*/
FoamFile
{
    version     2.0;
    format      ascii;
    class       volScalarField;
    location    "1500";
    object      nut;
}
// * * * * * * * * * * * * * * * * * * * * * * * * * * * * * * * * * * * * * //

dimensions      [0 2 -1 0 0 0 0];

internalField   nonuniform List<scalar> 
459
(
0.00251012
0.00240044
0.00230141
0.00221806
0.0021483
0.00208807
0.00203466
0.0019853
0.00193764
0.00188957
0.00183887
0.00178269
0.00171646
0.00163054
0.00151753
0.000181975
0.000188949
0.00019226
0.000182669
0.00017517
0.000165288
0.000153597
0.000148927
0.000144148
0.000149597
0.000161765
0.000180665
0.000204072
0.000216271
0.000216968
0.000220706
0.000216977
0.000207766
0.000191414
0.00284488
0.00306065
0.00305145
0.002955
0.00289909
0.00288375
0.00289211
0.00288495
0.00285164
0.0027906
0.00270129
0.00258096
0.00241767
0.00217066
0.00183489
0.00143848
0.00124314
0.000285245
0.000457842
0.000593986
0.000710289
0.000728839
0.000502851
0.000222996
0.000190218
0.000199534
0.000249636
0.000339635
0.000461041
0.000596221
0.000689599
0.000737838
0.000851118
0.000697761
0.000480437
0.00025564
0.00306596
0.0033761
0.00308676
0.00278526
0.00267661
0.00268799
0.00275993
0.00284449
0.0029103
0.00293986
0.00292156
0.00284652
0.0027032
0.00246124
0.00214529
0.00185369
0.0012508
0.00042634
0.00124836
0.0012706
0.00118532
0.00102591
0.000801314
0.000295623
0.000207916
0.000218788
0.000248784
0.000279337
0.000311865
0.000348276
0.000391816
0.000452293
0.00126708
0.00125456
0.00107552
0.000413371
0.00324119
0.00363681
0.00281087
0.00228955
0.00228935
0.00249705
0.00274424
0.00291879
0.0030143
0.00304432
0.00302624
0.00296105
0.00283475
0.00261175
0.00231845
0.00205992
0.00152271
0.000680078
0.00165949
0.00170727
0.00146003
0.00117451
0.000904514
0.000679836
0.0005166
0.0005308
0.000545452
0.000559736
0.000573081
0.000588099
0.000607823
0.000636576
0.000682231
0.00183993
0.00184793
0.00163095
0.000686406
0.00340301
0.00376383
0.00231359
0.00194152
0.0027218
0.00345375
0.00388282
0.00391713
0.00362157
0.00333731
0.00314862
0.00301602
0.0028726
0.00264529
0.00234132
0.00208561
0.00167749
0.00180322
0.00242163
0.00262582
0.00253911
0.00246758
0.0024564
0.00251251
0.00261943
0.00274792
0.00280337
0.00279022
0.00274246
0.00266992
0.00258312
0.00249545
0.00242045
0.00236916
0.00219517
0.00198645
0.00170743
0.000848825
0.000779235
0.000663291
0.00357186
0.00374532
0.00184561
0.00233938
0.00374365
0.0042597
0.00439709
0.00428003
0.00376428
0.00336466
0.00312261
0.00296171
0.00279609
0.00256228
0.00229381
0.00208918
0.00189774
0.00257976
0.00322768
0.00351802
0.00359275
0.00367932
0.00379141
0.00391647
0.00403236
0.00411279
0.00413277
0.00410051
0.00402092
0.00388915
0.00370049
0.00345757
0.00317552
0.00287821
0.00258704
0.00231834
0.00205507
0.0017405
0.00138509
0.000680472
0.00376996
0.00364207
0.0018655
0.00215267
0.00349693
0.00384158
0.00379057
0.0036364
0.00340559
0.00316261
0.00297419
0.00282229
0.00265898
0.00245427
0.00225365
0.00215334
0.00221971
0.00329962
0.00393484
0.00419646
0.00436706
0.00452647
0.0046718
0.00479339
0.0048827
0.00493954
0.00496164
0.00495715
0.00492503
0.00485537
0.00472924
0.00452163
0.004213
0.00380885
0.00334822
0.00288246
0.00245708
0.00210486
0.00176874
0.00112088
0.0040473
0.00395938
0.00259315
0.0015987
0.00275961
0.00318638
0.003166
0.00308373
0.00301355
0.00290918
0.00279682
0.00268207
0.00255017
0.00239755
0.00227572
0.00229809
0.00262112
0.00390435
0.0044915
0.00481841
0.00507673
0.0052651
0.00539885
0.00547944
0.00551679
0.00552959
0.00552933
0.00552479
0.00552032
0.00551555
0.00550334
0.00546616
0.00537237
0.00517651
0.0048301
0.00430216
0.00363769
0.00307681
0.00275089
0.00138949
0.00450587
0.00517177
0.00519717
0.00226728
0.00240671
0.00294485
0.00295909
0.0028891
0.00282511
0.00277806
0.00272159
0.00265256
0.00256545
0.00246566
0.00240535
0.00252373
0.00304939
0.00428029
0.00497798
0.00547529
0.00580406
0.00600727
0.00610134
0.00611335
0.00607933
0.00602662
0.00597195
0.0059248
0.00588996
0.00586899
0.00586064
0.00586009
0.00585738
0.00583687
0.00578104
0.00567254
0.00546718
0.00504985
0.00461564
0.00149
0.00840545
0.00350392
0.0030819
0.00335328
0.00331979
0.00325344
0.00314208
0.00303887
0.00297613
0.00292532
0.00286699
0.00279913
0.00277013
0.00295824
0.00368073
0.00458966
0.00545746
0.00610368
0.00651967
0.00675167
0.00682601
0.00679317
0.00670389
0.00659617
0.00649338
0.00640692
0.00633982
0.00628982
0.00625141
0.00621681
0.00617592
0.00611619
0.0060235
0.00588165
0.00565839
0.00528294
0.00448663
0.0015767
0.00377239
0.00299518
0.0040754
0.0039711
0.00382544
0.00359562
0.00335194
0.00309898
0.00297266
0.00292187
0.00289922
0.00287347
0.00286438
0.00300873
0.00352355
0.00432829
0.00528152
0.00620073
0.0068344
0.00714553
0.00720876
0.00712982
0.00699593
0.00686225
0.00675547
0.00668207
0.00663632
0.00660641
0.00657859
0.00653936
0.00647612
0.00637639
0.00622603
0.00600579
0.00568532
0.00520295
0.00456677
0.00176618
0.00111976
0.00113451
0.00222882
0.0016142
0.00128668
0.00123737
0.00122308
0.00121768
0.00122025
0.00122989
0.00123663
0.00124487
0.00125431
0.00126208
0.0012646
0.00125396
0.00125248
0.00127247
0.00131332
0.00137396
0.00145461
0.00152815
0.00157983
0.00160752
0.00161598
0.00161192
0.00160142
0.0015889
0.00157695
0.00156654
0.00155741
0.00154856
0.00153859
0.00152603
0.00150922
0.00148586
0.00145192
0.00139951
0.00134965
0.001291
)
;

boundaryField
{
    floor
    {
        type            nutkWallFunction;
        Cmu             0.09;
        kappa           0.41;
        E               9.8;
        value           nonuniform List<scalar> 
29
(
0.000180261
1.67383e-05
1.77541e-05
1.82343e-05
1.68391e-05
1.5741e-05
1.42833e-05
1.25428e-05
1.18415e-05
1.11222e-05
1.19435e-05
1.37609e-05
1.65453e-05
1.99378e-05
2.16845e-05
2.1784e-05
2.23167e-05
2.17863e-05
2.04699e-05
1.81123e-05
1.81122e-05
2.72325e-05
4.84788e-05
8.30505e-05
0.000180261
1.67382e-05
3.13276e-05
5.0179e-05
8.22696e-05
)
;
    }
    ceiling
    {
        type            nutkWallFunction;
        Cmu             0.09;
        kappa           0.41;
        E               9.8;
        value           nonuniform List<scalar> 
43
(
0.000134857
0.00013657
0.000258598
0.000191085
0.000154042
0.000148383
0.000146739
0.000146118
0.000146414
0.000147525
0.0001483
0.000149247
0.000150332
0.000151224
0.00015151
0.000150285
0.000150112
0.000152404
0.000157076
0.000163985
0.000173122
0.000181404
0.000187198
0.000190294
0.000191237
0.000190783
0.000189609
0.000188208
0.00018687
0.000185703
0.000184679
0.000183685
0.000182567
0.000181155
0.000179264
0.000176633
0.000172804
0.00016687
0.000161202
0.00015451
0.00049451
0.0005609
0.000420231
)
;
    }
    sWall
    {
        type            nutkWallFunction;
        Cmu             0.09;
        kappa           0.41;
        E               9.8;
        value           uniform 0.000134876;
    }
    nWall
    {
        type            nutkWallFunction;
        Cmu             0.09;
        kappa           0.41;
        E               9.8;
        value           nonuniform List<scalar> 6(8.01954e-05 8.23128e-05 0.000134884 0.000186845 0.000207918 0.000154519);
    }
    sideWalls
    {
        type            empty;
    }
    glass1
    {
        type            nutkWallFunction;
        Cmu             0.09;
        kappa           0.41;
        E               9.8;
        value           nonuniform List<scalar> 9(0.000288942 0.000324411 0.000347593 0.000365843 0.000382607 0.000400012 0.000420324 0.000448584 0.000494895);
    }
    glass2
    {
        type            nutkWallFunction;
        Cmu             0.09;
        kappa           0.41;
        E               9.8;
        value           nonuniform List<scalar> 2(0.000165763 0.000177128);
    }
    sun
    {
        type            nutkWallFunction;
        Cmu             0.09;
        kappa           0.41;
        E               9.8;
        value           nonuniform List<scalar> 
14
(
0.000288699
0.000276975
0.000266346
0.000257363
0.000249817
0.000243281
0.000237469
0.000232083
0.000226868
0.000221595
0.000216019
0.000209819
0.000202484
0.000192922
)
;
    }
    heatsource1
    {
        type            nutkWallFunction;
        Cmu             0.09;
        kappa           0.41;
        E               9.8;
        value           nonuniform List<scalar> 3(0.000102785 9.43868e-05 8.01969e-05);
    }
    heatsource2
    {
        type            nutkWallFunction;
        Cmu             0.09;
        kappa           0.41;
        E               9.8;
        value           nonuniform List<scalar> 4(0.000171349 0.000149071 0.000149071 0.000149951);
    }
    Table_master
    {
        type            nutkWallFunction;
        Cmu             0.09;
        kappa           0.41;
        E               9.8;
        value           nonuniform List<scalar> 9(3.27505e-05 2.04895e-05 2.20408e-05 2.62721e-05 3.05127e-05 3.49611e-05 3.98693e-05 4.56534e-05 5.3555e-05);
    }
    Table_slave
    {
        type            nutkWallFunction;
        Cmu             0.09;
        kappa           0.41;
        E               9.8;
        value           nonuniform List<scalar> 9(6.17986e-05 6.36052e-05 6.54632e-05 6.72688e-05 6.89507e-05 7.08379e-05 7.33075e-05 7.689e-05 8.25386e-05);
    }
    inlet
    {
        type            calculated;
        value           uniform 0.00840545;
    }
    outlet
    {
        type            calculated;
        value           nonuniform List<scalar> 2(0.00111976 0.00113451);
    }
}


// ************************************************************************* //
