/*--------------------------------*- C++ -*----------------------------------*\
  =========                 |
  \\      /  F ield         | OpenFOAM: The Open Source CFD Toolbox
   \\    /   O peration     | Website:  https://openfoam.org
    \\  /    A nd           | Version:  6
     \\/     M anipulation  |
\*---------------------------------------------------------------------------*/
FoamFile
{
    version     2.0;
    format      ascii;
    class       volScalarField;
    location    "200";
    object      alphat;
}
// * * * * * * * * * * * * * * * * * * * * * * * * * * * * * * * * * * * * * //

dimensions      [1 -1 -1 0 0 0 0];

internalField   nonuniform List<scalar> 
459
(
0.000859351
0.000868237
0.000722343
0.000734333
0.000756323
0.000779209
0.000802562
0.000826823
0.000852678
0.000876316
0.000896567
0.0009123
0.000923036
0.000928889
0.000924822
0.000488367
0.000537125
0.000551873
0.000460879
0.00035431
0.000301219
0.000272366
0.000265366
0.00024929
0.00025515
0.000264427
0.00027979
0.000309407
0.000358671
0.000425978
0.000502748
0.000548712
0.000545719
0.000493513
0.00158798
0.00292131
0.00175432
0.00270475
0.00298682
0.00314733
0.0032978
0.00342847
0.00352281
0.00358028
0.00357803
0.00348224
0.00323817
0.00275643
0.00195566
0.00101238
0.000703657
0.000706509
0.00135356
0.00159244
0.00169499
0.00159506
0.00125226
0.00090983
0.000508284
0.000344472
0.000317891
0.000359979
0.000453744
0.000640278
0.000934851
0.00128815
0.00184819
0.00189422
0.00186887
0.00065126
0.00223967
0.00543874
0.00213221
0.00336663
0.00443073
0.00472316
0.00487972
0.0049873
0.00504659
0.00506271
0.00500539
0.00483013
0.00447168
0.003853
0.00295873
0.00196759
0.00112123
0.00109956
0.00321041
0.00307223
0.00281116
0.00229978
0.00160094
0.00059119
0.000473728
0.000390065
0.000335076
0.000390431
0.000466301
0.000551035
0.000652261
0.000781051
0.00178297
0.0017877
0.00146665
0.000770074
0.00284331
0.0085375
0.00346653
0.00332713
0.00489059
0.00550518
0.00578263
0.00595126
0.00605084
0.00611527
0.00613837
0.00607177
0.00582945
0.00529005
0.00435544
0.00311606
0.00196686
0.00136215
0.00376467
0.00383092
0.00359114
0.00297617
0.00224734
0.00151049
0.000937269
0.000951407
0.000970972
0.000992164
0.0010142
0.00103764
0.00105882
0.00107533
0.00108808
0.00216981
0.00316496
0.00359819
0.00129251
0.00338912
0.0117928
0.00617747
0.00419091
0.00477388
0.00546782
0.00596624
0.00630877
0.00652319
0.00668821
0.0068843
0.00710159
0.00729601
0.0073993
0.00733318
0.00704992
0.00660362
0.00618239
0.00629644
0.00607877
0.0056823
0.00530904
0.00502241
0.00481789
0.00470194
0.00472579
0.004758
0.00478151
0.00479361
0.00480579
0.00483106
0.00488719
0.0049875
0.00514184
0.00518717
0.00503962
0.00420085
0.00177977
0.00160784
0.00140724
0.00388372
0.0146206
0.010233
0.00708381
0.00583145
0.00552783
0.00575617
0.00613366
0.00644138
0.00663838
0.00690417
0.00726857
0.00770616
0.00815646
0.00853091
0.00873437
0.00869937
0.00845036
0.00809646
0.00764844
0.00720338
0.00684244
0.00658405
0.00641089
0.00629458
0.00620971
0.00612716
0.00603363
0.00593128
0.00584158
0.00579551
0.00581768
0.00591432
0.00604591
0.00617269
0.00621816
0.00581949
0.00513085
0.00384524
0.00157581
0.0042755
0.0160026
0.0137064
0.0108145
0.00870071
0.00722933
0.00648405
0.00626419
0.00632657
0.0063825
0.00652769
0.00683172
0.0072955
0.00787513
0.00846704
0.00893493
0.00915155
0.00909605
0.00883574
0.00845977
0.0080609
0.00770983
0.00743804
0.00724479
0.00710843
0.00700139
0.00689273
0.00675491
0.00657666
0.00637429
0.0061866
0.0060441
0.0059608
0.00590368
0.00578794
0.00549209
0.0049103
0.00416227
0.00333549
0.0015266
0.00425791
0.0133924
0.0122892
0.0121248
0.0107956
0.00924183
0.00800357
0.00714291
0.00661375
0.00632288
0.00621402
0.00626143
0.00650197
0.00695445
0.0075686
0.00821249
0.00866331
0.00885447
0.00881803
0.0086203
0.00834176
0.00805746
0.00782239
0.00766753
0.00759868
0.00759844
0.00762
0.00760174
0.00748935
0.00725895
0.0069347
0.00648135
0.0059075
0.00526373
0.00461196
0.00401251
0.00354374
0.00310504
0.00266394
0.00175898
0.00404924
0.00461672
0.011742
0.0125883
0.0113294
0.00988832
0.00860904
0.00759103
0.00684281
0.00632255
0.00598045
0.00580192
0.00579343
0.00597026
0.00634199
0.00686089
0.00739148
0.00780025
0.00802336
0.00806567
0.00797486
0.0078168
0.00765837
0.00755982
0.00756989
0.00771816
0.00798642
0.0083133
0.00860352
0.00875292
0.00868819
0.00848854
0.00823249
0.00798693
0.00774107
0.00730004
0.00636406
0.0055145
0.00501243
0.00203702
0.0268369
0.0230206
0.0135042
0.010664
0.00910783
0.00801777
0.00720101
0.00658124
0.00611226
0.00576674
0.00553743
0.00542804
0.00546052
0.00564938
0.00596718
0.0063339
0.00665434
0.00686604
0.00695718
0.0069556
0.00690958
0.00687392
0.00690327
0.00704686
0.0073435
0.00781004
0.00840221
0.00892525
0.0091961
0.00923771
0.0091368
0.009001
0.00890507
0.00883173
0.00864027
0.00791681
0.00709103
0.00203784
0.00923982
0.0160673
0.0110132
0.00937516
0.00827012
0.00738791
0.0066493
0.00603355
0.00552542
0.0051117
0.00478459
0.00455086
0.00441191
0.00436524
0.00442167
0.0045689
0.00476797
0.0049678
0.00512868
0.00523642
0.00530143
0.00534983
0.00541478
0.00553275
0.00574722
0.00611395
0.00667099
0.00733083
0.00784835
0.00816617
0.00829463
0.0082902
0.00820826
0.00806031
0.00776038
0.00688382
0.00581714
0.00184253
0.00453977
0.00552457
0.0069313
0.00481452
0.00308347
0.00285714
0.00260536
0.00234641
0.00211884
0.00192497
0.0017607
0.00162159
0.00150415
0.00140547
0.00132378
0.00125835
0.00120743
0.00117
0.0011449
0.00113027
0.00112366
0.00112253
0.00112495
0.00113002
0.00113794
0.00115007
0.00116919
0.00119987
0.00124737
0.00131714
0.00141669
0.0015271
0.00162631
0.00169995
0.00174199
0.00174896
0.00171199
0.00166063
0.00161879
0.0014971
)
;

boundaryField
{
    floor
    {
        type            compressible::alphatWallFunction;
        Prt             0.85;
        value           nonuniform List<scalar> 
29
(
0.00013157
6.73225e-05
7.47663e-05
7.70007e-05
6.30878e-05
4.63316e-05
3.77493e-05
3.30035e-05
3.18438e-05
2.91632e-05
3.01441e-05
3.16881e-05
3.42319e-05
3.90847e-05
4.70249e-05
5.765e-05
6.95133e-05
7.6505e-05
7.60531e-05
6.81017e-05
6.81008e-05
9.18595e-05
0.000109276
0.000182734
0.000131569
6.73217e-05
0.000100031
0.000156119
0.000192255
)
;
    }
    ceiling
    {
        type            compressible::alphatWallFunction;
        Prt             0.85;
        value           nonuniform List<scalar> 
43
(
0.000592341
0.000708965
0.000872118
0.000625132
0.000414945
0.000386683
0.000354939
0.000321959
0.000292655
0.000267423
0.000245827
0.000227366
0.000211643
0.000198326
0.000187224
0.000178274
0.000171273
0.000166105
0.000162629
0.000160599
0.000159679
0.000159521
0.000159857
0.000160559
0.000161656
0.000163336
0.00016598
0.000170215
0.000176748
0.000186296
0.000199821
0.000214698
0.000227962
0.00023775
0.000243316
0.000244235
0.000239342
0.000232522
0.000226949
0.000210653
0.000533438
0.000601638
0.00113331
)
;
    }
    sWall
    {
        type            compressible::alphatWallFunction;
        Prt             0.85;
        value           uniform 0.00059113;
    }
    nWall
    {
        type            compressible::alphatWallFunction;
        Prt             0.85;
        value           nonuniform List<scalar> 6(0.000198098 0.000220788 0.000214201 0.00028169 0.000256165 0.000210267);
    }
    sideWalls
    {
        type            empty;
    }
    glass1
    {
        type            compressible::alphatWallFunction;
        Prt             0.85;
        value           nonuniform List<scalar> 9(0.000118441 0.000217137 0.000301425 0.000377371 0.000444728 0.000504892 0.000552065 0.000550158 0.000525407);
    }
    glass2
    {
        type            compressible::alphatWallFunction;
        Prt             0.85;
        value           nonuniform List<scalar> 2(0.000243161 0.000279445);
    }
    sun
    {
        type            compressible::alphatWallFunction;
        Prt             0.85;
        value           nonuniform List<scalar> 
14
(
0.000122241
0.000123492
0.000102384
0.000104138
0.000107345
0.00011067
0.000114051
0.000117552
0.000121269
0.000124655
0.000127548
0.000129789
0.000131316
0.000132148
)
;
    }
    heatsource1
    {
        type            compressible::alphatWallFunction;
        Prt             0.85;
        value           nonuniform List<scalar> 3(0.000248374 0.000225564 0.000198601);
    }
    heatsource2
    {
        type            compressible::alphatWallFunction;
        Prt             0.85;
        value           nonuniform List<scalar> 4(0.000144169 9.98597e-05 9.98586e-05 0.000159386);
    }
    Table_master
    {
        type            compressible::alphatWallFunction;
        Prt             0.85;
        value           nonuniform List<scalar> 9(8.31684e-05 6.53109e-05 5.22522e-05 4.34722e-05 5.23068e-05 6.41599e-05 7.71128e-05 9.22674e-05 0.000111142);
    }
    Table_slave
    {
        type            compressible::alphatWallFunction;
        Prt             0.85;
        value           nonuniform List<scalar> 9(0.000133556 0.00013556 0.000138327 0.000141318 0.00014442 0.000147712 0.000150677 0.000152984 0.00015476);
    }
    inlet
    {
        type            fixedValue;
        value           uniform 1.94e-05;
    }
    outlet
    {
        type            zeroGradient;
    }
}


// ************************************************************************* //
