/*--------------------------------*- C++ -*----------------------------------*\
  =========                 |
  \\      /  F ield         | OpenFOAM: The Open Source CFD Toolbox
   \\    /   O peration     | Website:  https://openfoam.org
    \\  /    A nd           | Version:  6
     \\/     M anipulation  |
\*---------------------------------------------------------------------------*/
FoamFile
{
    version     2.0;
    format      ascii;
    class       volScalarField;
    location    "260";
    object      epsilon;
}
// * * * * * * * * * * * * * * * * * * * * * * * * * * * * * * * * * * * * * //

dimensions      [0 2 -3 0 0 0 0];

internalField   nonuniform List<scalar> 
459
(
0.0003443
0.000456783
0.000493605
0.000574141
0.00065825
0.000748127
0.000851006
0.000939101
0.000993828
0.000997409
0.000940546
0.000825116
0.000660686
0.000423823
0.000221704
7.58061e-05
0.00015471
0.000146554
0.000140665
0.000132017
0.000118929
9.87286e-05
7.99447e-05
6.49372e-05
5.32769e-05
4.41862e-05
3.70915e-05
3.14328e-05
2.68009e-05
2.28717e-05
1.93604e-05
1.62329e-05
1.27117e-05
1.58036e-05
0.000824979
0.00112809
0.000424822
0.000418653
0.000446117
0.000493837
0.000566174
0.000643822
0.000702062
0.000718768
0.000685344
0.000606912
0.000501469
0.000386604
0.000273193
0.000415668
0.000161106
0.000225522
0.000413834
0.000202968
0.000146931
0.000119577
0.00010302
9.91708e-05
8.05659e-05
6.36131e-05
5.01941e-05
3.98707e-05
3.20188e-05
2.60158e-05
2.1414e-05
1.81295e-05
1.64568e-05
2.0551e-05
2.41767e-05
3.30891e-05
0.00145773
0.00260056
0.000502428
0.000397871
0.000429315
0.000500861
0.000604171
0.000710391
0.000784402
0.000806385
0.000774244
0.000693472
0.000583991
0.000473582
0.00037507
0.000333536
0.000417427
0.000315524
0.000294713
0.000208025
0.00016278
0.000133733
0.000122338
0.000262275
0.000171458
0.000117083
8.35023e-05
6.19413e-05
4.76226e-05
3.78534e-05
3.11193e-05
2.66822e-05
2.09511e-05
2.25534e-05
3.45998e-05
4.5179e-05
0.00230192
0.00523676
0.000749098
0.00040443
0.000430937
0.000534664
0.000693071
0.000829768
0.000907641
0.000923109
0.000883538
0.000789614
0.00067261
0.000557084
0.000458649
0.000389164
0.000356334
0.000681749
0.000459462
0.000310365
0.000229045
0.000179844
0.000148251
0.000138566
0.00035166
0.000260784
0.000209174
0.000176778
0.000154017
0.000135417
0.000118167
0.000102294
8.583e-05
5.14361e-05
3.66842e-05
5.92267e-05
6.50123e-05
0.00344464
0.00923063
0.00140281
0.000474163
0.000461664
0.000635428
0.000892152
0.00104067
0.00109781
0.00108903
0.00102454
0.000909854
0.000764755
0.000615979
0.000487103
0.000391284
0.000331411
0.000310868
0.000280397
0.000248394
0.000216286
0.000186429
0.000160613
0.000141391
0.00014033
0.000130796
0.000121588
0.00011324
0.000105061
9.61807e-05
8.60872e-05
7.56492e-05
6.55544e-05
5.32629e-05
4.25124e-05
5.99649e-05
6.79535e-05
9.1759e-05
8.49301e-05
7.15854e-05
0.0050229
0.0137422
0.00307417
0.000854419
0.000671535
0.00104403
0.00131418
0.00139297
0.00138605
0.00133143
0.00122708
0.00106971
0.000876438
0.000679654
0.000511015
0.000389588
0.000319227
0.000288595
0.000270934
0.000252305
0.000230394
0.00020645
0.000182852
0.000162364
0.00014931
0.000141807
0.00013694
0.000131976
0.000125493
0.000116793
0.000105565
9.15274e-05
7.75489e-05
6.50106e-05
5.43389e-05
5.62239e-05
6.63902e-05
7.35518e-05
0.000164462
0.000127694
0.00686075
0.0165761
0.00645667
0.00265317
0.00197197
0.00213335
0.00207855
0.00194701
0.00181198
0.00167358
0.00150075
0.00127609
0.00101692
0.00076264
0.000552995
0.000411329
0.000337347
0.000309551
0.000297088
0.000282975
0.000264042
0.000242374
0.000221173
0.000203602
0.000192746
0.000188098
0.000185218
0.000180307
0.000171984
0.000160775
0.000148042
0.000134526
0.000118313
0.00010485
9.55465e-05
9.12654e-05
9.41888e-05
0.000101929
0.000264903
0.000206438
0.00732437
0.0191488
0.0103979
0.00685353
0.00518835
0.00397467
0.00317972
0.00268254
0.0023664
0.00211846
0.00184903
0.00152607
0.00117859
0.000857477
0.000609734
0.000459592
0.000390853
0.000368376
0.000358377
0.000345853
0.000329685
0.000313728
0.000300917
0.000292888
0.000289739
0.000288974
0.00028559
0.000275483
0.000257933
0.00023654
0.000217882
0.000208196
0.000209405
0.000215512
0.000239039
0.000275596
0.000331703
0.000404149
0.00150991
0.000384486
0.0068192
0.0115399
0.00957398
0.00724885
0.00558359
0.00446835
0.00373266
0.00326902
0.00295621
0.00264531
0.00224529
0.00177104
0.00131576
0.000943177
0.000691978
0.000585607
0.000544758
0.000531582
0.000524796
0.000517017
0.000511593
0.000511058
0.000515514
0.000522971
0.000529952
0.00053238
0.000523647
0.000497031
0.000450378
0.000390653
0.000333314
0.000295836
0.00028962
0.000314832
0.000367601
0.000453268
0.000573056
0.000726627
0.00089724
0.000495033
0.00424929
0.00591794
0.00517357
0.00455256
0.0041797
0.0039453
0.00364588
0.00314121
0.00247375
0.00179131
0.00139051
0.0011863
0.00109303
0.00106337
0.0010659
0.00108182
0.00110138
0.00112138
0.00114106
0.00116253
0.00119043
0.00121762
0.001236
0.00124232
0.0012261
0.00117073
0.00106285
0.000907088
0.000731504
0.00058233
0.000474323
0.000416215
0.000416645
0.000474271
0.000578252
0.000706476
0.000866821
0.000906987
0.00253349
0.00398579
0.0048843
0.00524514
0.00557953
0.00578157
0.00549254
0.0047736
0.00394288
0.00327344
0.00286501
0.00266993
0.00260842
0.00262872
0.00269195
0.00277663
0.00286779
0.00295768
0.00304481
0.00312838
0.00320332
0.00326915
0.0033257
0.00337854
0.00341199
0.00338702
0.00325867
0.00300915
0.00265574
0.00222563
0.00178062
0.0013834
0.00107962
0.000888525
0.000794476
0.000780353
0.00193005
0.00137222
0.00106009
0.00134678
0.00171484
0.00191886
0.00201389
0.00238949
0.00270815
0.00289658
0.0028904
0.00273828
0.00254114
0.00232008
0.00214765
0.00203817
0.00197871
0.00195214
0.00194419
0.00194417
0.00194584
0.00194635
0.00194439
0.00193923
0.00193135
0.00192089
0.00190987
0.00188899
0.00184699
0.00177556
0.00167625
0.00155511
0.00141754
0.00127842
0.0011491
0.00103814
0.000950963
0.000887111
0.000837088
0.000789035
0.000880646
0.000798557
)
;

boundaryField
{
    floor
    {
        Cmu             0.09;
        kappa           0.41;
        E               9.8;
        type            epsilonWallFunction;
        value           nonuniform List<scalar> 
29
(
0.000221704
7.58061e-05
0.00015471
0.000146554
0.000140665
0.000132017
0.000118929
9.87286e-05
7.99447e-05
6.49372e-05
5.32769e-05
4.41862e-05
3.70915e-05
3.14328e-05
2.68009e-05
2.28717e-05
1.93604e-05
1.62329e-05
1.27117e-05
1.58036e-05
1.58036e-05
3.30891e-05
4.5179e-05
6.50123e-05
0.000221704
7.58061e-05
0.000225522
0.000315524
0.000681749
)
;
    }
    ceiling
    {
        Cmu             0.09;
        kappa           0.41;
        E               9.8;
        type            epsilonWallFunction;
        value           nonuniform List<scalar> 
43
(
0.00106009
0.00134678
0.00171484
0.00191886
0.00201389
0.00238949
0.00270815
0.00289658
0.0028904
0.00273828
0.00254114
0.00232008
0.00214765
0.00203817
0.00197871
0.00195214
0.00194419
0.00194417
0.00194584
0.00194635
0.00194439
0.00193923
0.00193135
0.00192089
0.00190987
0.00188899
0.00184699
0.00177556
0.00167625
0.00155511
0.00141754
0.00127842
0.0011491
0.00103814
0.000950963
0.000887111
0.000837088
0.000789035
0.000880646
0.000798557
0.0068192
0.0115399
0.00253349
)
;
    }
    sWall
    {
        Cmu             0.09;
        kappa           0.41;
        E               9.8;
        type            epsilonWallFunction;
        value           uniform 0.00106009;
    }
    nWall
    {
        Cmu             0.09;
        kappa           0.41;
        E               9.8;
        type            epsilonWallFunction;
        value           nonuniform List<scalar> 6(7.15854e-05 0.000127694 0.000206438 0.000906987 0.00137222 0.000798557);
    }
    sideWalls
    {
        type            empty;
    }
    glass1
    {
        Cmu             0.09;
        kappa           0.41;
        E               9.8;
        type            epsilonWallFunction;
        value           nonuniform List<scalar> 9(0.0003443 0.000824979 0.00145773 0.00230192 0.00344464 0.0050229 0.00686075 0.00732437 0.0068192);
    }
    glass2
    {
        Cmu             0.09;
        kappa           0.41;
        E               9.8;
        type            epsilonWallFunction;
        value           nonuniform List<scalar> 2(0.000384486 0.000495033);
    }
    sun
    {
        Cmu             0.09;
        kappa           0.41;
        E               9.8;
        type            epsilonWallFunction;
        value           nonuniform List<scalar> 
14
(
0.0003443
0.000456783
0.000493605
0.000574141
0.00065825
0.000748127
0.000851006
0.000939101
0.000993828
0.000997409
0.000940546
0.000825116
0.000660686
0.000423823
)
;
    }
    heatsource1
    {
        Cmu             0.09;
        kappa           0.41;
        E               9.8;
        type            epsilonWallFunction;
        value           nonuniform List<scalar> 3(9.1759e-05 8.49301e-05 7.15854e-05);
    }
    heatsource2
    {
        Cmu             0.09;
        kappa           0.41;
        E               9.8;
        type            epsilonWallFunction;
        value           nonuniform List<scalar> 4(0.000415668 0.000161106 0.000161106 0.000417427);
    }
    Table_master
    {
        Cmu             0.09;
        kappa           0.41;
        E               9.8;
        type            epsilonWallFunction;
        value           nonuniform List<scalar> 9(0.000262275 0.000171458 0.000117083 8.35023e-05 6.19413e-05 4.76226e-05 3.78534e-05 3.11193e-05 2.66822e-05);
    }
    Table_slave
    {
        Cmu             0.09;
        kappa           0.41;
        E               9.8;
        type            epsilonWallFunction;
        value           nonuniform List<scalar> 9(0.00035166 0.000260784 0.000209174 0.000176778 0.000154017 0.000135417 0.000118167 0.000102294 8.583e-05);
    }
    inlet
    {
        type            turbulentMixingLengthDissipationRateInlet;
        mixingLength    0.01;
        phi             phi;
        k               k;
        value           uniform 3.01869e-05;
    }
    outlet
    {
        type            zeroGradient;
    }
}


// ************************************************************************* //
