/*--------------------------------*- C++ -*----------------------------------*\
  =========                 |
  \\      /  F ield         | OpenFOAM: The Open Source CFD Toolbox
   \\    /   O peration     | Website:  https://openfoam.org
    \\  /    A nd           | Version:  6
     \\/     M anipulation  |
\*---------------------------------------------------------------------------*/
FoamFile
{
    version     2.0;
    format      ascii;
    class       volVectorField;
    location    "260";
    object      U;
}
// * * * * * * * * * * * * * * * * * * * * * * * * * * * * * * * * * * * * * //

dimensions      [0 1 -1 0 0 0 0];

internalField   nonuniform List<vector> 
459
(
(0.0236116 0.0750263 0)
(-0.146875 0.0233216 0)
(-0.170832 0.0150026 0)
(-0.197313 0.00879146 0)
(-0.214314 0.0019711 0)
(-0.220373 -0.00530311 0)
(-0.213564 -0.0129781 0)
(-0.194453 -0.02078 0)
(-0.164596 -0.0272977 0)
(-0.127687 -0.0312509 0)
(-0.0883946 -0.0320208 0)
(-0.051467 -0.0294931 0)
(-0.0213626 -0.0235405 0)
(-0.00112087 -0.010259 0)
(0.0601809 0.00873314 0)
(-0.11684 0.00326435 0)
(0.0366173 -0.00400252 0)
(0.019331 -0.00863872 0)
(0.0286831 -0.0111721 0)
(0.0431143 -0.0104921 0)
(0.0557217 -0.00819938 0)
(0.0639909 -0.00476362 0)
(0.0681329 -0.00274587 0)
(0.0695837 -0.00201963 0)
(0.0699459 -0.00176805 0)
(0.0699669 -0.00159048 0)
(0.0697024 -0.00136255 0)
(0.0689683 -0.000983665 0)
(0.0673712 -0.000213921 0)
(0.0640405 0.00150519 0)
(0.0572572 0.00512516 0)
(0.0477063 0.0105778 0)
(-0.0168223 0.021726 0)
(0.124934 -0.00835589 0)
(0.169608 0.153681 0)
(-0.135821 0.0621776 0)
(-0.138229 0.0468127 0)
(-0.165622 0.0339511 0)
(-0.182741 0.0190872 0)
(-0.189305 0.00217207 0)
(-0.183218 -0.0165643 0)
(-0.165478 -0.0348218 0)
(-0.138263 -0.04915 0)
(-0.105584 -0.0569843 0)
(-0.071773 -0.0576785 0)
(-0.0406066 -0.0518 0)
(-0.0149712 -0.040453 0)
(0.00425158 -0.0239252 0)
(0.0236739 -0.00160283 0)
(0.0256406 0.011491 0)
(0.0187994 0.0214393 0)
(-0.143056 0.000867005 0)
(0.0349953 -0.0232319 0)
(0.0317206 -0.023474 0)
(0.0418723 -0.0228007 0)
(0.0535995 -0.0196346 0)
(0.062995 -0.0145798 0)
(0.0678013 -0.00601528 0)
(0.0688958 -0.00085314 0)
(0.0688131 0.00114693 0)
(0.0689187 0.00192439 0)
(0.0692025 0.00242242 0)
(0.0693985 0.00289655 0)
(0.0694228 0.00360006 0)
(0.0692225 0.00503605 0)
(0.0681932 0.0083797 0)
(0.0635899 0.0169739 0)
(0.0565096 0.0264852 0)
(-0.00217918 0.0382676 0)
(0.171661 0.0214131 0)
(0.304182 0.22992 0)
(-0.147467 0.0980262 0)
(-0.105006 0.0752962 0)
(-0.131654 0.0530149 0)
(-0.147441 0.0285395 0)
(-0.15357 0.000862182 0)
(-0.146461 -0.0292794 0)
(-0.128338 -0.0577847 0)
(-0.102536 -0.0787508 0)
(-0.0735806 -0.0886869 0)
(-0.045228 -0.0876389 0)
(-0.0199582 -0.0771129 0)
(0.000609914 -0.0593197 0)
(0.0155957 -0.0365784 0)
(0.0266292 -0.011515 0)
(0.0315918 0.0114892 0)
(0.0280219 0.0415939 0)
(-0.0680308 -0.0198202 0)
(0.0390763 -0.0368567 0)
(0.0517611 -0.0383145 0)
(0.0572009 -0.0340588 0)
(0.0634948 -0.0285215 0)
(0.069186 -0.0238731 0)
(0.0712961 -0.017814 0)
(0.0663225 -0.0115463 0)
(0.0623224 -0.00827194 0)
(0.0609508 -0.00649597 0)
(0.0608237 -0.0053598 0)
(0.0611258 -0.0044826 0)
(0.0619099 -0.00357102 0)
(0.0639307 -0.00211331 0)
(0.0689572 0.00237579 0)
(0.0699408 0.0223545 0)
(0.0659151 0.0381598 0)
(0.00865361 0.0546133 0)
(0.199464 0.052926 0)
(0.427055 0.291383 0)
(-0.174373 0.129407 0)
(-0.0697794 0.100009 0)
(-0.0949021 0.0699695 0)
(-0.107164 0.0379359 0)
(-0.110563 2.7031e-05 0)
(-0.0990307 -0.0422711 0)
(-0.0792811 -0.0804828 0)
(-0.0554571 -0.106356 0)
(-0.0317556 -0.116604 0)
(-0.0104963 -0.11301 0)
(0.00804302 -0.0976286 0)
(0.0221673 -0.0755644 0)
(0.0336168 -0.0494019 0)
(0.0440551 -0.0215243 0)
(0.0555885 0.0052883 0)
(0.0709083 0.0290679 0)
(0.0983212 -0.0397066 0)
(0.0968007 -0.0354529 0)
(0.088768 -0.0394944 0)
(0.0781954 -0.0394417 0)
(0.0711286 -0.0350095 0)
(0.0674015 -0.0292404 0)
(0.0644734 -0.0225564 0)
(0.0653416 -0.0136237 0)
(0.0726656 -0.00947731 0)
(0.0788271 -0.00728665 0)
(0.0828881 -0.00601549 0)
(0.0858961 -0.00502657 0)
(0.0880936 -0.00393192 0)
(0.0887185 -0.0023203 0)
(0.0860011 0.0004047 0)
(0.0776652 0.00484042 0)
(0.0696386 0.0262804 0)
(0.0716846 0.0457186 0)
(0.0242659 0.06674 0)
(0.21492 0.101993 0)
(0.535105 0.33889 0)
(-0.209054 0.154402 0)
(-0.0343865 0.114695 0)
(-0.0553186 0.0801262 0)
(-0.0615241 0.0435758 0)
(-0.0564096 -0.00308317 0)
(-0.037646 -0.0577031 0)
(-0.0171732 -0.102282 0)
(0.00203857 -0.129042 0)
(0.0176067 -0.136311 0)
(0.0294047 -0.128761 0)
(0.0383064 -0.110694 0)
(0.0450425 -0.0861834 0)
(0.0507918 -0.0587915 0)
(0.0572592 -0.0315845 0)
(0.0667628 -0.00831336 0)
(0.0804885 0.0052825 0)
(0.0912772 -0.00657969 0)
(0.0900624 -0.0171498 0)
(0.0806094 -0.0253545 0)
(0.070999 -0.0284429 0)
(0.0632287 -0.0273132 0)
(0.0574111 -0.0238506 0)
(0.0533639 -0.0184906 0)
(0.0526516 -0.0106289 0)
(0.055237 -0.00638289 0)
(0.0582758 -0.00481115 0)
(0.0610765 -0.00417048 0)
(0.0638827 -0.00343494 0)
(0.0666378 -0.00189753 0)
(0.0690555 0.00123214 0)
(0.0703328 0.00654951 0)
(0.0698979 0.0148198 0)
(0.0697399 0.0293986 0)
(0.0783733 0.0454839 0)
(0.0631166 0.0602617 0)
(0.149209 0.09885 0)
(0.138127 0.0806296 0)
(0.114026 0.0608948 0)
(-0.109443 0.064356 0)
(0.615658 0.37812 0)
(-0.244503 0.170436 0)
(-0.00665778 0.112222 0)
(-0.0138473 0.0812574 0)
(-0.0113968 0.0436532 0)
(0.0129168 -0.0176094 0)
(0.0372104 -0.0784566 0)
(0.0542554 -0.120466 0)
(0.0647087 -0.141968 0)
(0.0694861 -0.145234 0)
(0.0701059 -0.134396 0)
(0.0680319 -0.113921 0)
(0.064764 -0.0882536 0)
(0.0618446 -0.0611876 0)
(0.0607822 -0.0359251 0)
(0.0629125 -0.015853 0)
(0.068145 -0.00513776 0)
(0.0710255 -0.00793226 0)
(0.0676036 -0.0148326 0)
(0.060018 -0.0195577 0)
(0.0517701 -0.0213751 0)
(0.0442683 -0.0208341 0)
(0.038091 -0.0186694 0)
(0.0337133 -0.0151833 0)
(0.0319242 -0.0108722 0)
(0.0326569 -0.00852043 0)
(0.0346206 -0.00785278 0)
(0.0371711 -0.00771705 0)
(0.0401698 -0.00728131 0)
(0.0435547 -0.00587311 0)
(0.0472718 -0.00261422 0)
(0.0517631 0.00348878 0)
(0.055859 0.0125254 0)
(0.060567 0.0245305 0)
(0.0698358 0.0367603 0)
(0.0692871 0.0421784 0)
(0.0959643 0.0607729 0)
(0.0938521 0.0518581 0)
(0.103761 0.0531684 0)
(-0.122947 0.0938852 0)
(0.666091 0.413175 0)
(-0.263297 0.156966 0)
(0.0187824 0.0693808 0)
(0.0398158 0.0572902 0)
(0.0574272 0.0222924 0)
(0.0971615 -0.0451732 0)
(0.120487 -0.0991245 0)
(0.130097 -0.131936 0)
(0.128909 -0.145172 0)
(0.119907 -0.14228 0)
(0.106224 -0.127481 0)
(0.0905518 -0.105146 0)
(0.0751584 -0.0795544 0)
(0.0619489 -0.054187 0)
(0.0522116 -0.0317927 0)
(0.0466254 -0.0149907 0)
(0.0445422 -0.00595203 0)
(0.0426476 -0.00562924 0)
(0.0383386 -0.00915643 0)
(0.0319686 -0.0123183 0)
(0.0249122 -0.0140134 0)
(0.0181563 -0.0142948 0)
(0.0123801 -0.0135276 0)
(0.00820579 -0.012057 0)
(0.00621816 -0.0104482 0)
(0.00631624 -0.00990209 0)
(0.00769699 -0.0102619 0)
(0.00980209 -0.0107948 0)
(0.0124166 -0.0108956 0)
(0.015541 -0.0100683 0)
(0.0193993 -0.0076557 0)
(0.0246497 -0.00257783 0)
(0.0323971 0.00606151 0)
(0.0404319 0.0165508 0)
(0.0500848 0.0267657 0)
(0.0549529 0.0327276 0)
(0.0668113 0.0465668 0)
(0.0714661 0.0559349 0)
(0.111772 0.07603 0)
(-0.107208 0.14764 0)
(0.76317 0.413353 0)
(-0.061833 0.129418 0)
(0.093715 -0.0115985 0)
(0.151984 -0.0424967 0)
(0.189554 -0.0664871 0)
(0.212326 -0.095114 0)
(0.218155 -0.118884 0)
(0.208383 -0.131488 0)
(0.186631 -0.13202 0)
(0.157689 -0.122054 0)
(0.126181 -0.104336 0)
(0.0954145 -0.0820454 0)
(0.0678383 -0.058748 0)
(0.0453868 -0.0372493 0)
(0.0288738 -0.019561 0)
(0.0184317 -0.00747047 0)
(0.0126797 -0.00155443 0)
(0.00899704 -0.00125239 0)
(0.004908 -0.0035241 0)
(-0.000394556 -0.0058914 0)
(-0.00627019 -0.00749506 0)
(-0.0119355 -0.00837218 0)
(-0.0168022 -0.00884698 0)
(-0.0203433 -0.00919511 0)
(-0.0222781 -0.00970609 0)
(-0.0228195 -0.0107137 0)
(-0.0224724 -0.0120366 0)
(-0.0216165 -0.0132515 0)
(-0.0204725 -0.0139881 0)
(-0.0191298 -0.0140194 0)
(-0.0174214 -0.0131699 0)
(-0.0147194 -0.0110612 0)
(-0.00930025 -0.00673942 0)
(0.00220064 0.000678716 0)
(0.0120317 0.00813138 0)
(0.0182631 0.0123828 0)
(0.0270529 0.0203571 0)
(0.0346783 0.0276552 0)
(0.109105 0.082289 0)
(-0.362253 0.212406 0)
(0.897033 0.404275 0)
(0.427302 0.279728 0)
(0.431403 0.175168 0)
(0.448083 0.101325 0)
(0.422223 0.0440896 0)
(0.37136 -0.0109554 0)
(0.31841 -0.0530695 0)
(0.264926 -0.0764758 0)
(0.21016 -0.0827087 0)
(0.157007 -0.0764601 0)
(0.108894 -0.0625974 0)
(0.0672023 -0.044975 0)
(0.0331644 -0.02754 0)
(0.00781137 -0.0126587 0)
(-0.00958712 -0.00158268 0)
(-0.0190977 0.00389583 0)
(-0.0240194 0.00550326 0)
(-0.0270727 0.00464901 0)
(-0.0301547 0.00288066 0)
(-0.0337899 0.00116437 0)
(-0.0379192 -0.000243474 0)
(-0.0420691 -0.00146915 0)
(-0.0457846 -0.00269809 0)
(-0.0487938 -0.00400282 0)
(-0.0510958 -0.00542846 0)
(-0.052915 -0.00704479 0)
(-0.0544886 -0.00871498 0)
(-0.0560015 -0.0101806 0)
(-0.0577114 -0.0112023 0)
(-0.0600926 -0.0116157 0)
(-0.0638411 -0.0111197 0)
(-0.0697488 -0.00882273 0)
(-0.0786476 -0.00279828 0)
(-0.0899025 0.00817358 0)
(-0.103594 0.0238634 0)
(-0.126434 0.0456647 0)
(-0.157683 0.0754065 0)
(-0.198341 0.109869 0)
(-0.265581 0.141111 0)
(-0.523683 0.156904 0)
(-0.212919 0.0486032 0)
(0.100053 0.0152531 0)
(0.168154 -0.0363275 0)
(0.157365 -0.0555005 0)
(0.143088 -0.0578673 0)
(0.121123 -0.0535556 0)
(0.0896871 -0.0452158 0)
(0.0546171 -0.0342562 0)
(0.0213439 -0.0214609 0)
(-0.00894287 -0.00733302 0)
(-0.0308042 0.0024285 0)
(-0.0447087 0.0085005 0)
(-0.0522965 0.0118047 0)
(-0.0556813 0.0129135 0)
(-0.0573995 0.0128315 0)
(-0.0587047 0.0120676 0)
(-0.0602859 0.011128 0)
(-0.0622426 0.0102962 0)
(-0.0644005 0.00955612 0)
(-0.066681 0.0087521 0)
(-0.0691724 0.00762826 0)
(-0.0719308 0.00645644 0)
(-0.0750827 0.00559776 0)
(-0.0787766 0.00516475 0)
(-0.0830445 0.00545743 0)
(-0.0877904 0.00696174 0)
(-0.0928529 0.0102062 0)
(-0.0981164 0.0153634 0)
(-0.103642 0.0218251 0)
(-0.109714 0.0277507 0)
(-0.115736 0.0332705 0)
(-0.121047 0.0404284 0)
(-0.125489 0.0516469 0)
(-0.12858 0.0688652 0)
(-0.12787 0.0916728 0)
(-0.120671 0.107576 0)
(-0.110275 0.0745631 0)
(-0.151994 -0.167997 0)
(-0.142527 0.104348 0)
(0.0935713 0.00376295 0)
(0.0801528 -0.064744 0)
(0.0509185 -0.0754829 0)
(0.0262537 -0.0714792 0)
(0.00266586 -0.0672082 0)
(-0.0214038 -0.0648569 0)
(-0.0428166 -0.0634527 0)
(-0.0602109 -0.0618008 0)
(-0.0714203 -0.0624099 0)
(-0.0770439 -0.0646177 0)
(-0.0798954 -0.0676067 0)
(-0.080763 -0.0707199 0)
(-0.080467 -0.0737604 0)
(-0.0797734 -0.076594 0)
(-0.079137 -0.0793858 0)
(-0.0788171 -0.0821687 0)
(-0.0788735 -0.0849192 0)
(-0.0792903 -0.0876407 0)
(-0.0800804 -0.0903123 0)
(-0.0813512 -0.092791 0)
(-0.0832586 -0.0952375 0)
(-0.0858642 -0.0977213 0)
(-0.0892577 -0.100972 0)
(-0.0936388 -0.105399 0)
(-0.0990903 -0.110816 0)
(-0.105334 -0.116238 0)
(-0.111666 -0.120414 0)
(-0.117173 -0.121983 0)
(-0.12113 -0.118141 0)
(-0.122879 -0.107514 0)
(-0.120859 -0.0896582 0)
(-0.112434 -0.0646726 0)
(-0.0945465 -0.0343035 0)
(-0.0658396 -0.00385334 0)
(-0.0299328 0.0103049 0)
(0.0745734 -0.0983415 0)
(-0.104296 -0.165874 0)
(0.287292 -0.150334 0)
(-0.24673 -0.0570056 0)
(-0.159847 0.191921 0)
(-0.071069 0.212815 0)
(-0.086669 0.233978 0)
(-0.0943971 0.229611 0)
(-0.106938 0.228259 0)
(-0.117516 0.229373 0)
(-0.124904 0.233697 0)
(-0.128077 0.240003 0)
(-0.127094 0.246933 0)
(-0.123567 0.256497 0)
(-0.118539 0.265749 0)
(-0.113241 0.273796 0)
(-0.108289 0.280253 0)
(-0.104059 0.285245 0)
(-0.100695 0.289115 0)
(-0.0982166 0.292317 0)
(-0.0966106 0.29511 0)
(-0.0958316 0.297619 0)
(-0.0958442 0.299919 0)
(-0.096633 0.302017 0)
(-0.0981419 0.303813 0)
(-0.100289 0.305527 0)
(-0.102937 0.307292 0)
(-0.105937 0.310431 0)
(-0.109102 0.315799 0)
(-0.112189 0.323408 0)
(-0.114863 0.332145 0)
(-0.116732 0.340727 0)
(-0.11735 0.348121 0)
(-0.115906 0.351971 0)
(-0.111088 0.351574 0)
(-0.101081 0.347407 0)
(-0.0840552 0.340957 0)
(-0.0599152 0.33568 0)
(-0.0314009 0.337206 0)
(0.00970583 0.348099 0)
(0.117048 0.423277 0)
(-0.273139 0.44523 0)
)
;

boundaryField
{
    floor
    {
        type            noSlip;
    }
    ceiling
    {
        type            noSlip;
    }
    sWall
    {
        type            noSlip;
    }
    nWall
    {
        type            noSlip;
    }
    sideWalls
    {
        type            empty;
    }
    glass1
    {
        type            noSlip;
    }
    glass2
    {
        type            noSlip;
    }
    sun
    {
        type            noSlip;
    }
    heatsource1
    {
        type            noSlip;
    }
    heatsource2
    {
        type            noSlip;
    }
    Table_master
    {
        type            noSlip;
    }
    Table_slave
    {
        type            noSlip;
    }
    inlet
    {
        type            fixedValue;
        value           uniform (0.2 0 0);
    }
    outlet
    {
        type            zeroGradient;
    }
}


// ************************************************************************* //
