// -*- C++ -*-
// File generated by PyFoam - sorry for the ugliness

FoamFile
{
 version 2.0;
 format ascii;
 class volScalarField;
 location "500";
 object T;
}

dimensions [ 0 0 0 1 0 0 0 ];

internalField nonuniform List<scalar> 459
(
  303.556
  303.297
  303.284
  303.28
  303.277
  303.273
  303.268
  303.263
  303.255
  303.244
  303.232
  303.22
  303.212
  303.207
  303.207
  303.292
  303.272
  303.264
  303.266
  303.27
  303.273
  303.276
  303.28
  303.283
  303.287
  303.29
  303.293
  303.297
  303.3
  303.303
  303.306
  303.31
  303.315
  303.333
  303.731
  303.339
  303.316
  303.319
  303.322
  303.323
  303.321
  303.316
  303.302
  303.28
  303.254
  303.229
  303.21
  303.198
  303.192
  303.188
  303.185
  303.292
  303.257
  303.252
  303.254
  303.257
  303.261
  303.263
  303.264
  303.265
  303.266
  303.267
  303.268
  303.269
  303.27
  303.272
  303.275
  303.281
  303.289
  303.317
  303.913
  303.39
  303.352
  303.362
  303.376
  303.387
  303.392
  303.388
  303.367
  303.33
  303.286
  303.244
  303.213
  303.195
  303.188
  303.187
  303.188
  303.238
  303.237
  303.243
  303.253
  303.262
  303.268
  303.268
  303.267
  303.267
  303.267
  303.267
  303.267
  303.267
  303.267
  303.267
  303.269
  303.273
  303.28
  303.31
  304.097
  303.453
  303.387
  303.403
  303.431
  303.458
  303.478
  303.478
  303.446
  303.387
  303.318
  303.257
  303.214
  303.19
  303.184
  303.186
  303.191
  303.202
  303.214
  303.232
  303.25
  303.267
  303.281
  303.292
  303.301
  303.309
  303.316
  303.323
  303.328
  303.332
  303.336
  303.338
  303.339
  303.316
  303.296
  303.287
  303.31
  304.276
  303.532
  303.429
  303.44
  303.477
  303.522
  303.562
  303.564
  303.517
  303.431
  303.337
  303.26
  303.208
  303.182
  303.177
  303.184
  303.197
  303.214
  303.234
  303.256
  303.278
  303.299
  303.316
  303.33
  303.342
  303.352
  303.361
  303.367
  303.372
  303.373
  303.372
  303.369
  303.362
  303.344
  303.319
  303.299
  303.307
  303.377
  303.423
  303.429
  304.437
  303.634
  303.501
  303.489
  303.525
  303.58
  303.634
  303.621
  303.548
  303.442
  303.333
  303.245
  303.189
  303.166
  303.168
  303.185
  303.209
  303.236
  303.264
  303.293
  303.318
  303.34
  303.358
  303.372
  303.383
  303.392
  303.4
  303.405
  303.407
  303.406
  303.401
  303.393
  303.383
  303.365
  303.341
  303.316
  303.311
  303.34
  303.356
  303.391
  304.585
  303.797
  303.664
  303.633
  303.648
  303.694
  303.706
  303.646
  303.533
  303.4
  303.279
  303.192
  303.147
  303.14
  303.159
  303.195
  303.235
  303.274
  303.31
  303.341
  303.367
  303.387
  303.402
  303.414
  303.423
  303.429
  303.434
  303.437
  303.437
  303.433
  303.425
  303.414
  303.401
  303.383
  303.361
  303.337
  303.325
  303.333
  303.342
  303.371
  304.799
  304.21
  304.064
  303.975
  303.93
  303.88
  303.766
  303.6
  303.419
  303.261
  303.149
  303.092
  303.085
  303.115
  303.166
  303.226
  303.283
  303.33
  303.369
  303.396
  303.416
  303.431
  303.442
  303.45
  303.456
  303.46
  303.462
  303.462
  303.46
  303.455
  303.448
  303.436
  303.423
  303.407
  303.39
  303.373
  303.366
  303.378
  303.396
  303.519
  305.106
  304.829
  304.572
  304.337
  304.116
  303.843
  303.524
  303.242
  303.044
  302.942
  302.921
  302.961
  303.039
  303.128
  303.216
  303.301
  303.359
  303.397
  303.424
  303.443
  303.457
  303.468
  303.475
  303.48
  303.482
  303.484
  303.484
  303.482
  303.48
  303.477
  303.475
  303.475
  303.477
  303.483
  303.497
  303.519
  303.55
  303.582
  303.603
  303.655
  296.399
  298.342
  299.559
  300.333
  301.003
  301.582
  302.06
  302.438
  302.726
  302.953
  303.145
  303.264
  303.341
  303.395
  303.43
  303.454
  303.47
  303.482
  303.49
  303.496
  303.5
  303.502
  303.504
  303.505
  303.505
  303.506
  303.506
  303.507
  303.509
  303.511
  303.515
  303.523
  303.536
  303.554
  303.577
  303.6
  303.618
  303.638
  297.058
  298.912
  300.327
  301.254
  301.844
  302.285
  302.626
  302.884
  303.074
  303.21
  303.311
  303.38
  303.426
  303.456
  303.477
  303.491
  303.5
  303.507
  303.512
  303.515
  303.517
  303.519
  303.521
  303.522
  303.523
  303.525
  303.526
  303.527
  303.528
  303.53
  303.534
  303.54
  303.548
  303.561
  303.576
  303.594
  303.592
  303.621
  299.707
  299.63
  299.625
  301.44
  302.248
  302.639
  302.869
  303.038
  303.168
  303.266
  303.34
  303.395
  303.434
  303.461
  303.479
  303.49
  303.498
  303.503
  303.507
  303.51
  303.512
  303.514
  303.517
  303.519
  303.521
  303.523
  303.525
  303.527
  303.529
  303.531
  303.533
  303.536
  303.539
  303.542
  303.547
  303.557
  303.566
  303.572
  303.573
  303.612
)
;

boundaryField
{
  floor
  {
    type wallHeatTransfer;
    Tinf uniform 305.2;
    alphaWall uniform 0.24;
    value nonuniform List<scalar> 29
(
  303.4
  303.655
  303.592
  303.561
  303.565
  303.575
  303.589
  303.606
  303.624
  303.641
  303.659
  303.676
  303.692
  303.708
  303.723
  303.738
  303.753
  303.77
  303.784
  303.823
  303.823
  303.737
  303.694
  303.669
  303.4
  303.655
  303.636
  303.453
  303.369
)
;
  }
  ceiling
  {
    type wallHeatTransfer;
    Tinf uniform 303.2;
    alphaWall uniform 0.24;
    value nonuniform List<scalar> 43
(
  299.954
  299.871
  299.859
  301.549
  302.309
  302.676
  302.891
  303.049
  303.17
  303.261
  303.328
  303.376
  303.41
  303.431
  303.444
  303.451
  303.456
  303.459
  303.461
  303.462
  303.464
  303.465
  303.467
  303.469
  303.471
  303.474
  303.477
  303.48
  303.483
  303.486
  303.49
  303.494
  303.498
  303.503
  303.51
  303.52
  303.529
  303.533
  303.533
  303.565
  305.018
  304.764
  297.452
)
;
  }
  sWall
  {
    type wallHeatTransfer;
    Tinf uniform 315.2;
    alphaWall uniform 0.36;
    value uniform 301.302;
  }
  nWall
  {
    type wallHeatTransfer;
    Tinf uniform 307.2;
    alphaWall uniform 0.36;
    value nonuniform List<scalar> 6
(
  304.136
  304.085
  304.009
  304.154
  304.131
  304.194
)
;
  }
  sideWalls
  {
    type empty;
  }
  glass1
  {
    type wallHeatTransfer;
    Tinf uniform 315.2;
    alphaWall uniform 4.3;
    value nonuniform List<scalar> 9
(
  311.527
  310.894
  310.494
  310.19
  309.936
  309.706
  309.535
  309.607
  309.832
)
;
  }
  glass2
  {
    type wallHeatTransfer;
    Tinf uniform 307.2;
    alphaWall uniform 4.3;
    value nonuniform List<scalar> 2
(
  305.808
  305.903
)
;
  }
  sun
  {
    type wallHeatTransfer;
    Tinf uniform 305.2;
    alphaWall uniform 0.24;
    value nonuniform List<scalar> 14
(
  303.73
  303.485
  303.471
  303.461
  303.452
  303.444
  303.435
  303.426
  303.415
  303.404
  303.394
  303.386
  303.384
  303.389
)
;
  }
  heatsource1
  {
    type fixedGradient;
    gradient uniform 0;
  }
  heatsource2
  {
    type fixedGradient;
    gradient uniform 0;
  }
  Table_master
  {
    type zeroGradient;
  }
  Table_slave
  {
    type zeroGradient;
  }
  inlet
  {
    type fixedValue;
    value uniform 293.15;
  }
  outlet
  {
    type zeroGradient;
  }
} 	// ************************************************************************* //

