/*--------------------------------*- C++ -*----------------------------------*\
  =========                 |
  \\      /  F ield         | OpenFOAM: The Open Source CFD Toolbox
   \\    /   O peration     | Website:  https://openfoam.org
    \\  /    A nd           | Version:  6
     \\/     M anipulation  |
\*---------------------------------------------------------------------------*/
FoamFile
{
    version     2.0;
    format      ascii;
    class       surfaceScalarField;
    location    "500";
    object      phi;
}
// * * * * * * * * * * * * * * * * * * * * * * * * * * * * * * * * * * * * * //

dimensions      [1 0 -1 0 0 0 0];

internalField   nonuniform List<scalar> 
852
(
-0.00293298
0.00298917
-0.00396789
0.00103491
-0.0047561
0.000788208
-0.00537491
0.000618811
-0.00579557
0.000420653
-0.005996
0.000200433
-0.00595466
-4.13431e-05
-0.00565318
-0.000301487
-0.00510117
-0.000552007
-0.00434728
-0.000753892
-0.00346955
-0.00087774
-0.00255551
-0.000914037
-0.00167897
-0.000876547
-0.000859701
-0.000819267
-0.000858283
-0.000664704
0.000667363
-0.000323963
-0.000340742
0.00028674
-0.000610705
0.000757345
-0.000470607
0.00106728
-0.000309937
0.0012584
-0.000191116
0.00136173
-0.000103333
0.00141319
-5.14657e-05
0.00144225
-2.90621e-05
0.00145992
-1.7664e-05
0.00146962
-9.69971e-06
0.00147239
-2.77718e-06
0.00146621
6.18215e-06
0.00144253
2.36767e-05
0.00137869
6.38354e-05
0.0012366
0.000142089
0.00100118
0.000235426
0.000706126
0.00029505
0.000709705
-0.00209139
0.00523186
-0.00309308
0.00203659
-0.00389756
0.00159268
-0.00450235
0.0012236
-0.00491239
0.000830691
-0.00511485
0.000402887
-0.00508481
-7.13837e-05
-0.00480644
-0.000579857
-0.00429997
-0.00105848
-0.00362385
-0.00143002
-0.00285848
-0.00164311
-0.00208444
-0.00168808
-0.00137456
-0.00158643
-0.000820106
-0.00137372
-0.000618004
-0.00106039
-9.81162e-05
-0.000519941
-9.81695e-05
0.000394759
0.000280155
0.000821043
-0.000767028
0.00106801
-0.000857671
0.00127518
-0.000677781
0.00142778
-0.000462542
0.00151554
-0.00027887
0.00152863
-0.000116433
0.00153226
-5.50934e-05
0.00153662
-3.34255e-05
0.00154027
-2.13092e-05
0.0015427
-1.21368e-05
0.00154387
-3.94383e-06
0.00154286
7.18805e-06
0.00153606
3.04779e-05
0.00149452
0.000105377
0.00131858
0.000318025
0.00101427
0.000539733
0.000629601
0.00067972
0.00134853
-0.00146341
0.00692662
-0.00232377
0.00289695
-0.00303045
0.00229937
-0.00354148
0.00173463
-0.00389381
0.00118301
-0.00407064
0.000579718
-0.00402823
-0.000113799
-0.00374163
-0.000866455
-0.00325147
-0.00154865
-0.00263135
-0.00205014
-0.00196219
-0.00231228
-0.00130962
-0.00234065
-0.000725544
-0.00217051
-0.000264777
-0.00183449
4.27796e-05
-0.00136795
0.000253663
-0.000730826
0.000155492
0.00148494
-0.00119689
0.00169851
-0.000980601
0.00167974
-0.000838902
0.00168151
-0.000679551
0.0017029
-0.000483928
0.00171057
-0.000286545
0.00159429
0.00153935
0.00150607
0.00148492
0.00147293
0.00146914
0.00147648
0.00150711
0.00161264
0.0013321
0.000598566
0.000990087
0.000881742
0.000553053
0.00111675
0.00191565
-0.00102224
0.00824837
-0.00170236
0.00357706
-0.00216165
0.00275866
-0.00248802
0.002061
-0.00271342
0.0014084
-0.00280804
0.000674343
-0.00269852
-0.000223322
-0.0023659
-0.00119908
-0.00188883
-0.00202571
-0.00135068
-0.0025883
-0.000819181
-0.00284378
-0.000332554
-0.00282728
9.05666e-05
-0.00259363
0.000443912
-0.00218784
0.000752831
-0.00167687
0.00112551
-0.00110351
0.00187756
-0.000596563
0.0024355
-0.000550747
0.00202815
-0.000789547
0.00190342
-0.000855873
0.00179691
-0.000732389
0.00170689
-0.000589537
0.00165972
-0.000436758
0.00164514
-0.00027196
0.00175679
-0.000111802
0.00182844
-7.18088e-05
0.00188675
-5.84634e-05
0.00193181
-4.52117e-05
0.00194976
-1.81053e-05
0.0019197
2.99065e-05
0.0018171
0.000102445
0.00160981
0.000207142
0.00124387
0.000365781
0.0011162
0.000726243
0.000831956
0.00116598
0.000395931
0.00155278
0.00233005
-0.000717165
0.00932288
-0.001233
0.0040929
-0.00131843
0.00284409
-0.0013694
0.00211196
-0.00139201
0.00143102
-0.00131264
0.000594966
-0.00104729
-0.000488669
-0.000647393
-0.00159898
-0.000217522
-0.00245559
0.000173861
-0.00297969
0.000497042
-0.00316697
0.000747636
-0.00307788
0.00093684
-0.00278284
0.0010933
-0.0023443
0.00124717
-0.00183073
0.00145112
-0.00130747
0.00173398
-0.000879418
0.00187709
-0.000693864
0.00177977
-0.000692221
0.00160641
-0.00068252
0.00146224
-0.00058822
0.00134586
-0.000473154
0.00126782
-0.000358717
0.00124084
-0.000244981
0.00128399
-0.000154959
0.00133265
-0.00012047
0.00138604
-0.000111847
0.0014406
-9.97758e-05
0.0014858
-6.33014e-05
0.00150225
1.34545e-05
0.0014697
0.000134996
0.00137637
0.000300473
0.00122272
0.000519427
0.0010896
0.000859364
0.000947176
0.00130841
0.000631155
0.0018688
0.000561486
0.00239972
-0.000968461
0.00152974
-0.00143209
0.000463425
-0.0013852
-0.000626541
0.0103556
-0.000980728
0.00444708
-0.000554341
0.0024177
-0.000190462
0.00174808
8.8278e-05
0.00115228
0.000462576
0.000220667
0.000948798
-0.000974893
0.00136981
-0.00202
0.00166204
-0.00274782
0.00181713
-0.00313478
0.00186141
-0.00321124
0.00182366
-0.00304013
0.00173305
-0.00269223
0.00162558
-0.00223684
0.00153441
-0.00173956
0.00148615
-0.00125921
0.00147539
-0.000868652
0.00142046
-0.000638938
0.001276
-0.000547765
0.001086
-0.000492524
0.000920273
-0.000422489
0.000795551
-0.000348433
0.000717379
-0.000280546
0.000692644
-0.000220246
0.000717376
-0.00017969
0.000767235
-0.000170329
0.000831687
-0.000176299
0.00090617
-0.000174258
0.000985129
-0.00014226
0.00105667
-5.8083e-05
0.00110339
8.82766e-05
0.00112137
0.000282487
0.00111856
0.000522241
0.00114267
0.000835251
0.00124144
0.00120964
0.00142787
0.00168237
0.00186965
0.00195794
0.00212877
0.00127063
0.00173846
0.000853729
0.000409738
-0.000682732
0.0114886
-0.00056391
0.00432826
0.000567301
0.00128648
0.00135406
0.000961319
0.00201979
0.000486544
0.0027068
-0.000466342
0.00325876
-0.00152686
0.00355859
-0.00231984
0.00360687
-0.0027961
0.0034471
-0.00297501
0.00313966
-0.00290381
0.00274544
-0.00264591
0.00231768
-0.00226447
0.00190312
-0.00182228
0.00153755
-0.001374
0.00123837
-0.000960029
0.00100453
-0.000634816
0.000802323
-0.000436728
0.000599641
-0.000345083
0.00040824
-0.000301124
0.000253445
-0.000267694
0.000144619
-0.000239608
8.21545e-05
-0.000218081
6.56253e-05
-0.000203717
8.77222e-05
-0.000201787
0.000133359
-0.000215965
0.000193349
-0.000236289
0.000266805
-0.000247714
0.000357892
-0.000233346
0.000471451
-0.000171641
0.000595004
-3.52748e-05
0.000718396
0.000159095
0.000852921
0.000387717
0.00103664
0.000651531
0.00131807
0.000928209
0.00175823
0.00124221
0.00242383
0.00129234
0.00296348
0.000730984
0.00298737
0.00082984
0.00345833
0.00258796
0.00940442
0.00328913
0.00362709
0.00368405
0.000891562
0.00435042
0.000294948
0.00514534
-0.00030838
0.00578442
-0.00110543
0.00602472
-0.00176716
0.0058872
-0.00218232
0.00544522
-0.00235413
0.00478917
-0.00231897
0.00401339
-0.00212804
0.00320213
-0.00183466
0.0024178
-0.00148013
0.00170949
-0.00111398
0.00111037
-0.000774884
0.000628534
-0.00047819
0.0002694
-0.000275683
7.0404e-06
-0.000174369
-0.00019381
-0.000144233
-0.000349737
-0.000145197
-0.000466051
-0.000151379
-0.000545992
-0.000159667
-0.000593817
-0.000170256
-0.000613566
-0.000183968
-0.000612219
-0.000203132
-0.000599812
-0.000228372
-0.000581993
-0.000254107
-0.000557742
-0.000271964
-0.000518702
-0.000272385
-0.000446181
-0.000244162
-0.000311386
-0.000170069
-0.000131145
-2.1145e-05
8.03316e-05
0.000176241
0.000348061
0.000383803
0.00068449
0.00059178
0.00113113
0.000795572
0.00162648
0.000796983
0.00184102
0.000516446
0.00109891
0.00157195
0.00480607
0.00995687
0.0135758
0.0124418
0.00202559
0.01173
0.00100677
0.0110813
0.00034031
0.0102195
-0.000243693
0.00909199
-0.00063964
0.00780138
-0.000891723
0.00644136
-0.000994116
0.00508492
-0.000962526
0.00379841
-0.000841532
0.00263505
-0.000671305
0.00161698
-0.000462061
0.000768149
-0.000265149
9.69633e-05
-0.000103697
-0.000381867
6.41799e-07
-0.000682164
2.46146e-05
-0.00086872
1.21879e-05
-0.000999674
-1.32782e-05
-0.00110345
-4.14163e-05
-0.00118724
-6.75944e-05
-0.00125448
-9.24248e-05
-0.00130912
-0.000115613
-0.00135558
-0.000137512
-0.00140051
-0.000158198
-0.0014521
-0.000176786
-0.00151781
-0.000188393
-0.00160478
-0.000184996
-0.00172161
-0.000155552
-0.00187866
-8.71077e-05
-0.00208146
3.27323e-05
-0.00231655
0.000213946
-0.00261088
0.00047057
-0.00304648
0.000819406
-0.00371416
0.00125946
-0.00468147
0.00176289
-0.00606551
0.00218102
-0.00775003
0.00220097
-0.00728719
0.00110911
-0.00220588
0.0046829
0.00351709
0.00382368
0.00186597
0.00422723
-6.32601e-05
0.0042407
-0.000257181
0.00384327
-0.000242218
0.00321845
-0.000266904
0.00247091
-0.000246566
0.0016685
-0.000160113
0.000855129
-2.81626e-05
7.88423e-05
0.000104984
-0.000574588
0.000191373
-0.00104533
0.000205589
-0.00134835
0.000199328
-0.00152295
0.000175244
-0.00163029
0.000131959
-0.00170648
8.83746e-05
-0.00176963
4.98749e-05
-0.0018296
1.85545e-05
-0.00189079
-6.40885e-06
-0.00195464
-2.85688e-05
-0.00202198
-4.82699e-05
-0.0020947
-6.4797e-05
-0.00217614
-7.67569e-05
-0.00226858
-8.434e-05
-0.00237307
-8.39092e-05
-0.00248859
-6.94746e-05
-0.00261125
-3.28924e-05
-0.00273337
3.5014e-05
-0.00284284
0.000142207
-0.00293648
0.000307586
-0.00302203
0.000556121
-0.00310487
0.000902241
-0.00318079
0.00133538
-0.00320541
0.00178751
-0.00312809
0.00210369
-0.00277243
0.00184531
-0.00150989
-0.000153425
-0.00364388
-0.000539758
0.00412132
0.000301312
0.00102489
-5.75358e-05
0.00029558
-0.000407496
9.27778e-05
-0.000719399
6.96866e-05
-0.001071
8.46987e-05
-0.00143805
0.000120494
-0.00176653
0.000168365
-0.00200808
0.000213395
-0.00214969
0.000246592
-0.00221656
0.00025825
-0.00224742
0.000236448
-0.00225052
0.00020243
-0.00224172
0.000166448
-0.00224086
0.000131095
-0.00225323
0.00010075
-0.0022789
7.55373e-05
-0.00231523
5.48933e-05
-0.00235994
3.82999e-05
-0.00241365
2.51449e-05
-0.0024751
1.31811e-05
-0.00254197
2.0748e-06
-0.00261153
-7.19661e-06
-0.00268177
-1.41019e-05
-0.00274867
-1.70131e-05
-0.00280527
-1.28708e-05
-0.0028407
2.53799e-06
-0.00284491
3.92271e-05
-0.00280804
0.000105332
-0.00270862
0.000208172
-0.00251553
0.000363027
-0.00220189
0.000588601
-0.00174813
0.000881623
-0.00112604
0.00116542
-0.000165207
0.00114285
0.00113827
0.00054183
0.00158573
-0.000600884
-0.00197942
-0.00721926
-0.0101151
-0.005951
-0.00490614
-0.00459934
-0.00449961
-0.00442562
-0.00433863
-0.00421746
-0.00404981
-0.00383837
-0.0035949
-0.0033409
-0.00310976
-0.00291355
-0.00275406
-0.00263049
-0.0025377
-0.00247046
-0.00242413
-0.00239458
-0.00237832
-0.00237412
-0.00238107
-0.00239726
-0.0024203
-0.00244613
-0.00246766
-0.00247358
-0.00244257
-0.00234518
-0.00214467
-0.00178902
-0.00120751
-0.00033272
0.000826091
0.0019623
0.00249726
0.0018891
)
;

boundaryField
{
    floor
    {
        type            calculated;
        value           nonuniform List<scalar> 
29
(
0
0
0
0
0
0
0
0
0
0
0
0
0
0
0
0
0
0
0
0
-3.58023e-06
-9.22185e-06
-1.40716e-05
-1.84687e-05
-1.41958e-06
-2.65999e-06
-7.55249e-06
-7.89685e-06
-7.19233e-06
)
;
    }
    ceiling
    {
        type            calculated;
        value           nonuniform List<scalar> 
43
(
-4.53916e-05
-4.40727e-05
-4.27627e-05
-1.99739e-05
-1.1215e-05
-6.94702e-06
-4.29958e-06
-2.29613e-06
-6.67774e-07
7.17611e-07
1.95689e-06
3.12002e-06
4.25164e-06
5.31074e-06
6.22267e-06
6.95527e-06
7.52423e-06
7.96257e-06
8.30018e-06
8.55843e-06
8.75228e-06
8.8917e-06
8.98151e-06
9.01918e-06
9.00038e-06
8.93314e-06
8.81992e-06
8.66188e-06
8.45998e-06
8.21502e-06
7.94585e-06
7.66294e-06
7.37457e-06
7.09158e-06
6.83363e-06
6.61463e-06
6.64127e-06
6.8787e-06
7.27548e-06
8.51048e-06
1.12174e-05
8.15067e-06
-6.44747e-05
)
;
    }
    sWall
    {
        type            calculated;
        value           uniform -0.000274952;
    }
    nWall
    {
        type            calculated;
        value           nonuniform List<scalar> 6(-4.70932e-05 -5.64733e-05 -6.12291e-05 -7.18859e-05 -7.87342e-05 -9.88298e-05);
    }
    sideWalls
    {
        type            empty;
        value           nonuniform 0();
    }
    glass1
    {
        type            calculated;
        value           nonuniform List<scalar> 9(-5.61961e-05 -0.000151294 -0.000231357 -0.000299506 -0.000357355 -0.00040614 -0.000450289 -0.000503799 -0.000563673);
    }
    glass2
    {
        type            calculated;
        value           nonuniform List<scalar> 2(-0.000248823 -0.000275244);
    }
    sun
    {
        type            calculated;
        value           uniform 0;
    }
    heatsource1
    {
        type            calculated;
        value           nonuniform List<scalar> 3(2.03937e-07 2.03898e-07 2.03915e-07);
    }
    heatsource2
    {
        type            calculated;
        value           nonuniform List<scalar> 4(5.10871e-08 5.12109e-08 0 0);
    }
    Table_master
    {
        type            calculated;
        value           nonuniform List<scalar> 9(-1.52953e-07 -1.53033e-07 -1.53061e-07 -1.5308e-07 -1.53094e-07 -1.53103e-07 -1.53106e-07 -1.531e-07 -1.53067e-07);
    }
    Table_slave
    {
        type            calculated;
        value           nonuniform List<scalar> 9(1.52833e-07 1.52858e-07 1.52842e-07 1.52828e-07 1.52824e-07 1.52827e-07 1.52843e-07 1.52886e-07 1.52965e-07);
    }
    inlet
    {
        type            calculated;
        value           uniform -0.00617441;
    }
    outlet
    {
        type            calculated;
        value           nonuniform List<scalar> 2(0.00753961 0.00293989);
    }
}


// ************************************************************************* //
