/*--------------------------------*- C++ -*----------------------------------*\
  =========                 |
  \\      /  F ield         | OpenFOAM: The Open Source CFD Toolbox
   \\    /   O peration     | Website:  https://openfoam.org
    \\  /    A nd           | Version:  6
     \\/     M anipulation  |
\*---------------------------------------------------------------------------*/
FoamFile
{
    version     2.0;
    format      ascii;
    class       volScalarField;
    location    "500";
    object      alphat;
}
// * * * * * * * * * * * * * * * * * * * * * * * * * * * * * * * * * * * * * //

dimensions      [1 -1 -1 0 0 0 0];

internalField   nonuniform List<scalar> 
459
(
0.000840016
0.000856319
0.000706952
0.000714735
0.00073962
0.000765848
0.000792449
0.000819638
0.000848397
0.000875574
0.000898937
0.000916794
0.00092757
0.000929681
0.000917213
0.000332506
0.000461192
0.000328034
0.000278222
0.000256192
0.000245901
0.000245065
0.000252016
0.000268547
0.000288267
0.000308641
0.00032871
0.000347621
0.000367014
0.000395144
0.000431076
0.000457892
0.000458465
0.000422978
0.00153173
0.00301402
0.00184851
0.00281412
0.00315616
0.00336262
0.00356748
0.00375909
0.00390882
0.00401836
0.00406208
0.00399531
0.00374379
0.00318583
0.00219533
0.00100556
0.000664243
0.00045884
0.00185949
0.00116385
0.00085623
0.000638288
0.000456421
0.000376809
0.000369885
0.000426187
0.000521937
0.000655374
0.000831298
0.00103292
0.00116186
0.00128274
0.00157772
0.00139638
0.00111997
0.000488506
0.00213526
0.00540393
0.00224511
0.00341752
0.00466259
0.00506469
0.00531441
0.00551709
0.00566558
0.0057596
0.00577096
0.00564754
0.00530607
0.00463219
0.00355145
0.00223536
0.00109773
0.000825621
0.00270239
0.00223334
0.00182017
0.00145235
0.00107874
0.000294355
0.000285267
0.000352683
0.000413602
0.000468473
0.000521658
0.000578186
0.00064609
0.000742679
0.0021319
0.00203955
0.00157729
0.000737571
0.0026858
0.00820219
0.00339921
0.00324236
0.0050955
0.00584918
0.00620277
0.00646587
0.00667637
0.00684267
0.00695886
0.00697599
0.00680524
0.00630849
0.00532631
0.00382988
0.00222038
0.00127916
0.00333621
0.00359512
0.00333448
0.00275004
0.00211025
0.001429
0.000894837
0.000877987
0.000865191
0.000855472
0.000851924
0.000859477
0.000884369
0.000934143
0.00102194
0.00303311
0.00319057
0.00277528
0.00103784
0.00317794
0.0110178
0.00552227
0.00360028
0.00473217
0.00574839
0.00631252
0.00671754
0.0070524
0.00736345
0.00769087
0.00800938
0.00826807
0.00839654
0.00831745
0.0079786
0.00741478
0.00681793
0.00677842
0.00657012
0.00638435
0.00615151
0.0058869
0.00559843
0.00530805
0.00511125
0.00488671
0.00462777
0.00435222
0.0040996
0.00391945
0.00384647
0.00388753
0.00405051
0.00404023
0.00394273
0.00342616
0.00143576
0.00124389
0.00107374
0.00362439
0.0134075
0.00873393
0.00552594
0.00465508
0.004985
0.00561141
0.00618185
0.00663628
0.00710103
0.00763571
0.00822443
0.00881785
0.00934889
0.00974512
0.00994186
0.00990154
0.00965187
0.00930711
0.00893561
0.0086203
0.00837927
0.00818417
0.0079982
0.00778838
0.00753993
0.00723286
0.00685055
0.00638604
0.00586289
0.00534889
0.00492982
0.00464687
0.00447101
0.0043337
0.00416263
0.00383699
0.00321187
0.0023823
0.00113497
0.00399471
0.0147368
0.0121438
0.00879201
0.00642494
0.00524611
0.00512814
0.00545044
0.00579998
0.00624299
0.00683207
0.00757402
0.0084081
0.00923477
0.00995102
0.0104661
0.0107106
0.0106827
0.0104568
0.0101461
0.00984963
0.0096112
0.00942358
0.00926014
0.00909202
0.00890226
0.00867773
0.00839308
0.00800755
0.00747932
0.00680886
0.00608796
0.00545654
0.00497856
0.00460818
0.00424431
0.00377803
0.00315996
0.00243797
0.00114373
0.00400137
0.0130415
0.0118014
0.0108659
0.00896266
0.00725864
0.00623214
0.00575001
0.00559409
0.00564456
0.0059213
0.00646183
0.00725179
0.00819516
0.00913904
0.00993708
0.0104512
0.0106681
0.0106454
0.0104783
0.0102635
0.0100619
0.00989226
0.00974917
0.0096203
0.00950036
0.00938929
0.00927987
0.00914569
0.00892929
0.00854509
0.00793918
0.00717351
0.00638654
0.00568031
0.00504926
0.00445475
0.00387988
0.00341461
0.00172667
0.00380474
0.00438226
0.0104605
0.0111777
0.00978665
0.00827001
0.0070793
0.00626867
0.00577335
0.00552021
0.00550688
0.00573693
0.00621012
0.00690451
0.00773664
0.00856576
0.00924307
0.00968943
0.00990355
0.00993905
0.00986996
0.00975765
0.00963822
0.00952592
0.00942518
0.00934165
0.00928566
0.00926903
0.00929935
0.00936869
0.00943228
0.00937484
0.00916213
0.00885732
0.00861537
0.00844749
0.00796734
0.00697618
0.00686586
0.0019291
0.0224572
0.0206763
0.0118542
0.00924803
0.00788729
0.00700747
0.00643792
0.00609887
0.00594158
0.00593652
0.00607117
0.00633733
0.00672256
0.00719464
0.00769216
0.00814189
0.00848728
0.00870779
0.00881688
0.00884377
0.00881722
0.00876077
0.00869266
0.00862808
0.00858195
0.00857006
0.00860842
0.00870871
0.00886406
0.00901609
0.00912217
0.00913953
0.00902477
0.00866917
0.00799858
0.00701545
0.00588814
0.00190067
0.00781229
0.0161909
0.0113715
0.00885071
0.00747771
0.00665333
0.00616174
0.00590158
0.00581475
0.00586139
0.00600592
0.00621738
0.00647256
0.00675432
0.0070444
0.0073194
0.00755529
0.0077362
0.00785832
0.00792273
0.00792695
0.00788965
0.0078295
0.00776197
0.00769895
0.00764924
0.00761896
0.00761114
0.00762226
0.00762472
0.00761068
0.00756476
0.00737929
0.0070357
0.00650966
0.00574195
0.00535784
0.00179119
0.00187598
0.00270677
0.00553164
0.00502585
0.0041761
0.00349697
0.00299716
0.00262809
0.00235071
0.00213985
0.00198004
0.00186183
0.00177851
0.00172416
0.00169301
0.00167928
0.00167746
0.00168238
0.00168939
0.00169491
0.00169677
0.00169466
0.00168997
0.00168226
0.00167187
0.00165952
0.00164602
0.00163207
0.00161817
0.00160456
0.00159119
0.00157993
0.00156692
0.00154662
0.00152186
0.00149251
0.0014556
0.00140961
0.00142775
0.00129008
)
;

boundaryField
{
    floor
    {
        type            compressible::alphatWallFunction;
        Prt             0.85;
        value           nonuniform List<scalar> 
29
(
0.000130614
4.28875e-05
6.31375e-05
4.21604e-05
3.40794e-05
3.04427e-05
2.87254e-05
2.85862e-05
2.97501e-05
3.25048e-05
3.57639e-05
3.9101e-05
4.236e-05
4.54086e-05
4.85162e-05
5.29882e-05
5.86385e-05
6.28183e-05
6.28949e-05
5.73623e-05
5.73615e-05
6.75253e-05
0.000104837
0.000147771
0.000130612
4.28869e-05
6.28418e-05
0.000117369
0.000181041
)
;
    }
    ceiling
    {
        type            compressible::alphatWallFunction;
        Prt             0.85;
        value           nonuniform List<scalar> 
43
(
0.000261374
0.000368146
0.000710202
0.000650566
0.000549
0.000466335
0.00040445
0.000358067
0.000322755
0.000295614
0.000274848
0.000259371
0.000248394
0.000241202
0.000237064
0.000235236
0.000234989
0.000235637
0.000236565
0.000237295
0.000237538
0.000237255
0.000236629
0.000235602
0.000234219
0.000232575
0.000230776
0.000228916
0.000227061
0.000225242
0.000223454
0.000221946
0.000220202
0.00021748
0.000214156
0.000210207
0.000205232
0.000199012
0.000201464
0.000182743
0.000503881
0.000573696
0.000973066
)
;
    }
    sWall
    {
        type            compressible::alphatWallFunction;
        Prt             0.85;
        value           uniform 0.000260454;
    }
    nWall
    {
        type            compressible::alphatWallFunction;
        Prt             0.85;
        value           nonuniform List<scalar> 6(0.000152542 0.000161064 0.000162284 0.000264047 0.000249654 0.000182444);
    }
    sideWalls
    {
        type            empty;
    }
    glass1
    {
        type            compressible::alphatWallFunction;
        Prt             0.85;
        value           nonuniform List<scalar> 9(0.000116395 0.000210697 0.000289277 0.000359031 0.000420215 0.00047494 0.000519861 0.000520819 0.000497279);
    }
    glass2
    {
        type            compressible::alphatWallFunction;
        Prt             0.85;
        value           nonuniform List<scalar> 2(0.000240252 0.000266823);
    }
    sun
    {
        type            compressible::alphatWallFunction;
        Prt             0.85;
        value           nonuniform List<scalar> 
14
(
0.000119591
0.000121915
0.000100254
0.000101398
0.000105039
0.00010886
0.00011272
0.000116649
0.000120788
0.000124684
0.000128021
0.000130565
0.000132095
0.000132392
)
;
    }
    heatsource1
    {
        type            compressible::alphatWallFunction;
        Prt             0.85;
        value           nonuniform List<scalar> 3(0.000202472 0.000176332 0.00015277);
    }
    heatsource2
    {
        type            compressible::alphatWallFunction;
        Prt             0.85;
        value           nonuniform List<scalar> 4(0.000143194 9.40445e-05 9.40434e-05 0.000156085);
    }
    Table_master
    {
        type            compressible::alphatWallFunction;
        Prt             0.85;
        value           nonuniform List<scalar> 9(3.68182e-05 3.53355e-05 4.62871e-05 5.59522e-05 6.45029e-05 7.26702e-05 8.12365e-05 9.13897e-05 0.000105608);
    }
    Table_slave
    {
        type            compressible::alphatWallFunction;
        Prt             0.85;
        value           nonuniform List<scalar> 9(0.000127526 0.000125121 0.000123291 0.000121898 0.000121389 0.000122472 0.000126036 0.000133127 0.00014553);
    }
    inlet
    {
        type            fixedValue;
        value           uniform 1.94e-05;
    }
    outlet
    {
        type            zeroGradient;
    }
}


// ************************************************************************* //
