/*--------------------------------*- C++ -*----------------------------------*\
  =========                 |
  \\      /  F ield         | OpenFOAM: The Open Source CFD Toolbox
   \\    /   O peration     | Website:  https://openfoam.org
    \\  /    A nd           | Version:  6
     \\/     M anipulation  |
\*---------------------------------------------------------------------------*/
FoamFile
{
    version     2.0;
    format      ascii;
    class       volScalarField;
    location    "1000";
    object      nut;
}
// * * * * * * * * * * * * * * * * * * * * * * * * * * * * * * * * * * * * * //

dimensions      [0 2 -1 0 0 0 0];

internalField   nonuniform List<scalar> 
459
(
0.00108186
0.00118223
0.00120433
0.00126228
0.00131595
0.0013662
0.0014155
0.00146348
0.00149719
0.00151112
0.00150024
0.00146146
0.00139464
0.00130532
0.00120721
0.000475053
0.000580837
0.000653484
0.000649449
0.000627033
0.000597567
0.000560623
0.000524032
0.000490824
0.000461339
0.000435232
0.000412039
0.000391412
0.000372895
0.000355825
0.000339344
0.00032219
0.000309819
0.000282024
0.00147387
0.00360987
0.00345826
0.00402591
0.00458353
0.0051402
0.00562981
0.00599856
0.00633115
0.0066005
0.00676887
0.00679367
0.00660993
0.00605418
0.00453202
0.00123167
0.000722926
0.000513368
0.00107858
0.00148979
0.00178375
0.00193934
0.00193193
0.00155295
0.00133979
0.00118721
0.00107
0.000976721
0.000900764
0.000835318
0.000774261
0.000714973
0.000662189
0.000616288
0.000721864
0.000367895
0.00179988
0.00493166
0.00429674
0.00538914
0.00593401
0.00633696
0.00664879
0.00689758
0.00716722
0.00744801
0.0077062
0.00789447
0.0079603
0.00782548
0.00728379
0.00561126
0.00122688
0.00102315
0.00147093
0.00188484
0.00225264
0.00250054
0.00242943
0.000802823
0.000708714
0.000633143
0.000572185
0.000522536
0.000481665
0.000447753
0.000419645
0.00039686
0.000427831
0.000495128
0.000812497
0.000425158
0.00211254
0.00629872
0.00431248
0.00570879
0.00618834
0.00634967
0.00645343
0.00658063
0.00679564
0.00708394
0.00740965
0.00771404
0.00794227
0.00803198
0.00791272
0.00733225
0.00535191
0.00146715
0.00181908
0.00234816
0.00285729
0.0032579
0.0034995
0.00327296
0.000906094
0.000824574
0.000766096
0.000721456
0.000683546
0.000648886
0.000615648
0.000580863
0.000540643
0.000507251
0.000519131
0.000927909
0.000469536
0.00243123
0.0080517
0.0047399
0.00550008
0.00613536
0.00617637
0.00612064
0.00618941
0.00637933
0.00667286
0.00703823
0.00739516
0.00766758
0.00779486
0.00775596
0.00750931
0.00688705
0.00569961
0.00529397
0.00516199
0.00511844
0.00509098
0.00503597
0.00483886
0.00407939
0.00371398
0.00350079
0.00333616
0.00316355
0.00291618
0.00258368
0.00218073
0.00173344
0.00128311
0.000946225
0.000952192
0.000631109
0.000578157
0.000700293
0.000786131
0.00276897
0.00996037
0.00651462
0.00547774
0.00595681
0.00616901
0.00602903
0.00608507
0.00622787
0.00649013
0.00685911
0.00725016
0.00755005
0.00767206
0.00759702
0.0073731
0.00707816
0.00677507
0.00660802
0.00648636
0.0063476
0.006187
0.00600377
0.00577084
0.00542505
0.00511452
0.0048389
0.00457548
0.00430855
0.00401957
0.00365785
0.00320962
0.00267499
0.00208444
0.00156315
0.00117189
0.000882249
0.000748181
0.00106589
0.000820428
0.0030759
0.0112949
0.00911369
0.00705254
0.00667727
0.00658645
0.00635959
0.00621822
0.00626425
0.00652074
0.00692987
0.0073659
0.00768161
0.00777516
0.00763762
0.00736819
0.00713969
0.00706698
0.0070842
0.00702742
0.00684969
0.00658399
0.00626136
0.00589928
0.00551556
0.0051582
0.00483084
0.00452674
0.0042464
0.00399625
0.00377616
0.00347717
0.00305995
0.00255199
0.00206437
0.00162912
0.00130892
0.00120993
0.00123276
0.000935394
0.0031351
0.0100434
0.00892866
0.00825106
0.00763858
0.00693494
0.00639124
0.00618002
0.00631966
0.00673338
0.00727884
0.00777563
0.00805624
0.00804231
0.00777583
0.00742715
0.00722297
0.00723166
0.00724714
0.00703623
0.00665729
0.0061842
0.00567881
0.00519459
0.00476813
0.00440889
0.00410468
0.00384849
0.00364332
0.00349675
0.00341579
0.0033749
0.00316629
0.00284134
0.00255634
0.00241169
0.00250538
0.00288419
0.00353646
0.00146013
0.00305157
0.00361761
0.00401456
0.00411034
0.00419641
0.00443483
0.00491199
0.00563439
0.00651636
0.00740463
0.00813509
0.00855402
0.00856169
0.00821115
0.00769193
0.00734568
0.00715056
0.0069817
0.00669122
0.00622177
0.00564078
0.0050374
0.00448756
0.00403081
0.00366852
0.00338024
0.00314442
0.0029478
0.0027818
0.00263776
0.0025065
0.00238659
0.00229212
0.00222275
0.00219667
0.00220645
0.00219383
0.00210568
0.00196781
0.00137334
0.00147808
0.00305384
0.00500039
0.00661878
0.00788043
0.00883996
0.00944231
0.00967738
0.0095811
0.00914989
0.00847415
0.00764133
0.00694052
0.00650787
0.0061532
0.00571567
0.0051795
0.00460513
0.00405809
0.00358349
0.00320699
0.00291648
0.00269025
0.00251106
0.00236899
0.00225906
0.00217879
0.00212692
0.00210503
0.00211047
0.00212939
0.00215779
0.00218789
0.00219562
0.00214217
0.00201509
0.00182378
0.00114208
0.00198265
0.00514026
0.00768527
0.00867198
0.00916733
0.00932144
0.00911182
0.00860236
0.00789928
0.00710827
0.00636071
0.00569648
0.00516055
0.00470145
0.00423747
0.00378113
0.0033763
0.00304632
0.00279041
0.00259472
0.0024363
0.002303
0.00218944
0.00209787
0.00203116
0.00198867
0.00196896
0.0019704
0.00199766
0.00204791
0.00211765
0.00219943
0.00227696
0.00233046
0.00231261
0.00233801
0.00237269
0.00116461
0.00177538
0.00188137
0.00195638
0.00210798
0.00204001
0.00195827
0.00190474
0.00182783
0.00171702
0.00157927
0.00142442
0.00126358
0.00110787
0.000974824
0.000874528
0.000803195
0.000752418
0.000715545
0.000688554
0.000669147
0.000655891
0.000647918
0.000644651
0.000646299
0.000653325
0.000665551
0.000682736
0.000705227
0.000733598
0.000768589
0.00080932
0.000855859
0.000908708
0.000968305
0.00103416
0.00111235
0.00113775
0.00110853
0.00104145
0.000970374
)
;

boundaryField
{
    floor
    {
        type            nutkWallFunction;
        Cmu             0.09;
        kappa           0.41;
        E               9.8;
        value           nonuniform List<scalar> 
29
(
0.000144839
5.65093e-05
6.99441e-05
7.89943e-05
7.84949e-05
7.57139e-05
7.20399e-05
6.74019e-05
6.27713e-05
5.8534e-05
5.47419e-05
5.13589e-05
4.83319e-05
4.56216e-05
4.31731e-05
4.0902e-05
3.86959e-05
3.63848e-05
3.47081e-05
3.09082e-05
3.09081e-05
4.25088e-05
5.0046e-05
5.57984e-05
0.000144839
5.65093e-05
6.1414e-05
0.000123446
0.000174445
)
;
    }
    ceiling
    {
        type            nutkWallFunction;
        Cmu             0.09;
        kappa           0.41;
        E               9.8;
        value           nonuniform List<scalar> 
43
(
0.000208671
0.000220315
0.000228516
0.000245086
0.000237751
0.000228863
0.00022302
0.000214584
0.000202355
0.000187029
0.000169622
0.000151318
0.000133345
0.000117759
0.000105848
9.7281e-05
9.11282e-05
8.66296e-05
8.33191e-05
8.09292e-05
7.9292e-05
7.83054e-05
7.79007e-05
7.81048e-05
7.89747e-05
8.04854e-05
8.26034e-05
8.53658e-05
8.88354e-05
9.30929e-05
9.80202e-05
0.000103615
0.000109925
0.00011699
0.000124738
0.000133867
0.000136816
0.000133423
0.000125593
0.000117235
0.000345515
0.000404019
0.000231252
)
;
    }
    sWall
    {
        type            nutkWallFunction;
        Cmu             0.09;
        kappa           0.41;
        E               9.8;
        value           uniform 0.000208728;
    }
    nWall
    {
        type            nutkWallFunction;
        Cmu             0.09;
        kappa           0.41;
        E               9.8;
        value           nonuniform List<scalar> 6(9.52188e-05 9.93597e-05 0.000113098 0.000137328 0.000139936 0.00011724);
    }
    sideWalls
    {
        type            empty;
    }
    glass1
    {
        type            nutkWallFunction;
        Cmu             0.09;
        kappa           0.41;
        E               9.8;
        value           nonuniform List<scalar> 9(0.000130419 0.000175424 0.000211818 0.000246046 0.00028038 0.000316249 0.000348452 0.000354634 0.000345939);
    }
    glass2
    {
        type            nutkWallFunction;
        Cmu             0.09;
        kappa           0.41;
        E               9.8;
        value           nonuniform List<scalar> 2(0.000173727 0.000163901);
    }
    sun
    {
        type            nutkWallFunction;
        Cmu             0.09;
        kappa           0.41;
        E               9.8;
        value           nonuniform List<scalar> 
14
(
0.000130317
0.000141961
0.000144509
0.000151168
0.000157305
0.000163025
0.000168613
0.000174033
0.000177828
0.000179393
0.00017817
0.000173804
0.00016625
0.000156089
)
;
    }
    heatsource1
    {
        type            nutkWallFunction;
        Cmu             0.09;
        kappa           0.41;
        E               9.8;
        value           nonuniform List<scalar> 3(6.96093e-05 8.47611e-05 9.52187e-05);
    }
    heatsource2
    {
        type            nutkWallFunction;
        Cmu             0.09;
        kappa           0.41;
        E               9.8;
        value           nonuniform List<scalar> 4(0.00014765 8.75333e-05 8.75333e-05 0.000147099);
    }
    Table_master
    {
        type            nutkWallFunction;
        Cmu             0.09;
        kappa           0.41;
        E               9.8;
        value           nonuniform List<scalar> 9(9.72359e-05 8.57941e-05 7.64751e-05 6.88604e-05 6.25853e-05 5.73643e-05 5.29907e-05 4.93341e-05 4.63472e-05);
    }
    Table_slave
    {
        type            nutkWallFunction;
        Cmu             0.09;
        kappa           0.41;
        E               9.8;
        value           nonuniform List<scalar> 9(0.000109612 9.98573e-05 9.27905e-05 8.73532e-05 8.27041e-05 7.84265e-05 7.42986e-05 6.99495e-05 6.48811e-05);
    }
    inlet
    {
        type            calculated;
        value           uniform 0.000100623;
    }
    outlet
    {
        type            calculated;
        value           nonuniform List<scalar> 2(0.00177538 0.00188137);
    }
}


// ************************************************************************* //
