// -*- C++ -*-
// File generated by PyFoam - sorry for the ugliness

FoamFile
{
 version 2.0;
 format ascii;
 class volVectorField;
 location "1000";
 object U;
}

dimensions [ 0 1 -1 0 0 0 0 ];

internalField nonuniform List<vector> 459
(
  (0.032868 0.0854647 0)
  (-0.166136 0.0256999 0)
  (-0.190756 0.0178409 0)
  (-0.221348 0.0123076 0)
  (-0.243628 0.00626253 0)
  (-0.256753 -7.4472e-05 0)
  (-0.259388 -0.00675663 0)
  (-0.250345 -0.0137859 0)
  (-0.230304 -0.0206753 0)
  (-0.200748 -0.0263703 0)
  (-0.16469 -0.0300306 0)
  (-0.125569 -0.0313948 0)
  (-0.0866411 -0.0309844 0)
  (-0.0526443 -0.0304376 0)
  (-0.0371635 -0.0314968 0)
  (-0.00282662 0.00745071 0)
  (-0.0224623 -0.0174555 0)
  (0.00119691 -0.0262224 0)
  (0.0221432 -0.0194781 0)
  (0.0378614 -0.013103 0)
  (0.0495115 -0.00837528 0)
  (0.056412 -0.00501845 0)
  (0.0598649 -0.00326445 0)
  (0.0614398 -0.00250783 0)
  (0.0622678 -0.00214326 0)
  (0.0627927 -0.00190765 0)
  (0.0630713 -0.00171494 0)
  (0.0630378 -0.00147742 0)
  (0.0624823 -0.00102237 0)
  (0.0608355 3.3396e-05 0)
  (0.0568915 0.00223299 0)
  (0.0493248 0.00463025 0)
  (0.041438 0.00673785 0)
  (-0.0102279 0.0204054 0)
  (0.205024 0.174592 0)
  (-0.154259 0.0672364 0)
  (-0.152666 0.0521588 0)
  (-0.183896 0.0406349 0)
  (-0.205655 0.027742 0)
  (-0.218751 0.0134767 0)
  (-0.221828 -0.00241081 0)
  (-0.213509 -0.0194564 0)
  (-0.194999 -0.0355229 0)
  (-0.168157 -0.048107 0)
  (-0.136213 -0.0554383 0)
  (-0.102583 -0.0570794 0)
  (-0.0704786 -0.0537176 0)
  (-0.0436207 -0.0469377 0)
  (-0.026563 -0.0379388 0)
  (-0.0130554 -0.0185216 0)
  (-0.00707447 0.0136294 0)
  (0.0596709 0.0314087 0)
  (0.0313585 -0.0198778 0)
  (0.0384584 -0.030628 0)
  (0.0492429 -0.0259906 0)
  (0.0576986 -0.0179162 0)
  (0.0633084 -0.0105279 0)
  (0.0655273 -0.00435239 0)
  (0.0658476 -0.000928077 0)
  (0.0657606 0.000535439 0)
  (0.0658418 0.00121441 0)
  (0.0660057 0.00164188 0)
  (0.0661227 0.00201344 0)
  (0.0661512 0.00249851 0)
  (0.0660373 0.0034351 0)
  (0.0652482 0.00573051 0)
  (0.0613617 0.0120555 0)
  (0.0515923 0.0174665 0)
  (0.0451785 0.0213794 0)
  (-0.0436238 0.0440546 0)
  (0.362745 0.260862 0)
  (-0.169854 0.106585 0)
  (-0.114042 0.0839165 0)
  (-0.143801 0.063444 0)
  (-0.162729 0.0423014 0)
  (-0.174459 0.0192322 0)
  (-0.176797 -0.00652108 0)
  (-0.167571 -0.0337338 0)
  (-0.149068 -0.0585933 0)
  (-0.123899 -0.0770624 0)
  (-0.09557 -0.0867808 0)
  (-0.0670232 -0.087693 0)
  (-0.0405305 -0.0809676 0)
  (-0.0182898 -0.0681922 0)
  (-0.00205666 -0.0503573 0)
  (0.0102662 -0.0247987 0)
  (0.0169241 0.00960847 0)
  (0.105464 -0.0388529 0)
  (0.0729678 -0.0430373 0)
  (0.0690454 -0.0394465 0)
  (0.0712165 -0.0316735 0)
  (0.0727601 -0.0225588 0)
  (0.0736058 -0.014912 0)
  (0.0718987 -0.0121378 0)
  (0.0678663 -0.00867729 0)
  (0.0650761 -0.00680206 0)
  (0.0638116 -0.00573428 0)
  (0.0632563 -0.00505785 0)
  (0.0629833 -0.0045862 0)
  (0.0630259 -0.00412839 0)
  (0.0638567 -0.00332067 0)
  (0.0666873 -0.000185432 0)
  (0.0646494 0.0170393 0)
  (0.0513945 0.0292696 0)
  (0.0507456 0.0379976 0)
  (-0.0730545 0.0691652 0)
  (0.504666 0.33004 0)
  (-0.203078 0.141251 0)
  (-0.0738252 0.110475 0)
  (-0.101299 0.082318 0)
  (-0.114405 0.0551961 0)
  (-0.122167 0.025013 0)
  (-0.120766 -0.010283 0)
  (-0.108211 -0.0480286 0)
  (-0.0889381 -0.0808674 0)
  (-0.0662143 -0.103641 0)
  (-0.0432811 -0.114203 0)
  (-0.0218637 -0.113664 0)
  (-0.00271268 -0.103794 0)
  (0.0135663 -0.0864336 0)
  (0.0269486 -0.0644098 0)
  (0.0412705 -0.0383965 0)
  (0.0633155 -0.0116468 0)
  (0.0938789 0.00044101 0)
  (0.101435 -0.0327176 0)
  (0.0878807 -0.0381895 0)
  (0.0792899 -0.0341002 0)
  (0.0750704 -0.0278807 0)
  (0.0722951 -0.0205193 0)
  (0.0709432 -0.0119713 0)
  (0.0726483 -0.0070218 0)
  (0.0767742 -0.00552616 0)
  (0.0801819 -0.00468873 0)
  (0.0824744 -0.00404144 0)
  (0.083859 -0.00321275 0)
  (0.0837788 -0.00194641 0)
  (0.0811862 -2.4895e-05 0)
  (0.0748443 0.0028393 0)
  (0.0619605 0.00717926 0)
  (0.0510242 0.0274356 0)
  (0.0403902 0.0442484 0)
  (0.0536118 0.0578376 0)
  (-0.103391 0.0919875 0)
  (0.62659 0.38352 0)
  (-0.243733 0.169466 0)
  (-0.0347944 0.125145 0)
  (-0.0571768 0.0924901 0)
  (-0.061926 0.0620161 0)
  (-0.0625602 0.0268419 0)
  (-0.0512559 -0.0172133 0)
  (-0.0331889 -0.0641616 0)
  (-0.0142299 -0.101459 0)
  (0.00345724 -0.124915 0)
  (0.0178279 -0.133253 0)
  (0.0291136 -0.129692 0)
  (0.0378042 -0.117214 0)
  (0.044629 -0.0983694 0)
  (0.0507359 -0.0758144 0)
  (0.0580922 -0.0522068 0)
  (0.0692955 -0.0330045 0)
  (0.0797462 -0.0285878 0)
  (0.0812841 -0.0344998 0)
  (0.0747268 -0.0333756 0)
  (0.0666893 -0.0285054 0)
  (0.0605324 -0.0229958 0)
  (0.0561786 -0.017287 0)
  (0.0538452 -0.0114065 0)
  (0.0539145 -0.00623298 0)
  (0.0560366 -0.00385615 0)
  (0.0584078 -0.00300036 0)
  (0.0607087 -0.00228546 0)
  (0.0628414 -0.000773654 0)
  (0.064427 0.00208064 0)
  (0.0643038 0.00639762 0)
  (0.0618883 0.0123442 0)
  (0.0564867 0.0205731 0)
  (0.0499395 0.035983 0)
  (0.0409676 0.0544988 0)
  (0.0618761 0.0749929 0)
  (-0.0169339 0.104223 0)
  (0.0454523 0.0341221 0)
  (-0.0611756 -0.0343348 0)
  (-0.268864 -0.0566199 0)
  (0.714301 0.428021 0)
  (-0.282992 0.188242 0)
  (-0.00569907 0.119991 0)
  (-0.0116697 0.0915795 0)
  (-0.00482807 0.0619584 0)
  (0.0056389 0.0198771 0)
  (0.0347675 -0.0348302 0)
  (0.0558232 -0.0828229 0)
  (0.0705545 -0.116832 0)
  (0.078964 -0.135618 0)
  (0.0818584 -0.140427 0)
  (0.0807561 -0.134018 0)
  (0.0770268 -0.119421 0)
  (0.0720874 -0.0996203 0)
  (0.0674174 -0.0775003 0)
  (0.0643714 -0.0557407 0)
  (0.0638287 -0.0380694 0)
  (0.0633823 -0.0290795 0)
  (0.0593505 -0.0268507 0)
  (0.0517388 -0.024779 0)
  (0.0434999 -0.0212368 0)
  (0.0368922 -0.0173083 0)
  (0.0323442 -0.0134663 0)
  (0.0300281 -0.00978392 0)
  (0.0299282 -0.00692149 0)
  (0.0315773 -0.00596531 0)
  (0.0340448 -0.00594027 0)
  (0.0369874 -0.00565369 0)
  (0.0402428 -0.0041407 0)
  (0.0436 -0.000549971 0)
  (0.0465528 0.00539032 0)
  (0.0481019 0.0133783 0)
  (0.0484518 0.0236303 0)
  (0.0490072 0.0379193 0)
  (0.0483475 0.0558473 0)
  (0.0702886 0.0786723 0)
  (0.0522948 0.0972241 0)
  (0.0914618 0.068295 0)
  (0.114451 0.0445993 0)
  (-0.128084 -0.00727296 0)
  (0.767379 0.468595 0)
  (-0.301557 0.173586 0)
  (0.0221386 0.0677726 0)
  (0.049772 0.0627083 0)
  (0.0706604 0.0433426 0)
  (0.104381 -0.00496767 0)
  (0.135913 -0.0585126 0)
  (0.154002 -0.0991855 0)
  (0.159782 -0.124546 0)
  (0.155357 -0.135658 0)
  (0.143382 -0.134697 0)
  (0.12673 -0.124518 0)
  (0.107942 -0.108028 0)
  (0.0891714 -0.088137 0)
  (0.072166 -0.0674082 0)
  (0.0580164 -0.0478881 0)
  (0.0472217 -0.0322369 0)
  (0.0386408 -0.0228272 0)
  (0.0302797 -0.0186451 0)
  (0.0217772 -0.0163601 0)
  (0.0141365 -0.0141316 0)
  (0.00832155 -0.0120215 0)
  (0.0045319 -0.0101974 0)
  (0.00276913 -0.00868778 0)
  (0.00287699 -0.00786597 0)
  (0.00435942 -0.00812781 0)
  (0.00660154 -0.00884217 0)
  (0.00938534 -0.00915131 0)
  (0.0127609 -0.00820173 0)
  (0.0168592 -0.00499509 0)
  (0.0226122 0.00143648 0)
  (0.0283065 0.0101768 0)
  (0.0337452 0.0205193 0)
  (0.0407382 0.0331289 0)
  (0.0485693 0.0477623 0)
  (0.0703301 0.0661414 0)
  (0.0839693 0.0744924 0)
  (0.115832 0.0525005 0)
  (0.155345 0.0440043 0)
  (-0.0361764 0.0925543 0)
  (0.872235 0.469836 0)
  (-0.0639705 0.15216 0)
  (0.110208 -0.0140041 0)
  (0.182144 -0.041844 0)
  (0.213776 -0.0538268 0)
  (0.245122 -0.0762809 0)
  (0.262522 -0.0983242 0)
  (0.262906 -0.113872 0)
  (0.247929 -0.121024 0)
  (0.221697 -0.119889 0)
  (0.188722 -0.111721 0)
  (0.153032 -0.098323 0)
  (0.117775 -0.0814702 0)
  (0.0853268 -0.0633402 0)
  (0.057289 -0.0458244 0)
  (0.0342545 -0.0301034 0)
  (0.0170304 -0.0183483 0)
  (0.00464152 -0.0118449 0)
  (-0.00483424 -0.00936597 0)
  (-0.0120957 -0.00865494 0)
  (-0.0178749 -0.00827215 0)
  (-0.0221012 -0.00805953 0)
  (-0.0248724 -0.00804482 0)
  (-0.0263252 -0.00827291 0)
  (-0.0266813 -0.00890106 0)
  (-0.026346 -0.00999668 0)
  (-0.0257075 -0.0112473 0)
  (-0.0248746 -0.0122006 0)
  (-0.0236896 -0.0123597 0)
  (-0.0217578 -0.0111377 0)
  (-0.0181064 -0.00779146 0)
  (-0.00949309 -0.00163634 0)
  (-0.00124359 0.00632885 0)
  (0.00926923 0.0144642 0)
  (0.0209455 0.0215044 0)
  (0.0406883 0.0288145 0)
  (0.0597076 0.0223853 0)
  (0.0797172 -0.00468673 0)
  (0.138415 0.0391264 0)
  (-0.404881 0.202466 0)
  (1.01929 0.422867 0)
  (0.484855 0.279445 0)
  (0.499751 0.182749 0)
  (0.526567 0.111182 0)
  (0.507574 0.0595008 0)
  (0.465336 0.0122464 0)
  (0.416308 -0.0268378 0)
  (0.362487 -0.0533754 0)
  (0.304197 -0.0667254 0)
  (0.244367 -0.0689972 0)
  (0.186467 -0.0635927 0)
  (0.13308 -0.0536322 0)
  (0.0858176 -0.0410136 0)
  (0.0461776 -0.027933 0)
  (0.0142364 -0.0161731 0)
  (-0.011081 -0.00679756 0)
  (-0.0257687 -0.00271325 0)
  (-0.0348446 -0.00176393 0)
  (-0.040941 -0.00231358 0)
  (-0.0456915 -0.00332316 0)
  (-0.0495976 -0.00433598 0)
  (-0.0527893 -0.00532694 0)
  (-0.0553652 -0.00632278 0)
  (-0.0574756 -0.00736089 0)
  (-0.0593559 -0.00849121 0)
  (-0.0613569 -0.00969423 0)
  (-0.0638339 -0.010765 0)
  (-0.0670845 -0.0113365 0)
  (-0.0714251 -0.0108801 0)
  (-0.0772819 -0.00869266 0)
  (-0.0851993 -0.00395214 0)
  (-0.0951222 0.00388876 0)
  (-0.105248 0.0143216 0)
  (-0.120034 0.0275803 0)
  (-0.14322 0.0438 0)
  (-0.177316 0.061923 0)
  (-0.225665 0.0780991 0)
  (-0.281306 0.0897702 0)
  (-0.349281 0.0968726 0)
  (-0.608894 0.0999443 0)
  (-0.149791 0.00143961 0)
  (0.120805 0.00049519 0)
  (0.199131 -0.0330281 0)
  (0.186329 -0.0425346 0)
  (0.170184 -0.0401738 0)
  (0.148009 -0.0350055 0)
  (0.118503 -0.0285988 0)
  (0.0847713 -0.0210933 0)
  (0.0502121 -0.0129507 0)
  (0.0153069 -0.00478623 0)
  (-0.0177385 0.00261636 0)
  (-0.0398322 0.00679961 0)
  (-0.0550179 0.00905032 0)
  (-0.064024 0.00946511 0)
  (-0.0690275 0.0085904 0)
  (-0.072519 0.00764667 0)
  (-0.0752961 0.00689172 0)
  (-0.0777674 0.00632953 0)
  (-0.0802492 0.00587206 0)
  (-0.0828688 0.00524565 0)
  (-0.0855969 0.00451375 0)
  (-0.0885102 0.00369086 0)
  (-0.091731 0.00283108 0)
  (-0.0954049 0.00206002 0)
  (-0.0996165 0.00161554 0)
  (-0.104363 0.00181249 0)
  (-0.109573 0.00298162 0)
  (-0.11507 0.0054241 0)
  (-0.120234 0.00967491 0)
  (-0.12435 0.0166352 0)
  (-0.127766 0.0274195 0)
  (-0.130691 0.0424146 0)
  (-0.133785 0.0608194 0)
  (-0.13748 0.0792329 0)
  (-0.138737 0.0881563 0)
  (-0.121301 0.0671195 0)
  (-0.0784157 -0.0229574 0)
  (-0.273844 -0.198166 0)
  (0.0168582 0.194224 0)
  (0.0410042 0.0698145 0)
  (0.000371164 0.00551504 0)
  (-0.013195 -0.00254335 0)
  (-0.0270204 -0.000389732 0)
  (-0.0421967 0.000101698 0)
  (-0.0585069 0.00133167 0)
  (-0.073847 0.0036356 0)
  (-0.0857292 0.00570342 0)
  (-0.0922458 0.00595023 0)
  (-0.0964048 0.0039271 0)
  (-0.0980688 -0.000107999 0)
  (-0.0982675 -0.00464593 0)
  (-0.0976505 -0.00952006 0)
  (-0.0971268 -0.0147296 0)
  (-0.0972141 -0.0198064 0)
  (-0.0979344 -0.0244719 0)
  (-0.0991857 -0.0284729 0)
  (-0.100838 -0.0316228 0)
  (-0.102809 -0.0338127 0)
  (-0.105165 -0.0351964 0)
  (-0.10782 -0.0357317 0)
  (-0.110675 -0.0353615 0)
  (-0.113635 -0.034208 0)
  (-0.116578 -0.0323435 0)
  (-0.119268 -0.0295432 0)
  (-0.121332 -0.025388 0)
  (-0.122306 -0.0192954 0)
  (-0.121764 -0.0113364 0)
  (-0.118824 -0.00120457 0)
  (-0.112126 0.0118178 0)
  (-0.100392 0.0283725 0)
  (-0.0831729 0.0479728 0)
  (-0.0612198 0.0667064 0)
  (-0.0374022 0.077647 0)
  (0.00242678 0.0617446 0)
  (0.142888 -0.00841999 0)
  (-0.204813 -0.10827 0)
  (-0.0427461 -0.319559 0)
  (-0.412981 -0.123286 0)
  (-0.30108 0.0640162 0)
  (-0.250375 -0.0171041 0)
  (-0.210718 -0.0222079 0)
  (-0.199707 -0.0111499 0)
  (-0.195316 -0.00148383 0)
  (-0.191799 0.00651261 0)
  (-0.187156 0.0140192 0)
  (-0.18052 0.0214911 0)
  (-0.171749 0.0289993 0)
  (-0.161211 0.0364351 0)
  (-0.150069 0.0436402 0)
  (-0.139466 0.0506208 0)
  (-0.130174 0.057643 0)
  (-0.122447 0.0646667 0)
  (-0.116318 0.0716458 0)
  (-0.111607 0.0783573 0)
  (-0.108075 0.0843947 0)
  (-0.105514 0.0893786 0)
  (-0.103743 0.0930576 0)
  (-0.102607 0.095311 0)
  (-0.102019 0.0962079 0)
  (-0.101941 0.0956956 0)
  (-0.102332 0.0937295 0)
  (-0.103121 0.0906054 0)
  (-0.104177 0.086676 0)
  (-0.105289 0.0820378 0)
  (-0.106077 0.0767388 0)
  (-0.105864 0.0709213 0)
  (-0.103399 0.065823 0)
  (-0.0968529 0.0623588 0)
  (-0.0838641 0.0614217 0)
  (-0.0626362 0.0639823 0)
  (-0.0336128 0.0705776 0)
  (0.0119776 0.080265 0)
  (0.0549201 0.0812152 0)
  (0.0956418 0.0685455 0)
  (0.160877 0.0430126 0)
  (-0.232727 -0.00684598 0)
)
;

boundaryField
{
  floor
  {
    type noSlip;
  }
  ceiling
  {
    type noSlip;
  }
  sWall
  {
    type noSlip;
  }
  nWall
  {
    type noSlip;
  }
  sideWalls
  {
    type empty;
  }
  glass1
  {
    type noSlip;
  }
  glass2
  {
    type noSlip;
  }
  sun
  {
    type noSlip;
  }
  heatsource1
  {
    type noSlip;
  }
  heatsource2
  {
    type noSlip;
  }
  Table_master
  {
    type noSlip;
  }
  Table_slave
  {
    type noSlip;
  }
  inlet
  {
    type fixedValue;
    value uniform (0.277164 -0.114805 0);
  }
  outlet
  {
    type zeroGradient;
  }
} 	// ************************************************************************* //

