/*--------------------------------*- C++ -*----------------------------------*\
  =========                 |
  \\      /  F ield         | OpenFOAM: The Open Source CFD Toolbox
   \\    /   O peration     | Website:  https://openfoam.org
    \\  /    A nd           | Version:  6
     \\/     M anipulation  |
\*---------------------------------------------------------------------------*/
FoamFile
{
    version     2.0;
    format      ascii;
    class       volScalarField;
    location    "50";
    object      epsilon;
}
// * * * * * * * * * * * * * * * * * * * * * * * * * * * * * * * * * * * * * //

dimensions      [0 2 -3 0 0 0 0];

internalField   nonuniform List<scalar> 
459
(
0.000461951
0.000655146
0.000780302
0.000942018
0.00113171
0.00134852
0.00154462
0.00167842
0.00167622
0.00146749
0.0012451
0.00101213
0.000785391
0.000604125
0.000441411
8.80753e-05
0.000110795
7.33468e-05
6.58247e-05
6.11393e-05
4.85153e-05
2.96756e-05
1.7574e-05
1.14153e-05
8.56277e-06
7.35132e-06
6.89218e-06
6.80512e-06
7.14971e-06
9.08614e-06
1.84268e-05
4.37446e-05
8.59057e-05
9.04959e-05
0.000822342
0.000957676
0.000589018
0.000622397
0.00072194
0.000880114
0.00103512
0.00113623
0.0011224
0.000985346
0.000825497
0.000676737
0.000558621
0.000482622
0.000401658
0.000622344
0.00039945
0.000247195
0.000325699
0.000107505
6.90255e-05
5.56037e-05
4.6373e-05
3.63683e-05
2.18709e-05
1.34076e-05
9.35435e-06
7.64085e-06
7.02332e-06
6.9729e-06
7.65789e-06
1.09366e-05
2.3331e-05
6.9106e-05
0.000242943
0.00020535
0.00123354
0.00164031
0.00058943
0.00058054
0.000706994
0.000887751
0.00102306
0.00110688
0.00110196
0.000996342
0.000843004
0.00068974
0.000563889
0.000469277
0.00039013
0.00040698
0.000511253
0.000345827
0.000390364
0.000146383
9.45723e-05
7.24335e-05
6.37648e-05
9.20591e-05
3.24503e-05
1.49772e-05
9.53756e-06
7.77493e-06
7.28592e-06
7.41825e-06
8.65644e-06
1.77866e-05
3.4382e-05
7.39862e-05
0.000259208
0.000314198
0.00174857
0.00293208
0.00074964
0.000627124
0.000801002
0.000995888
0.00108746
0.00115801
0.00116218
0.00106127
0.000889655
0.000713361
0.000570708
0.000464324
0.000384201
0.000354762
0.00038047
0.000512168
0.00041328
0.000262185
0.000174272
0.000123632
9.45431e-05
8.68702e-05
0.000183791
0.000113867
9.31864e-05
8.74622e-05
8.72417e-05
9.23499e-05
0.000100933
0.00011261
0.000132504
8.41768e-05
9.78693e-05
0.000283048
0.000409098
0.00243129
0.00502112
0.00125608
0.000826377
0.00110438
0.00122709
0.00126126
0.00132138
0.0013201
0.00118724
0.000962923
0.000735886
0.000560296
0.000439437
0.000359989
0.000318972
0.000322997
0.00034873
0.000285985
0.00022675
0.000183867
0.000145179
0.000113542
9.64608e-05
9.7813e-05
8.51625e-05
7.70966e-05
7.35966e-05
7.30117e-05
7.49951e-05
7.87027e-05
8.3473e-05
8.8442e-05
8.86907e-05
9.83964e-05
0.000164324
0.000268352
0.000333337
0.000211316
0.000116519
0.0033547
0.00760337
0.00263322
0.00150084
0.00169086
0.00158074
0.00155278
0.00160084
0.00157411
0.00137544
0.00105979
0.000752518
0.000530482
0.000393854
0.000320946
0.000288839
0.000292627
0.000300752
0.000264632
0.000223009
0.000185431
0.000151238
0.000124357
0.000108022
0.000100656
9.42129e-05
9.03464e-05
8.90115e-05
8.97519e-05
9.26188e-05
9.67367e-05
0.000100847
0.000103662
0.000104276
0.000106021
0.000116443
0.000167685
0.000172895
0.000137274
0.000107565
0.00423215
0.00932745
0.00531424
0.00343069
0.00251417
0.00206525
0.00196851
0.00200642
0.00192943
0.00161641
0.00116002
0.000743298
0.000473354
0.000334842
0.000280222
0.00026478
0.000274427
0.000278707
0.000251678
0.000217191
0.000185328
0.000159128
0.000140752
0.00013012
0.000125248
0.00012302
0.000122791
0.000124187
0.000127032
0.000131604
0.000136771
0.000139744
0.000138663
0.000133829
0.000128431
0.000122621
0.000130039
0.000134244
0.000131853
9.8931e-05
0.00442318
0.00962135
0.00611886
0.00417161
0.0030156
0.00254127
0.00251601
0.0025682
0.0023812
0.00186326
0.00119939
0.000650679
0.00039657
0.000298731
0.000264892
0.000260225
0.00027163
0.000272581
0.000250333
0.000225957
0.000206646
0.000193993
0.000188095
0.000187749
0.000191139
0.000196404
0.000202627
0.000209378
0.000216372
0.000223055
0.000228505
0.000226031
0.000213082
0.00019213
0.000171976
0.000151512
0.000143624
0.000165354
0.000214248
0.000284769
0.00411405
0.00660392
0.00494635
0.00361988
0.00295726
0.00299902
0.00329648
0.00331225
0.00281299
0.00190971
0.00102674
0.000590149
0.000411134
0.000340129
0.000315395
0.000313546
0.000322058
0.000324515
0.000317849
0.000314341
0.000318074
0.000329416
0.000347264
0.000369351
0.000393051
0.000416285
0.000438001
0.000457713
0.000474451
0.000485163
0.000486736
0.000470784
0.000436495
0.000388707
0.000328994
0.000275484
0.000248398
0.000281953
0.000432938
0.000900492
0.000641729
0.00126751
0.00309383
0.00445909
0.00472415
0.00381825
0.00229059
0.00140971
0.000970904
0.0007722
0.000674512
0.000626286
0.000607841
0.000610097
0.000625651
0.000647333
0.00067755
0.000723079
0.000784905
0.000860077
0.000942933
0.00102656
0.00110518
0.00117572
0.00123751
0.00129066
0.0013339
0.001362
0.00136396
0.00133149
0.00125234
0.00112534
0.000971061
0.000827484
0.000736129
0.000728277
0.000880859
0.00154028
0.00164136
0.00899097
0.0107548
0.00932923
0.0070293
0.00480695
0.00322094
0.00237589
0.00194817
0.00171485
0.00155972
0.00144957
0.00138475
0.00137484
0.00142852
0.0015481
0.00172129
0.00193998
0.00219785
0.00248439
0.00278107
0.00306574
0.00332225
0.00354448
0.00373338
0.00389242
0.00402245
0.00411594
0.004152
0.00409638
0.00391543
0.00359762
0.00316488
0.00269295
0.00237118
0.00240368
0.00313987
0.00303867
0.00165484
0.00214799
0.00279412
0.00405178
0.00405703
0.0037952
0.00333158
0.0028174
0.00233055
0.00198796
0.00177935
0.00165715
0.00158995
0.00156064
0.00156124
0.00158827
0.0016395
0.0017117
0.0018007
0.00190103
0.00200602
0.00210857
0.00220211
0.0022821
0.002347
0.00239774
0.00243644
0.00246501
0.002484
0.00249183
0.00248437
0.00245613
0.00239967
0.00230615
0.00216652
0.00198574
0.00179661
0.00165022
0.00157094
0.00119886
)
;

boundaryField
{
    floor
    {
        Cmu             0.09;
        kappa           0.41;
        E               9.8;
        type            epsilonWallFunction;
        value           nonuniform List<scalar> 
29
(
0.000441411
8.80753e-05
0.000110795
7.33468e-05
6.58247e-05
6.11393e-05
4.85153e-05
2.96756e-05
1.7574e-05
1.14153e-05
8.56277e-06
7.35132e-06
6.89218e-06
6.80512e-06
7.14971e-06
9.08614e-06
1.84268e-05
4.37446e-05
8.59057e-05
9.04959e-05
9.04959e-05
0.00020535
0.000314198
0.000409098
0.000441411
8.80753e-05
0.000247195
0.000345827
0.000512168
)
;
    }
    ceiling
    {
        Cmu             0.09;
        kappa           0.41;
        E               9.8;
        type            epsilonWallFunction;
        value           nonuniform List<scalar> 
43
(
0.00165484
0.00214799
0.00279412
0.00405178
0.00405703
0.0037952
0.00333158
0.0028174
0.00233055
0.00198796
0.00177935
0.00165715
0.00158995
0.00156064
0.00156124
0.00158827
0.0016395
0.0017117
0.0018007
0.00190103
0.00200602
0.00210857
0.00220211
0.0022821
0.002347
0.00239774
0.00243644
0.00246501
0.002484
0.00249183
0.00248437
0.00245613
0.00239967
0.00230615
0.00216652
0.00198574
0.00179661
0.00165022
0.00157094
0.00119886
0.00411405
0.00660392
0.00164136
)
;
    }
    sWall
    {
        Cmu             0.09;
        kappa           0.41;
        E               9.8;
        type            epsilonWallFunction;
        value           uniform 0.00165484;
    }
    nWall
    {
        Cmu             0.09;
        kappa           0.41;
        E               9.8;
        type            epsilonWallFunction;
        value           nonuniform List<scalar> 6(0.000116519 0.000107565 9.8931e-05 0.00154028 0.00303867 0.00119886);
    }
    sideWalls
    {
        type            empty;
    }
    glass1
    {
        Cmu             0.09;
        kappa           0.41;
        E               9.8;
        type            epsilonWallFunction;
        value           nonuniform List<scalar> 9(0.000461951 0.000822342 0.00123354 0.00174857 0.00243129 0.0033547 0.00423215 0.00442318 0.00411405);
    }
    glass2
    {
        Cmu             0.09;
        kappa           0.41;
        E               9.8;
        type            epsilonWallFunction;
        value           nonuniform List<scalar> 2(0.000284769 0.000900492);
    }
    sun
    {
        Cmu             0.09;
        kappa           0.41;
        E               9.8;
        type            epsilonWallFunction;
        value           nonuniform List<scalar> 
14
(
0.000461951
0.000655146
0.000780302
0.000942018
0.00113171
0.00134852
0.00154462
0.00167842
0.00167622
0.00146749
0.0012451
0.00101213
0.000785391
0.000604125
)
;
    }
    heatsource1
    {
        Cmu             0.09;
        kappa           0.41;
        E               9.8;
        type            epsilonWallFunction;
        value           nonuniform List<scalar> 3(0.000333337 0.000211316 0.000116519);
    }
    heatsource2
    {
        Cmu             0.09;
        kappa           0.41;
        E               9.8;
        type            epsilonWallFunction;
        value           nonuniform List<scalar> 4(0.000622344 0.00039945 0.00039945 0.000511253);
    }
    Table_master
    {
        Cmu             0.09;
        kappa           0.41;
        E               9.8;
        type            epsilonWallFunction;
        value           nonuniform List<scalar> 9(9.20591e-05 3.24503e-05 1.49772e-05 9.53756e-06 7.77493e-06 7.28592e-06 7.41825e-06 8.65644e-06 1.77866e-05);
    }
    Table_slave
    {
        Cmu             0.09;
        kappa           0.41;
        E               9.8;
        type            epsilonWallFunction;
        value           nonuniform List<scalar> 9(0.000183791 0.000113867 9.31864e-05 8.74622e-05 8.72417e-05 9.23499e-05 0.000100933 0.00011261 0.000132504);
    }
    inlet
    {
        type            turbulentMixingLengthDissipationRateInlet;
        mixingLength    0.01;
        phi             phi;
        k               k;
        value           uniform 0.000101881;
    }
    outlet
    {
        type            zeroGradient;
    }
}


// ************************************************************************* //
