// -*- C++ -*-
// File generated by PyFoam - sorry for the ugliness

FoamFile
{
 version 2.0;
 format ascii;
 class volVectorField;
 location "200";
 object U;
}

dimensions [ 0 1 -1 0 0 0 0 ];

internalField nonuniform List<vector> 459
(
  (0.0244198 0.0892401 0)
  (-0.175651 0.0274406 0)
  (-0.204488 0.0157702 0)
  (-0.233364 0.00698177 0)
  (-0.248428 -0.00252271 0)
  (-0.24744 -0.0125424 0)
  (-0.229491 -0.0230721 0)
  (-0.19636 -0.0327786 0)
  (-0.152019 -0.0397692 0)
  (-0.102552 -0.0429276 0)
  (-0.0543648 -0.0414184 0)
  (-0.00996625 -0.0328811 0)
  (0.0209089 -0.016867 0)
  (0.031227 -0.000353588 0)
  (0.0172409 0.0238658 0)
  (-0.0180514 0.0128002 0)
  (-0.0403919 -0.0146859 0)
  (-0.0177148 -0.0279593 0)
  (0.0084932 -0.0266755 0)
  (0.0301646 -0.0199228 0)
  (0.0479394 -0.0137215 0)
  (0.0599114 -0.00797597 0)
  (0.0666537 -0.00486385 0)
  (0.0698145 -0.00364438 0)
  (0.0713991 -0.00313871 0)
  (0.0724787 -0.00282229 0)
  (0.0732783 -0.00256278 0)
  (0.0737246 -0.00227416 0)
  (0.0735587 -0.00175343 0)
  (0.0721349 -0.000579907 0)
  (0.0680849 0.00184296 0)
  (0.0598713 0.00479154 0)
  (0.0487998 0.00862653 0)
  (0.000920659 0.0243944 0)
  (0.194655 0.183443 0)
  (-0.159973 0.0754698 0)
  (-0.164409 0.0537599 0)
  (-0.194754 0.0352045 0)
  (-0.210473 0.0138461 0)
  (-0.210464 -0.0101151 0)
  (-0.193958 -0.0350083 0)
  (-0.163894 -0.0563934 0)
  (-0.124983 -0.0700802 0)
  (-0.0829621 -0.0745837 0)
  (-0.043174 -0.069722 0)
  (-0.00848736 -0.0547416 0)
  (0.0183238 -0.0309233 0)
  (0.0357461 -0.0053315 0)
  (0.0443847 0.0210346 0)
  (0.0502444 0.0260382 0)
  (0.0356985 0.0328744 0)
  (0.0466123 0.0452422 0)
  (0.0109791 -0.0211665 0)
  (0.0278862 -0.0386475 0)
  (0.0416351 -0.0370102 0)
  (0.0539175 -0.0291537 0)
  (0.0638504 -0.0199772 0)
  (0.0686176 -0.00903895 0)
  (0.0698454 -0.00255202 0)
  (0.0698952 -7.45365e-06 0)
  (0.0700756 0.000971503 0)
  (0.0703983 0.00149067 0)
  (0.0706495 0.00186765 0)
  (0.0707813 0.00236372 0)
  (0.0707313 0.00338645 0)
  (0.0699358 0.00587877 0)
  (0.0658418 0.0125502 0)
  (0.055675 0.0187865 0)
  (0.0467358 0.0251979 0)
  (-0.0361851 0.0510914 0)
  (0.350844 0.274091 0)
  (-0.17091 0.118555 0)
  (-0.124115 0.0862548 0)
  (-0.153867 0.0545529 0)
  (-0.168369 0.0192379 0)
  (-0.167062 -0.0197867 0)
  (-0.149282 -0.0590948 0)
  (-0.120273 -0.0909376 0)
  (-0.0859373 -0.108992 0)
  (-0.0511728 -0.112518 0)
  (-0.0197773 -0.102561 0)
  (0.0072189 -0.0800798 0)
  (0.0279459 -0.050744 0)
  (0.0439822 -0.0195771 0)
  (0.0544765 0.00965207 0)
  (0.0573541 0.0302821 0)
  (0.0516191 0.0642856 0)
  (0.109927 -0.00628565 0)
  (0.0762381 -0.0346097 0)
  (0.0718818 -0.0451535 0)
  (0.0741649 -0.0436589 0)
  (0.0767255 -0.0361232 0)
  (0.079702 -0.0281828 0)
  (0.0788266 -0.0217493 0)
  (0.0714736 -0.0144722 0)
  (0.065889 -0.0105292 0)
  (0.063325 -0.00830898 0)
  (0.062127 -0.00689242 0)
  (0.0613084 -0.00592526 0)
  (0.0607757 -0.00514157 0)
  (0.0611133 -0.00402449 0)
  (0.0637198 -0.000340317 0)
  (0.0613392 0.0177666 0)
  (0.0479603 0.0305977 0)
  (0.0474235 0.041316 0)
  (-0.0728449 0.0772905 0)
  (0.492843 0.346897 0)
  (-0.199681 0.156162 0)
  (-0.0819702 0.11475 0)
  (-0.109935 0.0721463 0)
  (-0.119977 0.0245301 0)
  (-0.112134 -0.0296985 0)
  (-0.0901769 -0.0832161 0)
  (-0.0622467 -0.123133 0)
  (-0.0343717 -0.14261 0)
  (-0.00881644 -0.143581 0)
  (0.013183 -0.128051 0)
  (0.0303858 -0.101421 0)
  (0.0448801 -0.0681379 0)
  (0.0574338 -0.0332754 0)
  (0.0692216 -0.00056298 0)
  (0.0820694 0.0275014 0)
  (0.100503 0.0594938 0)
  (0.131196 0.0576574 0)
  (0.126351 0.00120258 0)
  (0.110724 -0.0273025 0)
  (0.0997505 -0.0378938 0)
  (0.0915777 -0.0385401 0)
  (0.0848057 -0.0331857 0)
  (0.0794652 -0.024205 0)
  (0.0794478 -0.0141067 0)
  (0.0851457 -0.00919073 0)
  (0.0888674 -0.00637815 0)
  (0.0895063 -0.00448607 0)
  (0.0880034 -0.00278457 0)
  (0.0847171 -0.000970712 0)
  (0.0790576 0.00123588 0)
  (0.0698294 0.00428251 0)
  (0.0533737 0.00897024 0)
  (0.0413093 0.0295364 0)
  (0.0311017 0.0452346 0)
  (0.0483537 0.0585073 0)
  (-0.114341 0.0978769 0)
  (0.616959 0.402881 0)
  (-0.23755 0.185962 0)
  (-0.0405586 0.131777 0)
  (-0.0634457 0.0827047 0)
  (-0.0646957 0.0251723 0)
  (-0.0407129 -0.0449418 0)
  (-0.0142444 -0.108283 0)
  (0.00975952 -0.150243 0)
  (0.0274686 -0.165765 0)
  (0.0406388 -0.161871 0)
  (0.0499215 -0.143013 0)
  (0.0566035 -0.113658 0)
  (0.0620403 -0.0786591 0)
  (0.0674529 -0.0431824 0)
  (0.0744628 -0.0115095 0)
  (0.0841978 0.0131804 0)
  (0.098884 0.0254563 0)
  (0.109796 0.00507069 0)
  (0.108401 -0.0162999 0)
  (0.100566 -0.0266307 0)
  (0.0901216 -0.0303088 0)
  (0.0797113 -0.0296771 0)
  (0.070488 -0.0254454 0)
  (0.0633514 -0.0181635 0)
  (0.059928 -0.00823034 0)
  (0.0598508 -0.00246267 0)
  (0.0599311 0.000307114 0)
  (0.0593043 0.0021715 0)
  (0.058409 0.00421879 0)
  (0.0570502 0.00695764 0)
  (0.054667 0.0107933 0)
  (0.0507127 0.0161979 0)
  (0.0441051 0.0238318 0)
  (0.0371797 0.0381341 0)
  (0.0282608 0.054494 0)
  (0.0560198 0.0732334 0)
  (-0.0315981 0.106367 0)
  (0.0455938 0.0274885 0)
  (-0.0627015 -0.0344286 0)
  (-0.272269 -0.0569625 0)
  (0.709797 0.448474 0)
  (-0.2764 0.204496 0)
  (-0.00702185 0.127801 0)
  (-0.0122162 0.0814988 0)
  (0.0098713 0.00874867 0)
  (0.0500227 -0.0728998 0)
  (0.0748359 -0.131573 0)
  (0.0889393 -0.164915 0)
  (0.0939971 -0.175026 0)
  (0.0926428 -0.166573 0)
  (0.087187 -0.144563 0)
  (0.0800397 -0.113812 0)
  (0.0731504 -0.0787844 0)
  (0.0681529 -0.0446216 0)
  (0.0663542 -0.0156615 0)
  (0.0684547 0.00477483 0)
  (0.0747076 0.0131636 0)
  (0.0790352 0.00527625 0)
  (0.0773032 -0.00576498 0)
  (0.0702637 -0.0142931 0)
  (0.0607099 -0.0187435 0)
  (0.0509229 -0.019366 0)
  (0.0420583 -0.0168265 0)
  (0.0350127 -0.0118734 0)
  (0.0307102 -0.00576018 0)
  (0.0291171 -0.00202067 0)
  (0.0288931 -0.000239826 0)
  (0.0295674 0.00109474 0)
  (0.0308413 0.00302542 0)
  (0.0324487 0.00617665 0)
  (0.0339737 0.0110235 0)
  (0.0352733 0.0179245 0)
  (0.0360684 0.0271246 0)
  (0.0375109 0.0395276 0)
  (0.0371346 0.0545753 0)
  (0.0648557 0.075454 0)
  (0.0428593 0.0950741 0)
  (0.090513 0.0639071 0)
  (0.115446 0.0426648 0)
  (-0.131286 -0.00757716 0)
  (0.774517 0.48954 0)
  (-0.295004 0.18671 0)
  (0.0303461 0.0680215 0)
  (0.064859 0.0336631 0)
  (0.12074 -0.0385443 0)
  (0.156141 -0.104644 0)
  (0.172536 -0.14852 0)
  (0.172737 -0.169029 0)
  (0.160449 -0.16952 0)
  (0.140096 -0.154695 0)
  (0.116023 -0.129748 0)
  (0.09201 -0.0990403 0)
  (0.070543 -0.065808 0)
  (0.0536842 -0.034824 0)
  (0.042345 -0.0100903 0)
  (0.0368079 0.00565872 0)
  (0.0373929 0.0111621 0)
  (0.0381958 0.00690564 0)
  (0.0359345 -0.000591388 0)
  (0.0305394 -0.00692073 0)
  (0.0229381 -0.0103553 0)
  (0.0147985 -0.0109758 0)
  (0.00724565 -0.00940796 0)
  (0.0012282 -0.00640133 0)
  (-0.00240177 -0.00312625 0)
  (-0.00358332 -0.00141857 0)
  (-0.00310982 -0.00100042 0)
  (-0.00131198 -0.000824094 0)
  (0.00197102 0.000184691 0)
  (0.00668461 0.00292157 0)
  (0.0119673 0.00763022 0)
  (0.0181933 0.01422 0)
  (0.0252413 0.0227574 0)
  (0.0342267 0.0331452 0)
  (0.0430879 0.0447293 0)
  (0.0678206 0.0611904 0)
  (0.0813936 0.0687405 0)
  (0.116901 0.0449906 0)
  (0.158024 0.0389862 0)
  (-0.0324997 0.0906596 0)
  (0.884379 0.484635 0)
  (-0.0419139 0.162027 0)
  (0.126768 -0.0272425 0)
  (0.235174 -0.0876724 0)
  (0.27934 -0.117632 0)
  (0.28961 -0.140876 0)
  (0.278935 -0.153922 0)
  (0.251582 -0.154164 0)
  (0.212401 -0.142655 0)
  (0.167106 -0.121856 0)
  (0.121365 -0.0957958 0)
  (0.0796496 -0.0676916 0)
  (0.0440657 -0.0389906 0)
  (0.0179498 -0.0142141 0)
  (0.000469858 0.00290721 0)
  (-0.00547315 0.0104615 0)
  (-0.00589226 0.0116362 0)
  (-0.0059557 0.00808229 0)
  (-0.00808909 0.00290454 0)
  (-0.0120355 -0.00132902 0)
  (-0.0176417 -0.00360027 0)
  (-0.0237876 -0.00412948 0)
  (-0.0294028 -0.00349148 0)
  (-0.0337155 -0.00233729 0)
  (-0.0362311 -0.00146028 0)
  (-0.0370612 -0.00160257 0)
  (-0.036711 -0.00263192 0)
  (-0.0354501 -0.00396946 0)
  (-0.0331909 -0.00491763 0)
  (-0.0295189 -0.0047676 0)
  (-0.0231641 -0.00290506 0)
  (-0.0140838 0.000666216 0)
  (-0.00474111 0.00550605 0)
  (0.00823017 0.0108503 0)
  (0.0202755 0.0152963 0)
  (0.039703 0.0218511 0)
  (0.0568138 0.0160803 0)
  (0.0737541 -0.00893334 0)
  (0.132344 0.0417546 0)
  (-0.431071 0.208438 0)
  (1.03858 0.426663 0)
  (0.494105 0.279419 0)
  (0.512741 0.172323 0)
  (0.536358 0.0735917 0)
  (0.497974 -0.00150561 0)
  (0.432685 -0.0528598 0)
  (0.360521 -0.0805604 0)
  (0.285848 -0.0881831 0)
  (0.211355 -0.0812996 0)
  (0.140342 -0.0645562 0)
  (0.0776524 -0.0433957 0)
  (0.0252341 -0.0213555 0)
  (-0.0183406 -0.000769199 0)
  (-0.0383087 0.0084603 0)
  (-0.046428 0.0119547 0)
  (-0.0486056 0.0127104 0)
  (-0.0484773 0.0116684 0)
  (-0.048549 0.00904953 0)
  (-0.0501314 0.00583113 0)
  (-0.0532161 0.00312237 0)
  (-0.0571422 0.00141348 0)
  (-0.0612757 0.000538115 0)
  (-0.0651035 0.000124794 0)
  (-0.068217 -0.000235084 0)
  (-0.0705121 -0.000914454 0)
  (-0.0723312 -0.00209266 0)
  (-0.0743329 -0.00351895 0)
  (-0.077097 -0.00472411 0)
  (-0.0810155 -0.00512221 0)
  (-0.0865932 -0.00396119 0)
  (-0.0940831 -0.000527729 0)
  (-0.10345 0.00563368 0)
  (-0.114859 0.0146541 0)
  (-0.131866 0.0268594 0)
  (-0.157667 0.0420992 0)
  (-0.194115 0.0588001 0)
  (-0.244264 0.07253 0)
  (-0.300569 0.0798443 0)
  (-0.365193 0.0812127 0)
  (-0.615994 0.0785562 0)
  (-0.077924 -0.0224382 0)
  (0.108335 -0.0580523 0)
  (0.170594 -0.0799855 0)
  (0.145366 -0.0703631 0)
  (0.109405 -0.0520654 0)
  (0.0692731 -0.0331417 0)
  (0.0249312 -0.0145212 0)
  (-0.025386 0.00358756 0)
  (-0.0575732 0.012609 0)
  (-0.0773281 0.0169777 0)
  (-0.0857162 0.0175433 0)
  (-0.088539 0.0161862 0)
  (-0.0887605 0.015026 0)
  (-0.08779 0.0141455 0)
  (-0.0866317 0.0132644 0)
  (-0.0861954 0.0121592 0)
  (-0.0869732 0.0110453 0)
  (-0.0888513 0.0103223 0)
  (-0.0913528 0.0102034 0)
  (-0.0939866 0.0105695 0)
  (-0.0964277 0.0111133 0)
  (-0.0985664 0.0115003 0)
  (-0.100513 0.0114707 0)
  (-0.102515 0.0109254 0)
  (-0.104765 0.00999344 0)
  (-0.107385 0.00904254 0)
  (-0.110453 0.00866238 0)
  (-0.113754 0.00950631 0)
  (-0.117085 0.0123872 0)
  (-0.120344 0.0182626 0)
  (-0.123365 0.0280124 0)
  (-0.126338 0.0420423 0)
  (-0.129687 0.0594703 0)
  (-0.133449 0.0767975 0)
  (-0.134172 0.0850395 0)
  (-0.112294 0.0653433 0)
  (-0.0394487 -0.0230051 0)
  (-0.273165 -0.206301 0)
  (0.0720444 0.172511 0)
  (0.00596775 0.0429404 0)
  (-0.0303036 -0.00925151 0)
  (-0.0643694 -0.0102508 0)
  (-0.0958233 -0.00218145 0)
  (-0.118987 0.00466773 0)
  (-0.132408 0.00934787 0)
  (-0.137435 0.0105997 0)
  (-0.138291 0.00844642 0)
  (-0.136044 0.00572806 0)
  (-0.131792 0.00283036 0)
  (-0.127143 -0.000376996 0)
  (-0.122813 -0.00319882 0)
  (-0.118944 -0.0056256 0)
  (-0.115649 -0.00809834 0)
  (-0.113149 -0.0110635 0)
  (-0.111597 -0.0146498 0)
  (-0.110917 -0.0186773 0)
  (-0.110848 -0.0228013 0)
  (-0.111087 -0.0266615 0)
  (-0.111405 -0.0299576 0)
  (-0.111708 -0.032464 0)
  (-0.112011 -0.0339998 0)
  (-0.112367 -0.0343675 0)
  (-0.112768 -0.0333246 0)
  (-0.113094 -0.0306515 0)
  (-0.113092 -0.0262105 0)
  (-0.112371 -0.0199319 0)
  (-0.110334 -0.0117263 0)
  (-0.106058 -0.00135404 0)
  (-0.0983548 0.0117111 0)
  (-0.086211 0.0279176 0)
  (-0.0693288 0.0463082 0)
  (-0.048301 0.062324 0)
  (-0.0260531 0.0694627 0)
  (0.0170402 0.0470746 0)
  (0.141593 -0.018488 0)
  (-0.203288 -0.109242 0)
  (-0.0685849 -0.325165 0)
  (-0.418532 -0.123928 0)
  (-0.312 0.0607907 0)
  (-0.285712 0.000490961 0)
  (-0.249597 0.000671462 0)
  (-0.243992 0.00915958 0)
  (-0.239757 0.01762 0)
  (-0.232584 0.0252255 0)
  (-0.22169 0.0320952 0)
  (-0.20829 0.0377627 0)
  (-0.194613 0.0421159 0)
  (-0.181939 0.0460602 0)
  (-0.17079 0.0499112 0)
  (-0.161213 0.0538916 0)
  (-0.152817 0.0583046 0)
  (-0.145103 0.0633232 0)
  (-0.13776 0.0690415 0)
  (-0.130723 0.0754633 0)
  (-0.12407 0.082425 0)
  (-0.117892 0.0895446 0)
  (-0.112242 0.0962735 0)
  (-0.107139 0.102043 0)
  (-0.102586 0.106404 0)
  (-0.0985905 0.109064 0)
  (-0.0951799 0.109824 0)
  (-0.0923898 0.108511 0)
  (-0.0902215 0.10501 0)
  (-0.0885684 0.0993957 0)
  (-0.0871201 0.0920831 0)
  (-0.0852194 0.0838926 0)
  (-0.0816478 0.075948 0)
  (-0.0744562 0.069503 0)
  (-0.0613151 0.0658271 0)
  (-0.0408566 0.0660695 0)
  (-0.0135219 0.0705888 0)
  (0.0316014 0.0762126 0)
  (0.0681729 0.0741518 0)
  (0.10458 0.0623373 0)
  (0.161541 0.0394368 0)
  (-0.230158 -0.00540604 0)
)
;

boundaryField
{
  floor
  {
    type noSlip;
  }
  ceiling
  {
    type noSlip;
  }
  sWall
  {
    type noSlip;
  }
  nWall
  {
    type noSlip;
  }
  sideWalls
  {
    type empty;
  }
  glass1
  {
    type noSlip;
  }
  glass2
  {
    type noSlip;
  }
  sun
  {
    type noSlip;
  }
  heatsource1
  {
    type noSlip;
  }
  heatsource2
  {
    type noSlip;
  }
  Table_master
  {
    type noSlip;
  }
  Table_slave
  {
    type noSlip;
  }
  inlet
  {
    type fixedValue;
    value uniform (0.277164 -0.114805 0);
  }
  outlet
  {
    type zeroGradient;
  }
} 	// ************************************************************************* //

