// -*- C++ -*-
// File generated by PyFoam - sorry for the ugliness

FoamFile
{
 version 2.0;
 format ascii;
 class volVectorField;
 location "400";
 object U;
}

dimensions [ 0 1 -1 0 0 0 0 ];

internalField nonuniform List<vector> 459
(
  (0.00868647 0.0922386 0)
  (-0.18691 0.0274401 0)
  (-0.218448 0.00859254 0)
  (-0.237999 -0.00637807 0)
  (-0.231786 -0.0224042 0)
  (-0.19909 -0.0402513 0)
  (-0.144406 -0.0570149 0)
  (-0.0777218 -0.0676055 0)
  (0.00204454 -0.0629181 0)
  (0.0624974 -0.0458955 0)
  (0.102731 -0.0303164 0)
  (0.12694 -0.0158615 0)
  (0.131745 -0.00136351 0)
  (0.112884 0.0193228 0)
  (0.0854816 0.06326 0)
  (-0.0358532 0.0172671 0)
  (-0.0551703 -0.0119291 0)
  (-0.031476 -0.0307316 0)
  (-0.0013397 -0.0370006 0)
  (0.0333566 -0.0306861 0)
  (0.0601638 -0.0223394 0)
  (0.0794184 -0.0130557 0)
  (0.0909656 -0.00796921 0)
  (0.0966296 -0.00600979 0)
  (0.0995378 -0.00519518 0)
  (0.101552 -0.00465502 0)
  (0.103089 -0.00418852 0)
  (0.104034 -0.00367075 0)
  (0.103975 -0.00280865 0)
  (0.101918 -0.0010045 0)
  (0.0958918 0.00258539 0)
  (0.083517 0.00750125 0)
  (0.0632949 0.0148185 0)
  (0.0273405 0.0311398 0)
  (0.17387 0.192465 0)
  (-0.164104 0.0835952 0)
  (-0.173215 0.0487985 0)
  (-0.194867 0.016441 0)
  (-0.191081 -0.0210965 0)
  (-0.161992 -0.0612254 0)
  (-0.113941 -0.0943498 0)
  (-0.0574948 -0.110736 0)
  (0.00241608 -0.10152 0)
  (0.0508551 -0.075227 0)
  (0.0859382 -0.0469828 0)
  (0.108319 -0.0191214 0)
  (0.118555 0.00886889 0)
  (0.119512 0.0387028 0)
  (0.11793 0.0772848 0)
  (0.113655 0.0730932 0)
  (0.0734608 0.0686681 0)
  (0.0143388 0.0511148 0)
  (-0.00298177 -0.00771704 0)
  (0.0307325 -0.046937 0)
  (0.0477418 -0.0517668 0)
  (0.0657956 -0.0450523 0)
  (0.081726 -0.0332984 0)
  (0.0899443 -0.0155354 0)
  (0.0922513 -0.00475953 0)
  (0.0924238 -0.000663554 0)
  (0.0927317 0.000826597 0)
  (0.0932844 0.00160395 0)
  (0.0937344 0.00216236 0)
  (0.0939944 0.00290077 0)
  (0.0939693 0.00448405 0)
  (0.0928417 0.00817813 0)
  (0.0872917 0.0174162 0)
  (0.0737969 0.0274487 0)
  (0.0536675 0.0397127 0)
  (0.000921257 0.0637203 0)
  (0.324313 0.286767 0)
  (-0.168077 0.128972 0)
  (-0.131253 0.076728 0)
  (-0.152984 0.0230861 0)
  (-0.148726 -0.0377816 0)
  (-0.119158 -0.1001 0)
  (-0.0756442 -0.146318 0)
  (-0.0291547 -0.163612 0)
  (0.016112 -0.14709 0)
  (0.0519412 -0.112489 0)
  (0.0798621 -0.0734647 0)
  (0.0983146 -0.0351432 0)
  (0.108516 0.00158704 0)
  (0.112578 0.0371992 0)
  (0.113281 0.0708288 0)
  (0.103703 0.0823677 0)
  (0.0827604 0.11714 0)
  (0.0748666 0.00473807 0)
  (0.0786849 -0.0426333 0)
  (0.086516 -0.0626617 0)
  (0.0922048 -0.064905 0)
  (0.0976823 -0.0572064 0)
  (0.10397 -0.0473755 0)
  (0.103945 -0.035697 0)
  (0.0915477 -0.0231722 0)
  (0.0816914 -0.0163072 0)
  (0.0770732 -0.0123924 0)
  (0.0748574 -0.00982852 0)
  (0.0732742 -0.00803039 0)
  (0.072116 -0.00656188 0)
  (0.0722712 -0.00460104 0)
  (0.075993 0.0008775 0)
  (0.0742188 0.0239396 0)
  (0.0602031 0.0424583 0)
  (0.0457571 0.0619594 0)
  (-0.0250994 0.0964998 0)
  (0.459909 0.362165 0)
  (-0.189407 0.168306 0)
  (-0.0900765 0.102627 0)
  (-0.109411 0.0307316 0)
  (-0.0983658 -0.0536554 0)
  (-0.0646796 -0.137472 0)
  (-0.02683 -0.191633 0)
  (0.00849487 -0.205349 0)
  (0.0374773 -0.183041 0)
  (0.0615016 -0.14144 0)
  (0.0798492 -0.0936161 0)
  (0.091658 -0.0471883 0)
  (0.0985034 -0.00504434 0)
  (0.102816 0.0329885 0)
  (0.10888 0.0664614 0)
  (0.12004 0.0901903 0)
  (0.139616 0.124251 0)
  (0.175569 0.100601 0)
  (0.160133 0.0273828 0)
  (0.146874 -0.0240152 0)
  (0.135689 -0.0513072 0)
  (0.124488 -0.058599 0)
  (0.114197 -0.0535809 0)
  (0.104705 -0.0418874 0)
  (0.102846 -0.0240911 0)
  (0.111048 -0.0144131 0)
  (0.115193 -0.0088597 0)
  (0.113226 -0.00521945 0)
  (0.107861 -0.0024342 0)
  (0.100501 -9.95104e-06 0)
  (0.0910183 0.00246359 0)
  (0.0783167 0.00558095 0)
  (0.0574704 0.0104123 0)
  (0.0453552 0.0362088 0)
  (0.0388079 0.0571986 0)
  (0.0402038 0.0802236 0)
  (-0.0479777 0.123953 0)
  (0.577677 0.419814 0)
  (-0.219507 0.19926 0)
  (-0.0518069 0.118548 0)
  (-0.0620206 0.0329778 0)
  (-0.0325838 -0.0756489 0)
  (0.00412839 -0.173712 0)
  (0.0322569 -0.224996 0)
  (0.0514138 -0.230968 0)
  (0.0650016 -0.204023 0)
  (0.0745379 -0.157168 0)
  (0.0802289 -0.103566 0)
  (0.0825391 -0.0526143 0)
  (0.0835738 -0.00863488 0)
  (0.0857057 0.0282289 0)
  (0.093061 0.0574921 0)
  (0.107458 0.0757848 0)
  (0.130326 0.080782 0)
  (0.148526 0.0333171 0)
  (0.149436 -0.00937164 0)
  (0.142787 -0.0335603 0)
  (0.130891 -0.0452155 0)
  (0.116099 -0.0471497 0)
  (0.101336 -0.0415533 0)
  (0.0885989 -0.0300176 0)
  (0.0813158 -0.012178 0)
  (0.0788062 -0.000764853 0)
  (0.0751251 0.00517485 0)
  (0.0700974 0.00846989 0)
  (0.064499 0.010911 0)
  (0.0587513 0.0133448 0)
  (0.0526226 0.0164116 0)
  (0.0458001 0.0208666 0)
  (0.0367593 0.0277323 0)
  (0.0302123 0.04402 0)
  (0.0282361 0.0635524 0)
  (0.0468769 0.0886018 0)
  (0.00700456 0.130316 0)
  (0.0560549 0.0635237 0)
  (-0.0493446 -0.0303155 0)
  (-0.253835 -0.0497786 0)
  (0.669961 0.465237 0)
  (-0.251251 0.217112 0)
  (-0.0171925 0.112383 0)
  (0.00331886 0.0102843 0)
  (0.0529501 -0.11562 0)
  (0.0823515 -0.201402 0)
  (0.0968218 -0.24178 0)
  (0.0992943 -0.240228 0)
  (0.0942537 -0.207821 0)
  (0.0852811 -0.156841 0)
  (0.0749313 -0.10031 0)
  (0.065041 -0.0484261 0)
  (0.0578688 -0.00632773 0)
  (0.0557006 0.0254625 0)
  (0.0617729 0.0469126 0)
  (0.0748958 0.0567196 0)
  (0.0943077 0.052072 0)
  (0.10909 0.0240506 0)
  (0.112387 -0.00114878 0)
  (0.106493 -0.0187701 0)
  (0.0946761 -0.0286523 0)
  (0.0802616 -0.0309379 0)
  (0.065631 -0.0268519 0)
  (0.0526102 -0.0178964 0)
  (0.0430169 -0.00559624 0)
  (0.0363196 0.00360392 0)
  (0.0319794 0.00863822 0)
  (0.0282171 0.0114321 0)
  (0.0249597 0.0136341 0)
  (0.0223064 0.0161279 0)
  (0.0202976 0.0195955 0)
  (0.0191559 0.0247684 0)
  (0.0184184 0.0321418 0)
  (0.0203503 0.0435583 0)
  (0.025633 0.0592749 0)
  (0.0507265 0.0825644 0)
  (0.0476739 0.110277 0)
  (0.0858043 0.076807 0)
  (0.10676 0.0459988 0)
  (-0.119714 7.92638e-05 0)
  (0.752197 0.50484 0)
  (-0.26421 0.195882 0)
  (0.0359456 0.0348366 0)
  (0.110471 -0.0692059 0)
  (0.154773 -0.160495 0)
  (0.170993 -0.221621 0)
  (0.166417 -0.243323 0)
  (0.146116 -0.229082 0)
  (0.116852 -0.190141 0)
  (0.0850925 -0.136799 0)
  (0.0561791 -0.0808684 0)
  (0.033063 -0.0322397 0)
  (0.0173892 0.00328605 0)
  (0.0144794 0.0251399 0)
  (0.0208483 0.0375694 0)
  (0.0331982 0.0415184 0)
  (0.0487667 0.0358982 0)
  (0.0593752 0.019051 0)
  (0.0609661 0.0019873 0)
  (0.0558126 -0.0103972 0)
  (0.0453432 -0.0168011 0)
  (0.0324509 -0.0175263 0)
  (0.0191799 -0.0136529 0)
  (0.00730583 -0.00645126 0)
  (-0.00227822 0.00247591 0)
  (-0.00729264 0.00865103 0)
  (-0.00979433 0.0118693 0)
  (-0.0111385 0.0136506 0)
  (-0.0114787 0.015049 0)
  (-0.0106621 0.0166844 0)
  (-0.00835555 0.0190699 0)
  (-0.00411563 0.02274 0)
  (0.00238755 0.0282399 0)
  (0.0119057 0.0356813 0)
  (0.0235109 0.0459504 0)
  (0.048671 0.0637313 0)
  (0.0664917 0.0797882 0)
  (0.0991222 0.0586755 0)
  (0.142234 0.0429891 0)
  (-0.0564732 0.0862596 0)
  (0.868323 0.488726 0)
  (-0.00580678 0.164451 0)
  (0.155321 -0.055909 0)
  (0.267456 -0.1458 0)
  (0.290051 -0.19431 0)
  (0.27139 -0.218861 0)
  (0.231414 -0.2167 0)
  (0.177323 -0.189306 0)
  (0.117452 -0.146215 0)
  (0.0602239 -0.0945292 0)
  (0.0143081 -0.0446637 0)
  (-0.0171625 -0.00604562 0)
  (-0.0300048 0.0128559 0)
  (-0.0302546 0.0227525 0)
  (-0.0238944 0.0282029 0)
  (-0.0136203 0.0292491 0)
  (-0.00241106 0.0249114 0)
  (0.00428987 0.0147196 0)
  (0.00411275 0.00436766 0)
  (-0.000823898 -0.00303356 0)
  (-0.00981216 -0.00614107 0)
  (-0.0205043 -0.00541134 0)
  (-0.0311825 -0.00190433 0)
  (-0.0401115 0.00302445 0)
  (-0.0454179 0.0077294 0)
  (-0.0476506 0.010854 0)
  (-0.0480951 0.012475 0)
  (-0.0473146 0.0131403 0)
  (-0.0453145 0.013252 0)
  (-0.0418316 0.0130757 0)
  (-0.0364552 0.0128243 0)
  (-0.0287638 0.012701 0)
  (-0.0185955 0.0128863 0)
  (-0.00613589 0.0135778 0)
  (0.00909288 0.0158188 0)
  (0.0307339 0.0242366 0)
  (0.0532619 0.0273881 0)
  (0.075711 0.00634761 0)
  (0.144994 0.0439817 0)
  (-0.419 0.188104 0)
  (1.03305 0.419124 0)
  (0.489707 0.269012 0)
  (0.505031 0.145039 0)
  (0.500166 0.00791713 0)
  (0.437586 -0.0869916 0)
  (0.346471 -0.132496 0)
  (0.250073 -0.137458 0)
  (0.154718 -0.113151 0)
  (0.0662538 -0.075283 0)
  (-0.0108977 -0.0305849 0)
  (-0.0557249 -0.00133366 0)
  (-0.0738751 0.0111185 0)
  (-0.0779476 0.0162797 0)
  (-0.0758756 0.0192139 0)
  (-0.070234 0.0209078 0)
  (-0.0629564 0.0207774 0)
  (-0.0562523 0.0181883 0)
  (-0.0529232 0.0132243 0)
  (-0.0539955 0.00804946 0)
  (-0.0584881 0.00438079 0)
  (-0.0648231 0.00291932 0)
  (-0.0716735 0.0033442 0)
  (-0.0775258 0.00487271 0)
  (-0.0815834 0.00673022 0)
  (-0.0836327 0.00827157 0)
  (-0.0841613 0.00899676 0)
  (-0.0838874 0.00889034 0)
  (-0.0833428 0.00816096 0)
  (-0.082941 0.00711783 0)
  (-0.0831251 0.00622649 0)
  (-0.0844851 0.00615426 0)
  (-0.087884 0.00774361 0)
  (-0.0946087 0.011967 0)
  (-0.106352 0.0199231 0)
  (-0.1246 0.0326412 0)
  (-0.150199 0.0500581 0)
  (-0.187951 0.068536 0)
  (-0.239845 0.0835615 0)
  (-0.311237 0.0921715 0)
  (-0.561532 0.0865372 0)
  (0.0181066 -0.0679297 0)
  (0.149346 -0.105051 0)
  (0.163329 -0.1146 0)
  (0.10485 -0.0935594 0)
  (0.0368554 -0.0595157 0)
  (-0.0376973 -0.0168078 0)
  (-0.0881521 0.00585566 0)
  (-0.116412 0.0161899 0)
  (-0.125738 0.0182432 0)
  (-0.127261 0.0180912 0)
  (-0.12524 0.0177712 0)
  (-0.121443 0.0180461 0)
  (-0.116647 0.0186707 0)
  (-0.111705 0.0190423 0)
  (-0.107718 0.0186903 0)
  (-0.105867 0.0175898 0)
  (-0.106473 0.0165271 0)
  (-0.108899 0.0162608 0)
  (-0.112074 0.0171859 0)
  (-0.114999 0.0191548 0)
  (-0.116977 0.0217458 0)
  (-0.117742 0.0245618 0)
  (-0.117365 0.0272835 0)
  (-0.116173 0.0296685 0)
  (-0.114568 0.031579 0)
  (-0.112912 0.0329058 0)
  (-0.111535 0.0335707 0)
  (-0.110736 0.0336165 0)
  (-0.110724 0.0333655 0)
  (-0.111583 0.0336125 0)
  (-0.113253 0.0357502 0)
  (-0.115438 0.0416807 0)
  (-0.117379 0.0531973 0)
  (-0.117911 0.0700987 0)
  (-0.115398 0.0860795 0)
  (-0.101843 0.0835766 0)
  (-0.0704846 0.0267875 0)
  (-0.185493 -0.185008 0)
  (0.122567 0.110075 0)
  (-0.0335932 0.0150482 0)
  (-0.0661382 -0.0265357 0)
  (-0.117448 -0.0253834 0)
  (-0.156646 -0.0151742 0)
  (-0.177359 -0.00875165 0)
  (-0.18255 -0.00877915 0)
  (-0.18224 -0.0106001 0)
  (-0.178499 -0.0136462 0)
  (-0.173865 -0.0165105 0)
  (-0.169045 -0.0184871 0)
  (-0.1641 -0.0195322 0)
  (-0.158998 -0.0202281 0)
  (-0.153923 -0.0213583 0)
  (-0.149317 -0.023628 0)
  (-0.145709 -0.0274284 0)
  (-0.14332 -0.0325817 0)
  (-0.141938 -0.0385733 0)
  (-0.141078 -0.0447681 0)
  (-0.140233 -0.0506856 0)
  (-0.139046 -0.0560858 0)
  (-0.137368 -0.0609217 0)
  (-0.135223 -0.0652729 0)
  (-0.132754 -0.0691836 0)
  (-0.130136 -0.072469 0)
  (-0.127504 -0.0746502 0)
  (-0.12491 -0.0749894 0)
  (-0.122265 -0.0726132 0)
  (-0.119269 -0.0667106 0)
  (-0.115288 -0.0567289 0)
  (-0.109232 -0.0424129 0)
  (-0.0995053 -0.023723 0)
  (-0.0842253 -0.00124798 0)
  (-0.0622521 0.0219994 0)
  (-0.0356891 0.0381616 0)
  (0.00691037 0.0219698 0)
  (0.126807 -0.050311 0)
  (-0.124325 -0.107287 0)
  (0.863152 0.0634541 0)
  (-0.383954 -0.465352 0)
  (-0.356165 0.0607454 0)
  (-0.303426 0.0520063 0)
  (-0.278346 0.057598 0)
  (-0.275531 0.0668353 0)
  (-0.270896 0.075917 0)
  (-0.261869 0.0836628 0)
  (-0.250736 0.0892115 0)
  (-0.239994 0.09379 0)
  (-0.23064 0.0977358 0)
  (-0.222873 0.101375 0)
  (-0.216133 0.104999 0)
  (-0.209681 0.109012 0)
  (-0.20292 0.113892 0)
  (-0.195587 0.120061 0)
  (-0.187786 0.127782 0)
  (-0.179874 0.137064 0)
  (-0.172223 0.1476 0)
  (-0.165061 0.158791 0)
  (-0.15843 0.169915 0)
  (-0.152242 0.180388 0)
  (-0.146344 0.189924 0)
  (-0.140576 0.198523 0)
  (-0.134817 0.206304 0)
  (-0.129018 0.213311 0)
  (-0.123171 0.219368 0)
  (-0.117265 0.224049 0)
  (-0.111226 0.226745 0)
  (-0.104868 0.226801 0)
  (-0.0977908 0.223744 0)
  (-0.0891797 0.217525 0)
  (-0.0776081 0.208747 0)
  (-0.0614139 0.198871 0)
  (-0.0401616 0.190368 0)
  (-0.0148608 0.185789 0)
  (0.0219152 0.185116 0)
  (0.0479452 0.1896 0)
  (0.144694 0.196081 0)
  (-0.315644 0.209437 0)
)
;

boundaryField
{
  floor
  {
    type noSlip;
  }
  ceiling
  {
    type noSlip;
  }
  sWall
  {
    type noSlip;
  }
  nWall
  {
    type noSlip;
  }
  sideWalls
  {
    type empty;
  }
  glass1
  {
    type noSlip;
  }
  glass2
  {
    type noSlip;
  }
  sun
  {
    type noSlip;
  }
  heatsource1
  {
    type noSlip;
  }
  heatsource2
  {
    type noSlip;
  }
  Table_master
  {
    type noSlip;
  }
  Table_slave
  {
    type noSlip;
  }
  inlet
  {
    type fixedValue;
    value uniform (0.277164 -0.114805 0);
  }
  outlet
  {
    type zeroGradient;
  }
} 	// ************************************************************************* //

