// -*- C++ -*-
// File generated by PyFoam - sorry for the ugliness

FoamFile
{
 version 2.0;
 format ascii;
 class volScalarField;
 location "700";
 object T;
}

dimensions [ 0 0 0 1 0 0 0 ];

internalField nonuniform List<scalar> 459
(
  303.568
  303.31
  303.297
  303.293
  303.289
  303.285
  303.28
  303.275
  303.266
  303.255
  303.243
  303.232
  303.224
  303.22
  303.222
  303.314
  303.293
  303.285
  303.288
  303.291
  303.295
  303.299
  303.303
  303.307
  303.311
  303.315
  303.319
  303.323
  303.327
  303.33
  303.334
  303.339
  303.345
  303.363
  303.742
  303.353
  303.329
  303.332
  303.335
  303.335
  303.333
  303.326
  303.311
  303.288
  303.262
  303.238
  303.22
  303.209
  303.205
  303.203
  303.202
  303.315
  303.277
  303.271
  303.274
  303.278
  303.283
  303.285
  303.287
  303.289
  303.29
  303.292
  303.293
  303.295
  303.297
  303.299
  303.303
  303.31
  303.319
  303.348
  303.924
  303.403
  303.365
  303.375
  303.389
  303.399
  303.404
  303.398
  303.375
  303.336
  303.291
  303.251
  303.221
  303.205
  303.2
  303.201
  303.202
  303.257
  303.255
  303.262
  303.272
  303.282
  303.29
  303.29
  303.29
  303.291
  303.291
  303.292
  303.292
  303.293
  303.293
  303.294
  303.297
  303.302
  303.31
  303.341
  304.107
  303.466
  303.401
  303.417
  303.445
  303.471
  303.49
  303.487
  303.451
  303.389
  303.32
  303.261
  303.22
  303.199
  303.195
  303.199
  303.205
  303.216
  303.229
  303.248
  303.268
  303.286
  303.302
  303.314
  303.324
  303.333
  303.342
  303.349
  303.355
  303.36
  303.364
  303.367
  303.368
  303.345
  303.326
  303.317
  303.341
  304.285
  303.545
  303.443
  303.454
  303.493
  303.537
  303.576
  303.573
  303.519
  303.429
  303.335
  303.261
  303.213
  303.19
  303.188
  303.198
  303.212
  303.229
  303.25
  303.274
  303.298
  303.32
  303.339
  303.354
  303.368
  303.379
  303.388
  303.396
  303.401
  303.403
  303.402
  303.399
  303.393
  303.375
  303.35
  303.33
  303.339
  303.41
  303.457
  303.463
  304.446
  303.648
  303.516
  303.506
  303.543
  303.599
  303.648
  303.627
  303.547
  303.437
  303.329
  303.244
  303.193
  303.174
  303.18
  303.2
  303.226
  303.254
  303.284
  303.313
  303.341
  303.364
  303.384
  303.399
  303.411
  303.421
  303.429
  303.435
  303.438
  303.437
  303.433
  303.425
  303.414
  303.397
  303.372
  303.347
  303.342
  303.372
  303.39
  303.424
  304.594
  303.811
  303.68
  303.651
  303.668
  303.716
  303.717
  303.646
  303.525
  303.39
  303.272
  303.19
  303.151
  303.15
  303.174
  303.213
  303.255
  303.296
  303.333
  303.365
  303.392
  303.414
  303.43
  303.443
  303.453
  303.46
  303.466
  303.469
  303.469
  303.466
  303.458
  303.447
  303.434
  303.416
  303.393
  303.369
  303.357
  303.365
  303.375
  303.404
  304.809
  304.223
  304.078
  303.993
  303.952
  303.889
  303.76
  303.584
  303.4
  303.245
  303.14
  303.092
  303.094
  303.13
  303.185
  303.25
  303.308
  303.356
  303.395
  303.424
  303.445
  303.461
  303.473
  303.482
  303.488
  303.493
  303.495
  303.495
  303.493
  303.489
  303.481
  303.47
  303.456
  303.44
  303.423
  303.406
  303.399
  303.411
  303.429
  303.551
  305.116
  304.839
  304.583
  304.348
  304.117
  303.81
  303.478
  303.199
  303.014
  302.928
  302.921
  302.973
  303.059
  303.152
  303.243
  303.332
  303.389
  303.427
  303.454
  303.474
  303.489
  303.5
  303.508
  303.513
  303.516
  303.518
  303.518
  303.516
  303.514
  303.511
  303.509
  303.509
  303.51
  303.516
  303.529
  303.551
  303.582
  303.613
  303.634
  303.687
  296.335
  298.183
  299.38
  300.245
  300.974
  301.588
  302.086
  302.471
  302.763
  302.996
  303.186
  303.298
  303.374
  303.427
  303.462
  303.486
  303.503
  303.515
  303.524
  303.53
  303.534
  303.537
  303.539
  303.54
  303.54
  303.54
  303.541
  303.541
  303.543
  303.545
  303.549
  303.556
  303.569
  303.587
  303.609
  303.632
  303.651
  303.672
  296.985
  298.814
  300.264
  301.249
  301.871
  302.326
  302.671
  302.927
  303.113
  303.247
  303.347
  303.415
  303.46
  303.49
  303.511
  303.525
  303.535
  303.542
  303.547
  303.55
  303.553
  303.555
  303.556
  303.557
  303.558
  303.559
  303.56
  303.561
  303.562
  303.564
  303.568
  303.573
  303.582
  303.594
  303.609
  303.627
  303.626
  303.655
  299.721
  299.643
  299.638
  301.481
  302.293
  302.682
  302.91
  303.077
  303.206
  303.303
  303.376
  303.43
  303.47
  303.496
  303.514
  303.526
  303.534
  303.539
  303.543
  303.546
  303.548
  303.55
  303.552
  303.554
  303.556
  303.558
  303.56
  303.562
  303.564
  303.566
  303.568
  303.57
  303.573
  303.576
  303.581
  303.59
  303.599
  303.605
  303.607
  303.646
)
;

boundaryField
{
  floor
  {
    type wallHeatTransfer;
    Tinf uniform 305.2;
    alphaWall uniform 0.24;
    value nonuniform List<scalar> 29
(
  303.414
  303.671
  303.608
  303.577
  303.58
  303.59
  303.604
  303.621
  303.639
  303.657
  303.675
  303.692
  303.709
  303.725
  303.74
  303.755
  303.771
  303.788
  303.803
  303.843
  303.843
  303.761
  303.72
  303.696
  303.414
  303.671
  303.653
  303.47
  303.381
)
;
  }
  ceiling
  {
    type wallHeatTransfer;
    Tinf uniform 303.2;
    alphaWall uniform 0.24;
    value nonuniform List<scalar> 43
(
  299.969
  299.884
  299.872
  301.588
  302.351
  302.716
  302.929
  303.086
  303.205
  303.295
  303.361
  303.409
  303.442
  303.463
  303.476
  303.483
  303.488
  303.491
  303.493
  303.494
  303.495
  303.497
  303.498
  303.5
  303.502
  303.504
  303.507
  303.51
  303.513
  303.516
  303.52
  303.523
  303.528
  303.533
  303.539
  303.55
  303.559
  303.563
  303.563
  303.595
  305.027
  304.774
  297.386
)
;
  }
  sWall
  {
    type wallHeatTransfer;
    Tinf uniform 315.2;
    alphaWall uniform 0.36;
    value uniform 301.321;
  }
  nWall
  {
    type wallHeatTransfer;
    Tinf uniform 307.2;
    alphaWall uniform 0.36;
    value nonuniform List<scalar> 6
(
  304.166
  304.114
  304.038
  304.183
  304.161
  304.225
)
;
  }
  sideWalls
  {
    type empty;
  }
  glass1
  {
    type wallHeatTransfer;
    Tinf uniform 315.2;
    alphaWall uniform 4.3;
    value nonuniform List<scalar> 9
(
  311.516
  310.887
  310.491
  310.189
  309.937
  309.709
  309.541
  309.613
  309.839
)
;
  }
  glass2
  {
    type wallHeatTransfer;
    Tinf uniform 307.2;
    alphaWall uniform 4.3;
    value nonuniform List<scalar> 2
(
  305.823
  305.917
)
;
  }
  sun
  {
    type wallHeatTransfer;
    Tinf uniform 305.2;
    alphaWall uniform 0.24;
    value nonuniform List<scalar> 14
(
  303.74
  303.496
  303.482
  303.472
  303.462
  303.454
  303.445
  303.435
  303.425
  303.413
  303.403
  303.396
  303.395
  303.401
)
;
  }
  heatsource1
  {
    type fixedGradient;
    gradient uniform 0;
  }
  heatsource2
  {
    type fixedGradient;
    gradient uniform 0;
  }
  Table_master
  {
    type zeroGradient;
  }
  Table_slave
  {
    type zeroGradient;
  }
  inlet
  {
    type fixedValue;
    value uniform 293.15;
  }
  outlet
  {
    type zeroGradient;
  }
} 	// ************************************************************************* //

