// -*- C++ -*-
// File generated by PyFoam - sorry for the ugliness

FoamFile
{
 version 2.0;
 format ascii;
 class volVectorField;
 location "690";
 object U;
}

dimensions [ 0 1 -1 0 0 0 0 ];

internalField nonuniform List<vector> 459
(
  (0.0350885 0.0698058 0)
  (-0.135278 0.0199706 0)
  (-0.154597 0.0162472 0)
  (-0.182947 0.0128336 0)
  (-0.206542 0.00892761 0)
  (-0.224895 0.00476972 0)
  (-0.237319 0.00028363 0)
  (-0.242878 -0.0046812 0)
  (-0.240221 -0.0102752 0)
  (-0.228575 -0.0167315 0)
  (-0.207404 -0.0237829 0)
  (-0.176608 -0.0311493 0)
  (-0.136742 -0.0392246 0)
  (-0.0920705 -0.0497572 0)
  (-0.0591793 -0.0642729 0)
  (-0.0955 -0.000304853 0)
  (0.0383017 -0.0111362 0)
  (0.0420932 -0.00921243 0)
  (0.0433534 -0.00498545 0)
  (0.0456681 -0.00138519 0)
  (0.045075 0.00080802 0)
  (0.0420038 0.000662474 0)
  (0.0394867 0.000193312 0)
  (0.0384209 0.000190802 0)
  (0.0379126 0.000331877 0)
  (0.0373439 0.000410844 0)
  (0.0366095 0.000475314 0)
  (0.0356343 0.00065406 0)
  (0.0341049 0.00114132 0)
  (0.031419 0.00232768 0)
  (0.0266561 0.00473477 0)
  (0.0204187 0.00633115 0)
  (-0.0474762 0.0120315 0)
  (0.141502 -0.0106188 0)
  (0.184795 0.143745 0)
  (-0.132118 0.0526606 0)
  (-0.128469 0.0464327 0)
  (-0.158415 0.0399937 0)
  (-0.181822 0.0326419 0)
  (-0.200093 0.0245557 0)
  (-0.212777 0.0154158 0)
  (-0.219037 0.00480828 0)
  (-0.217472 -0.00755882 0)
  (-0.207643 -0.0211703 0)
  (-0.189696 -0.0346537 0)
  (-0.164645 -0.0465316 0)
  (-0.13503 -0.0561285 0)
  (-0.106342 -0.0636236 0)
  (-0.0859631 -0.0655962 0)
  (-0.0636009 -0.043219 0)
  (-0.0264162 -0.0275385 0)
  (-0.113733 -0.010442 0)
  (0.039133 -0.0289582 0)
  (0.0446808 -0.0193435 0)
  (0.0468831 -0.00830813 0)
  (0.048019 0.00060083 0)
  (0.045721 0.00596933 0)
  (0.0424635 0.00306714 0)
  (0.0417356 0.000882438 0)
  (0.0422742 0.000452687 0)
  (0.0426557 0.000650639 0)
  (0.0427739 0.000951119 0)
  (0.0428428 0.00137643 0)
  (0.0429066 0.00210676 0)
  (0.0428505 0.00345543 0)
  (0.0421451 0.00621249 0)
  (0.0385283 0.0130724 0)
  (0.0359757 0.017812 0)
  (-0.0414699 0.02203 0)
  (0.198553 0.00017584 0)
  (0.322486 0.216524 0)
  (-0.151688 0.0857403 0)
  (-0.0987602 0.0761789 0)
  (-0.128925 0.0635392 0)
  (-0.149609 0.050796 0)
  (-0.16615 0.0371753 0)
  (-0.178104 0.0219307 0)
  (-0.18447 0.00444434 0)
  (-0.183311 -0.0154193 0)
  (-0.174023 -0.0368423 0)
  (-0.15726 -0.0573956 0)
  (-0.134601 -0.0743752 0)
  (-0.108771 -0.0860712 0)
  (-0.0832907 -0.0912225 0)
  (-0.0604952 -0.0860691 0)
  (-0.0375857 -0.0651749 0)
  (-0.0132827 -0.0495178 0)
  (-0.0212889 -0.0488464 0)
  (0.0403418 -0.0414717 0)
  (0.0534634 -0.0276183 0)
  (0.054231 -0.012039 0)
  (0.0527087 0.00225386 0)
  (0.0466807 0.0139971 0)
  (0.0384771 0.00644331 0)
  (0.0400109 0.00267659 0)
  (0.0426354 0.000666113 0)
  (0.0437865 -0.00051163 0)
  (0.0442296 -0.00134615 0)
  (0.0447233 -0.0019091 0)
  (0.0456187 -0.00210736 0)
  (0.0474872 -0.00166477 0)
  (0.0516993 0.00104306 0)
  (0.0508595 0.0165623 0)
  (0.0490533 0.0258788 0)
  (-0.0186595 0.0304894 0)
  (0.218302 0.026899 0)
  (0.446768 0.275994 0)
  (-0.185575 0.115902 0)
  (-0.0659559 0.101961 0)
  (-0.0968374 0.0838877 0)
  (-0.112207 0.0677055 0)
  (-0.125153 0.0505338 0)
  (-0.135242 0.0308817 0)
  (-0.14115 0.00756957 0)
  (-0.139826 -0.0197505 0)
  (-0.130483 -0.0491148 0)
  (-0.114852 -0.0763717 0)
  (-0.0950083 -0.0977634 0)
  (-0.0733644 -0.111208 0)
  (-0.0518288 -0.115449 0)
  (-0.0311959 -0.108232 0)
  (-0.010929 -0.0894143 0)
  (0.00897538 -0.0712464 0)
  (0.0489448 -0.116242 0)
  (0.0676027 -0.0726851 0)
  (0.067266 -0.0480309 0)
  (0.0624192 -0.0301759 0)
  (0.059036 -0.0131029 0)
  (0.0589143 0.0025224 0)
  (0.0611333 0.0158765 0)
  (0.0651994 0.0119315 0)
  (0.0600698 0.00670134 0)
  (0.0544345 0.00362309 0)
  (0.050903 0.00182078 0)
  (0.0483848 0.000677864 0)
  (0.0458426 2.94413e-05 0)
  (0.0427952 -0.000134732 0)
  (0.0386702 0.000249927 0)
  (0.0303786 0.00146685 0)
  (0.0327825 0.0209511 0)
  (0.0433387 0.0308217 0)
  (-0.00951845 0.0344912 0)
  (0.233692 0.0592715 0)
  (0.555594 0.322872 0)
  (-0.225325 0.141603 0)
  (-0.0314238 0.118335 0)
  (-0.0631603 0.0970661 0)
  (-0.0714731 0.0791974 0)
  (-0.0788698 0.0600023 0)
  (-0.0853546 0.0374224 0)
  (-0.0894929 0.00956874 0)
  (-0.0861584 -0.0243703 0)
  (-0.0758201 -0.0608774 0)
  (-0.0619596 -0.0931422 0)
  (-0.0465163 -0.116986 0)
  (-0.0310765 -0.130895 0)
  (-0.0162538 -0.134648 0)
  (-0.00189056 -0.127 0)
  (0.0129639 -0.108259 0)
  (0.0285375 -0.0849552 0)
  (0.044902 -0.0631379 0)
  (0.0524865 -0.0513515 0)
  (0.0500447 -0.0380424 0)
  (0.046292 -0.02352 0)
  (0.0439214 -0.00921976 0)
  (0.0439076 0.00296895 0)
  (0.0459513 0.0104676 0)
  (0.0464667 0.00781555 0)
  (0.0439867 0.00503014 0)
  (0.0407899 0.00405465 0)
  (0.0381397 0.00388762 0)
  (0.0358387 0.00400018 0)
  (0.0335353 0.00443033 0)
  (0.0311287 0.00532975 0)
  (0.0286226 0.00686849 0)
  (0.0254885 0.00931191 0)
  (0.025864 0.0175045 0)
  (0.0381554 0.02472 0)
  (0.0135808 0.0233093 0)
  (0.114802 0.0564829 0)
  (0.0834894 0.0551045 0)
  (-0.0938998 0.056914 0)
  (0.328603 -0.0210004 0)
  (0.637091 0.362737 0)
  (-0.264259 0.160461 0)
  (-0.00172591 0.119578 0)
  (-0.0282853 0.102693 0)
  (-0.0294822 0.0850091 0)
  (-0.0306014 0.0649205 0)
  (-0.0321053 0.0414329 0)
  (-0.0328801 0.0112799 0)
  (-0.022375 -0.0294961 0)
  (-0.0105012 -0.0720149 0)
  (1.9148e-06 -0.106554 0)
  (0.0088607 -0.130198 0)
  (0.0158372 -0.142638 0)
  (0.0214936 -0.145042 0)
  (0.0262171 -0.137109 0)
  (0.0310228 -0.119627 0)
  (0.0361636 -0.0964782 0)
  (0.039874 -0.073609 0)
  (0.0390632 -0.0552062 0)
  (0.034348 -0.0375437 0)
  (0.0291704 -0.0215159 0)
  (0.0255526 -0.00803389 0)
  (0.0241739 0.00233649 0)
  (0.0251976 0.0084683 0)
  (0.025847 0.00890715 0)
  (0.0251324 0.00765196 0)
  (0.0236398 0.00672792 0)
  (0.0220636 0.00621818 0)
  (0.0205736 0.00601756 0)
  (0.0191649 0.00620394 0)
  (0.0179161 0.00688384 0)
  (0.0169813 0.00811747 0)
  (0.0162826 0.00987779 0)
  (0.0174177 0.0130797 0)
  (0.0244456 0.0153028 0)
  (0.0122637 0.00631332 0)
  (0.0388133 0.0330263 0)
  (0.042548 0.0551676 0)
  (-0.13267 0.0724532 0)
  (0.344154 -0.0392459 0)
  (0.675104 0.398039 0)
  (-0.28754 0.151068 0)
  (0.0200713 0.08676 0)
  (0.0146862 0.0983268 0)
  (0.0169688 0.0877223 0)
  (0.0206912 0.0657267 0)
  (0.0250603 0.0396438 0)
  (0.0325861 0.00429202 0)
  (0.0517919 -0.0425215 0)
  (0.0624785 -0.0829852 0)
  (0.0669382 -0.113426 0)
  (0.0670272 -0.133559 0)
  (0.0639969 -0.143891 0)
  (0.058914 -0.144853 0)
  (0.0526655 -0.136374 0)
  (0.0462714 -0.119034 0)
  (0.0402001 -0.0956709 0)
  (0.0337745 -0.0711576 0)
  (0.0259913 -0.0493313 0)
  (0.0175151 -0.0308243 0)
  (0.0103085 -0.0160871 0)
  (0.00572398 -0.00496558 0)
  (0.00395632 0.00295495 0)
  (0.00483114 0.00761223 0)
  (0.00591684 0.00877135 0)
  (0.00626807 0.00824833 0)
  (0.00597127 0.00753557 0)
  (0.00540164 0.00703373 0)
  (0.00480374 0.00677982 0)
  (0.00434654 0.00680441 0)
  (0.004231 0.00713668 0)
  (0.0046745 0.00777042 0)
  (0.00571933 0.00862906 0)
  (0.00789187 0.00997443 0)
  (0.0119178 0.0112645 0)
  (0.00542915 0.00964279 0)
  (0.0122866 0.0332388 0)
  (0.0316774 0.0737953 0)
  (-0.180664 0.088857 0)
  (0.43106 -0.0466916 0)
  (0.767105 0.406492 0)
  (-0.0999187 0.123147 0)
  (0.0746196 0.0199887 0)
  (0.107423 0.0342819 0)
  (0.0988086 0.0433116 0)
  (0.0971386 0.0302708 0)
  (0.10338 0.00393343 0)
  (0.124573 -0.0300556 0)
  (0.139651 -0.0620236 0)
  (0.142515 -0.0900369 0)
  (0.13653 -0.111841 0)
  (0.124858 -0.126301 0)
  (0.109522 -0.13304 0)
  (0.0920129 -0.131937 0)
  (0.0735593 -0.12272 0)
  (0.0554262 -0.105693 0)
  (0.0385533 -0.0828808 0)
  (0.0234035 -0.0586109 0)
  (0.00992193 -0.0372012 0)
  (-0.00132735 -0.0204396 0)
  (-0.00904721 -0.00895599 0)
  (-0.0132635 -0.00140431 0)
  (-0.0146506 0.00369205 0)
  (-0.0139199 0.00679809 0)
  (-0.0127372 0.00807236 0)
  (-0.0118646 0.00820057 0)
  (-0.0114068 0.0079363 0)
  (-0.0111669 0.00761558 0)
  (-0.0109203 0.00732861 0)
  (-0.0104513 0.00709605 0)
  (-0.00952796 0.00691938 0)
  (-0.00790761 0.00680462 0)
  (-0.00539113 0.00680423 0)
  (-0.0016197 0.00731391 0)
  (0.00367056 0.00923243 0)
  (0.0056903 0.0127692 0)
  (0.0158139 0.0331654 0)
  (0.0526668 0.0747864 0)
  (-0.144139 0.0745701 0)
  (0.717441 0.00374628 0)
  (0.887576 0.409097 0)
  (0.427654 0.290244 0)
  (0.426771 0.23025 0)
  (0.402507 0.169699 0)
  (0.351762 0.125554 0)
  (0.312113 0.08381 0)
  (0.291957 0.042514 0)
  (0.276729 0.00179569 0)
  (0.25481 -0.0351237 0)
  (0.229086 -0.0646529 0)
  (0.201424 -0.085964 0)
  (0.172492 -0.099595 0)
  (0.142531 -0.106021 0)
  (0.111952 -0.105249 0)
  (0.0814892 -0.0968943 0)
  (0.0524962 -0.0813259 0)
  (0.0264293 -0.0602994 0)
  (0.00510596 -0.0380378 0)
  (-0.0108444 -0.0195882 0)
  (-0.0206619 -0.00802791 0)
  (-0.026713 -0.000703166 0)
  (-0.0299593 0.00388121 0)
  (-0.0307723 0.00682316 0)
  (-0.0302016 0.00875596 0)
  (-0.0290911 0.00983284 0)
  (-0.0279529 0.0102401 0)
  (-0.0269482 0.0102447 0)
  (-0.0260234 0.0100182 0)
  (-0.0250592 0.00963446 0)
  (-0.0239166 0.00911261 0)
  (-0.0224359 0.00845203 0)
  (-0.0204269 0.00767189 0)
  (-0.0176536 0.00686446 0)
  (-0.0137349 0.00630171 0)
  (-0.0082785 0.00681522 0)
  (-0.00110262 0.00973905 0)
  (0.0148021 0.022664 0)
  (0.0516266 0.0528518 0)
  (-0.108732 0.0439321 0)
  (0.706607 0.0443149 0)
  (0.129524 0.0876738 0)
  (0.243296 0.124958 0)
  (0.280991 0.110716 0)
  (0.281379 0.0811367 0)
  (0.278279 0.04918 0)
  (0.2717 0.0214235 0)
  (0.257821 -0.0038759 0)
  (0.236581 -0.028392 0)
  (0.209035 -0.050032 0)
  (0.176287 -0.0666692 0)
  (0.14019 -0.076833 0)
  (0.102911 -0.0795422 0)
  (0.0661048 -0.074093 0)
  (0.0316694 -0.0613431 0)
  (0.00141137 -0.0429078 0)
  (-0.0198665 -0.0243955 0)
  (-0.0318862 -0.011093 0)
  (-0.0384056 -0.00181749 0)
  (-0.041705 0.00419046 0)
  (-0.0430856 0.00703361 0)
  (-0.0431366 0.00872906 0)
  (-0.0423911 0.0098174 0)
  (-0.041201 0.0103779 0)
  (-0.0398417 0.0104657 0)
  (-0.0384618 0.0101897 0)
  (-0.0371088 0.00964677 0)
  (-0.0357852 0.00889389 0)
  (-0.0344783 0.00794879 0)
  (-0.0331659 0.00680002 0)
  (-0.0318227 0.00541118 0)
  (-0.0304746 0.00365367 0)
  (-0.0292685 0.000985717 0)
  (-0.0278377 -0.00112123 0)
  (-0.0245068 9.09124e-05 0)
  (-0.0146317 0.0101835 0)
  (-0.0045974 0.0316887 0)
  (-0.155785 0.0249416 0)
  (0.430111 0.0707689 0)
  (-0.0134421 0.147493 0)
  (0.104665 0.121236 0)
  (0.149358 0.0727697 0)
  (0.179624 0.0280325 0)
  (0.201159 -0.0159784 0)
  (0.211313 -0.0593999 0)
  (0.20874 -0.0951105 0)
  (0.191531 -0.112428 0)
  (0.162712 -0.116327 0)
  (0.127455 -0.111454 0)
  (0.0907614 -0.10203 0)
  (0.0564998 -0.0915923 0)
  (0.0258878 -0.0847468 0)
  (-0.000133618 -0.0815729 0)
  (-0.0199998 -0.0821614 0)
  (-0.0331636 -0.0846695 0)
  (-0.0419716 -0.0870068 0)
  (-0.0473297 -0.087824 0)
  (-0.0499168 -0.0871874 0)
  (-0.0507684 -0.0861711 0)
  (-0.0507957 -0.0853763 0)
  (-0.0502357 -0.0846599 0)
  (-0.0492313 -0.0840716 0)
  (-0.0479467 -0.0836871 0)
  (-0.0465308 -0.083535 0)
  (-0.0450961 -0.0836317 0)
  (-0.0437302 -0.0840168 0)
  (-0.042514 -0.084768 0)
  (-0.0415436 -0.0859923 0)
  (-0.0409797 -0.087786 0)
  (-0.0411964 -0.0901303 0)
  (-0.0429474 -0.0925396 0)
  (-0.0463265 -0.0944572 0)
  (-0.0485996 -0.0923622 0)
  (-0.0476083 -0.0776489 0)
  (-0.057423 -0.048947 0)
  (-0.126543 -0.0355112 0)
  (0.342195 -0.00943367 0)
  (0.12174 -0.194188 0)
  (-0.255162 -0.0264141 0)
  (-0.162339 0.234207 0)
  (-0.0734174 0.225517 0)
  (-0.00415885 0.217793 0)
  (0.0500109 0.223797 0)
  (0.0826395 0.237907 0)
  (0.0991258 0.263602 0)
  (0.101512 0.292658 0)
  (0.0956781 0.302306 0)
  (0.0825792 0.298186 0)
  (0.0641772 0.286314 0)
  (0.0417311 0.27346 0)
  (0.0169436 0.267064 0)
  (-0.0123706 0.27573 0)
  (-0.0284735 0.283183 0)
  (-0.0405865 0.291226 0)
  (-0.0483919 0.299888 0)
  (-0.0530966 0.30732 0)
  (-0.055743 0.311553 0)
  (-0.057001 0.313045 0)
  (-0.0573007 0.313761 0)
  (-0.0569533 0.31441 0)
  (-0.0561647 0.314842 0)
  (-0.0550859 0.3151 0)
  (-0.0538821 0.315243 0)
  (-0.0527106 0.315297 0)
  (-0.0517126 0.315282 0)
  (-0.0510152 0.315238 0)
  (-0.0507325 0.315244 0)
  (-0.0509713 0.315443 0)
  (-0.0518814 0.316054 0)
  (-0.0536809 0.31732 0)
  (-0.0561722 0.318918 0)
  (-0.057804 0.320285 0)
  (-0.056376 0.31775 0)
  (-0.057433 0.304572 0)
  (-0.085806 0.285175 0)
  (-0.151987 0.283347 0)
  (0.437828 0.321686 0)
)
;

boundaryField
{
  floor
  {
    type noSlip;
  }
  ceiling
  {
    type noSlip;
  }
  sWall
  {
    type noSlip;
  }
  nWall
  {
    type noSlip;
  }
  sideWalls
  {
    type empty;
  }
  glass1
  {
    type noSlip;
  }
  glass2
  {
    type noSlip;
  }
  sun
  {
    type noSlip;
  }
  heatsource1
  {
    type noSlip;
  }
  heatsource2
  {
    type noSlip;
  }
  Table_master
  {
    type noSlip;
  }
  Table_slave
  {
    type noSlip;
  }
  inlet
  {
    type fixedValue;
    value uniform (0.277164 -0.114805 0);
  }
  outlet
  {
    type zeroGradient;
  }
} 	// ************************************************************************* //

