/*--------------------------------*- C++ -*----------------------------------*\
  =========                 |
  \\      /  F ield         | OpenFOAM: The Open Source CFD Toolbox
   \\    /   O peration     | Website:  https://openfoam.org
    \\  /    A nd           | Version:  6
     \\/     M anipulation  |
\*---------------------------------------------------------------------------*/
FoamFile
{
    version     2.0;
    format      ascii;
    class       volScalarField;
    location    "600";
    object      nut;
}
// * * * * * * * * * * * * * * * * * * * * * * * * * * * * * * * * * * * * * //

dimensions      [0 2 -1 0 0 0 0];

internalField   nonuniform List<scalar> 
459
(
0.00122491
0.00137656
0.00149131
0.00150165
0.00125588
0.00104714
0.000907729
0.000810363
0.00075065
0.000711095
0.000689648
0.000680033
0.000676772
0.000675237
0.000668705
0.000287811
0.000324942
0.000339481
0.000312453
0.000274245
0.000253909
0.000228098
0.000224752
0.000233228
0.000248612
0.000267543
0.000283055
0.000284672
0.000283633
0.000280741
0.000279905
0.000276739
0.000265132
0.0002402
0.00137429
0.00277482
0.00451686
0.00608048
0.00606658
0.00513117
0.0039246
0.0031417
0.00300723
0.00316815
0.00309669
0.00286465
0.00256925
0.00214886
0.0015077
0.000744697
0.000497764
0.000477993
0.000908888
0.00108634
0.00107766
0.000902344
0.000686492
0.000417876
0.000465744
0.000600121
0.000756816
0.000899018
0.000983566
0.000980961
0.000915329
0.000890652
0.0010276
0.000886804
0.0006731
0.00027437
0.00160091
0.002164
0.0025462
0.00318136
0.00412754
0.00477777
0.00500245
0.00464888
0.003854
0.00402381
0.00431128
0.00410374
0.00369865
0.00315694
0.00242363
0.00157053
0.000812656
0.000663199
0.00203188
0.00188856
0.0015249
0.00111986
0.000726274
0.000278866
0.000285387
0.000307818
0.000330065
0.000352035
0.000374856
0.00040091
0.000435695
0.000499626
0.00155886
0.00157722
0.00130102
0.000468097
0.00313946
0.0034419
0.00334162
0.00325064
0.00347103
0.00400116
0.00459858
0.0049291
0.00456953
0.00453235
0.00516113
0.0052356
0.00492168
0.0044406
0.00372971
0.0027351
0.00162222
0.000888782
0.00248266
0.0029562
0.00260737
0.00208569
0.00154183
0.00102695
0.0006409
0.000630855
0.00062512
0.000622163
0.000622953
0.000629401
0.000644478
0.000673039
0.00072799
0.00232448
0.00249493
0.00211497
0.000697578
0.00348257
0.00414834
0.00387552
0.00355074
0.00349555
0.00382047
0.0044048
0.00493387
0.00494029
0.00509768
0.00582409
0.00621986
0.00618228
0.00605897
0.00589783
0.00567026
0.00537584
0.00507856
0.00511456
0.00488729
0.00459515
0.00432285
0.00408338
0.00386501
0.0036729
0.0035699
0.00347157
0.00336682
0.00325435
0.00314259
0.00305174
0.00300757
0.00303091
0.00315974
0.00312333
0.00295662
0.00240088
0.00101558
0.000893166
0.000775139
0.00374875
0.00468175
0.00426891
0.00364853
0.00347823
0.00373337
0.00431484
0.00492833
0.00511673
0.00536574
0.00613076
0.00671549
0.00683265
0.00685119
0.00686622
0.00685374
0.00676921
0.00658326
0.00633135
0.00604255
0.00577973
0.00556497
0.00539325
0.00525036
0.00512131
0.0050003
0.00487771
0.00474041
0.00457006
0.00435328
0.00410182
0.00385974
0.00366729
0.00351774
0.00337077
0.00319936
0.00294132
0.00241784
0.00185767
0.00083834
0.00403438
0.00479536
0.00407422
0.00349442
0.00342012
0.00370453
0.00430381
0.00494441
0.00520846
0.00544517
0.00611243
0.00677417
0.0070001
0.00707307
0.00713837
0.00718889
0.00717489
0.00705757
0.00684936
0.0066011
0.00636278
0.00615728
0.00598708
0.00584513
0.00572243
0.00561673
0.00552958
0.00545365
0.00536317
0.00521014
0.00494861
0.00459545
0.00423198
0.00389996
0.00357845
0.00322591
0.00279748
0.0022755
0.00171047
0.000846023
0.00441117
0.00491706
0.00440046
0.00319887
0.00354207
0.00386102
0.00437919
0.00496438
0.00525565
0.00537565
0.00581144
0.00644731
0.00679861
0.00691317
0.00699413
0.00706721
0.00709474
0.00704128
0.006906
0.00672107
0.00652423
0.00633951
0.00617665
0.00603651
0.00591785
0.00582495
0.00576837
0.00575863
0.00579635
0.00585107
0.00583664
0.00565424
0.00532728
0.00491479
0.0044394
0.0038987
0.0033359
0.00284094
0.00242774
0.00134393
0.00501453
0.00602478
0.00909912
0.00393709
0.00358745
0.00435711
0.0046751
0.00512327
0.00537346
0.00536841
0.00557657
0.00599508
0.00633207
0.00648918
0.00658774
0.00666597
0.00671245
0.00670531
0.00663788
0.00652442
0.00638788
0.00624767
0.00611574
0.0059976
0.00589595
0.00581564
0.00576648
0.00576366
0.00582786
0.00597915
0.00620944
0.00641066
0.00653522
0.00658226
0.00662554
0.00672112
0.0066654
0.00595912
0.00525159
0.00153959
0.0156469
0.00806072
0.0035999
0.00496496
0.00526467
0.00553944
0.00561793
0.00555082
0.00563881
0.00586818
0.00606873
0.00617173
0.00624558
0.00630827
0.00635204
0.00636514
0.00634269
0.00628971
0.00621742
0.00613755
0.00605912
0.00598778
0.00592674
0.00587892
0.00584918
0.00584602
0.00588306
0.00597849
0.00614437
0.00634262
0.00657446
0.00681709
0.00701855
0.0070913
0.00686955
0.00623814
0.00506721
0.00158371
0.00535739
0.00404116
0.00501244
0.00500395
0.00507239
0.00507632
0.00498466
0.00494719
0.00507754
0.00535583
0.00569331
0.00597605
0.00618074
0.00630239
0.00635045
0.00634333
0.00630256
0.00624811
0.00619517
0.00615284
0.00612452
0.00610949
0.00610488
0.00610757
0.00611539
0.00612765
0.00614513
0.00616941
0.00619909
0.00620852
0.00621375
0.00624819
0.00627519
0.0061252
0.00577748
0.00515649
0.00446098
0.00166256
0.0015399
0.00191927
0.00350552
0.00219169
0.0016165
0.00164119
0.00162284
0.00156012
0.00148785
0.00142639
0.00138084
0.00135006
0.00133507
0.00134044
0.00135823
0.0013805
0.00140101
0.00141606
0.0014245
0.00142703
0.00142537
0.00142147
0.001417
0.00141307
0.00141021
0.00140848
0.0014076
0.00140709
0.00140641
0.00140493
0.00140206
0.00139991
0.00139527
0.00138433
0.00136594
0.00134712
0.00131861
0.00126925
0.00124199
0.00127793
)
;

boundaryField
{
    floor
    {
        type            nutkWallFunction;
        Cmu             0.09;
        kappa           0.41;
        E               9.8;
        value           nonuniform List<scalar> 
29
(
8.0871e-05
3.16908e-05
3.67494e-05
3.87074e-05
3.50587e-05
2.98287e-05
2.70008e-05
2.33753e-05
2.29013e-05
2.41006e-05
2.62626e-05
2.88985e-05
3.1041e-05
3.12649e-05
3.1123e-05
3.07253e-05
3.06096e-05
3.0168e-05
2.85647e-05
2.50837e-05
2.50836e-05
2.98394e-05
5.55714e-05
8.44156e-05
8.0871e-05
3.16907e-05
5.68811e-05
8.01949e-05
0.000107568
)
;
    }
    ceiling
    {
        type            nutkWallFunction;
        Cmu             0.09;
        kappa           0.41;
        E               9.8;
        value           nonuniform List<scalar> 
43
(
0.000182792
0.000224874
0.000392735
0.000254427
0.000191287
0.000194039
0.000191987
0.000184969
0.000176848
0.000169909
0.000164744
0.000161245
0.000159537
0.000160148
0.000162173
0.000164704
0.00016703
0.000168735
0.00016969
0.000169977
0.000169789
0.000169348
0.000168841
0.000168396
0.000168073
0.000167877
0.000167776
0.000167718
0.00016764
0.000167472
0.000167145
0.000166901
0.000166375
0.000165132
0.000163044
0.000160902
0.000157652
0.000152006
0.000148879
0.000153002
0.000545127
0.000644532
0.000579072
)
;
    }
    sWall
    {
        type            nutkWallFunction;
        Cmu             0.09;
        kappa           0.41;
        E               9.8;
        value           uniform 0.00018283;
    }
    nWall
    {
        type            nutkWallFunction;
        Cmu             0.09;
        kappa           0.41;
        E               9.8;
        value           nonuniform List<scalar> 6(9.38894e-05 0.000101521 0.000102445 0.000187611 0.000196406 0.000153011);
    }
    sideWalls
    {
        type            empty;
    }
    glass1
    {
        type            nutkWallFunction;
        Cmu             0.09;
        kappa           0.41;
        E               9.8;
        value           nonuniform List<scalar> 9(0.000147033 0.000164117 0.000189815 0.000355214 0.000390757 0.000418084 0.00044719 0.000485273 0.000545601);
    }
    glass2
    {
        type            nutkWallFunction;
        Cmu             0.09;
        kappa           0.41;
        E               9.8;
        value           nonuniform List<scalar> 2(0.00016058 0.000182698);
    }
    sun
    {
        type            nutkWallFunction;
        Cmu             0.09;
        kappa           0.41;
        E               9.8;
        value           nonuniform List<scalar> 
14
(
0.000146915
0.000164243
0.000177224
0.000178366
0.000150457
0.000126272
0.000109811
9.81455e-05
9.0909e-05
8.60793e-05
8.34482e-05
8.2266e-05
8.1865e-05
8.16766e-05
)
;
    }
    heatsource1
    {
        type            nutkWallFunction;
        Cmu             0.09;
        kappa           0.41;
        E               9.8;
        value           nonuniform List<scalar> 3(0.000122582 0.000108086 9.38896e-05);
    }
    heatsource2
    {
        type            nutkWallFunction;
        Cmu             0.09;
        kappa           0.41;
        E               9.8;
        value           nonuniform List<scalar> 4(9.01909e-05 5.94084e-05 5.94084e-05 9.8431e-05);
    }
    Table_master
    {
        type            nutkWallFunction;
        Cmu             0.09;
        kappa           0.41;
        E               9.8;
        value           nonuniform List<scalar> 9(3.04632e-05 3.13612e-05 3.44265e-05 3.74381e-05 4.03867e-05 4.34247e-05 4.68638e-05 5.14101e-05 5.96494e-05);
    }
    Table_slave
    {
        type            nutkWallFunction;
        Cmu             0.09;
        kappa           0.41;
        E               9.8;
        value           nonuniform List<scalar> 9(7.74316e-05 7.61836e-05 7.54702e-05 7.51021e-05 7.52005e-05 7.60031e-05 7.78756e-05 8.14081e-05 8.81541e-05);
    }
    inlet
    {
        type            calculated;
        value           uniform 0.0156469;
    }
    outlet
    {
        type            calculated;
        value           nonuniform List<scalar> 2(0.0015399 0.00191927);
    }
}


// ************************************************************************* //
