/*--------------------------------*- C++ -*----------------------------------*\
  =========                 |
  \\      /  F ield         | OpenFOAM: The Open Source CFD Toolbox
   \\    /   O peration     | Website:  https://openfoam.org
    \\  /    A nd           | Version:  6
     \\/     M anipulation  |
\*---------------------------------------------------------------------------*/
FoamFile
{
    version     2.0;
    format      ascii;
    class       surfaceScalarField;
    location    "700";
    object      phi;
}
// * * * * * * * * * * * * * * * * * * * * * * * * * * * * * * * * * * * * * //

dimensions      [1 0 -1 0 0 0 0];

internalField   nonuniform List<scalar> 
852
(
-0.00286446
0.00292319
-0.00374566
0.000881244
-0.00449515
0.000749521
-0.00512902
0.00063391
-0.00561601
0.00048702
-0.00593612
0.000320147
-0.00606582
0.000129734
-0.0059772
-8.85826e-05
-0.00564548
-0.00033169
-0.00507345
-0.000571999
-0.00430117
-0.000772247
-0.00339417
-0.000906966
-0.00241201
-0.000982122
-0.00133931
-0.00107267
-0.00133766
-0.000553235
0.000556478
-0.000106155
-0.000447053
0.000504602
-0.000610729
0.000908813
-0.000404184
0.0011484
-0.000239562
0.00128132
-0.000132889
0.00134443
-6.30931e-05
0.00137379
-2.93298e-05
0.00138887
-1.50557e-05
0.00139633
-7.43735e-06
0.00139842
-2.07332e-06
0.00139549
2.95224e-06
0.00138488
1.06357e-05
0.00135782
2.7082e-05
0.00129253
6.53151e-05
0.00115374
0.000138803
0.000931673
0.00022209
0.000687991
0.000243702
0.000692244
-0.0020511
0.00513199
-0.00297182
0.001802
-0.00376888
0.00154662
-0.00439868
0.00126375
-0.0048763
0.000964667
-0.00519579
0.000639671
-0.00533513
0.000269107
-0.00526387
-0.000159816
-0.00496144
-0.000634086
-0.00444175
-0.00109167
-0.00375789
-0.00145608
-0.00298242
-0.00168242
-0.00219401
-0.0017705
-0.0015216
-0.00174505
-0.00132658
-0.00153265
-0.000428668
-0.000897928
-0.000428681
0.000705413
-0.000140495
0.00102911
-0.00077072
0.00118256
-0.000764148
0.00134398
-0.000565578
0.00146192
-0.000357478
0.00151902
-0.000189955
0.00151931
-6.33635e-05
0.0015188
-2.87891e-05
0.00151947
-1.57033e-05
0.00152033
-8.26956e-06
0.00152088
-2.60376e-06
0.00152072
3.13293e-06
0.00151877
1.26097e-05
0.00151124
3.46392e-05
0.00146967
0.000106899
0.00129597
0.000312527
0.000995324
0.000522759
0.000625329
0.000613717
0.00132826
-0.00145356
0.00682575
-0.00228329
0.00263177
-0.00300004
0.00226341
-0.00354162
0.00180536
-0.00396098
0.00138405
-0.00425414
0.000932867
-0.0043918
0.000406785
-0.00432856
-0.000223031
-0.00403343
-0.000929195
-0.00353701
-0.00158807
-0.00290938
-0.0020837
-0.0022275
-0.00236428
-0.00156804
-0.00242994
-0.00101726
-0.00229581
-0.000604685
-0.0019452
-0.0001528
-0.00134978
-0.000581447
0.00126887
-0.00139981
0.00151453
-0.00101634
0.00152911
-0.000778701
0.00155975
-0.000596191
0.00160236
-0.00040006
0.00159891
-0.000186476
0.00153573
0.00150712
0.00149159
0.0014835
0.00148107
0.00148438
0.00149717
0.00153198
0.00163906
0.0013575
0.000594103
0.00101005
0.000870232
0.000563977
0.00105981
0.00190832
-0.00103727
0.00817237
-0.00173509
0.00332963
-0.00221339
0.00274174
-0.00258103
0.00217304
-0.00288087
0.00168392
-0.00310367
0.0011557
-0.0032141
0.000517236
-0.00313858
-0.000298538
-0.00283074
-0.00123701
-0.0023603
-0.0020585
-0.00181422
-0.00262976
-0.00126209
-0.0029164
-0.000756257
-0.00293577
-0.00032869
-0.00272337
4.90159e-05
-0.00232289
0.000459156
-0.0017599
0.00106095
-0.00118322
0.00190518
-0.000834958
0.00147383
-0.000968431
0.00143218
-0.000974659
0.00142984
-0.000776333
0.00143238
-0.000598707
0.00147069
-0.00043834
0.00156277
-0.000278534
0.00171467
-0.00015203
0.00184139
-0.000126845
0.00195233
-0.000111069
0.00204024
-8.80372e-05
0.00208726
-4.71532e-05
0.00206993
1.72027e-05
0.00196508
0.000104723
0.00174394
0.000221008
0.00135549
0.000388318
0.00119708
0.000752531
0.00087341
0.00119393
0.000372925
0.00156032
0.0023022
-0.000742181
0.00928171
-0.00131108
0.00389856
-0.00142524
0.00285594
-0.00155152
0.00229935
-0.00167494
0.00180737
-0.00176855
0.00124933
-0.00180126
0.000549966
-0.00166281
-0.000436961
-0.00132536
-0.00157444
-0.000913205
-0.00247065
-0.000502284
-0.00304068
-0.000135924
-0.00328276
0.000163532
-0.00323522
0.000395517
-0.00295535
0.000586856
-0.00251422
0.000802793
-0.00197582
0.00107041
-0.00145082
0.00130887
-0.00107339
0.00127897
-0.000938512
0.00116535
-0.000861007
0.00110326
-0.00071422
0.0010767
-0.000572122
0.00109143
-0.000453044
0.00115927
-0.000346348
0.00127908
-0.000271823
0.00139307
-0.000240811
0.00150201
-0.000219984
0.00159896
-0.000184963
0.00167035
-0.000118527
0.00169422
-6.63975e-06
0.00165117
0.000147799
0.00153568
0.000336512
0.00135377
0.000570257
0.00118706
0.000919256
0.00100116
0.00137986
0.000600444
0.00196105
0.000403666
0.002499
-0.00110413
0.00150761
-0.00154767
0.00044335
-0.00149828
-0.000655493
0.0103526
-0.00108611
0.00432922
-0.000702034
0.0024719
-0.000489267
0.00208662
-0.000401507
0.00171964
-0.000326025
0.00117388
-0.000179769
0.000403738
0.00011616
-0.000732862
0.000457782
-0.00191604
0.000748195
-0.00276105
0.000954243
-0.00324672
0.00106968
-0.0033982
0.00110641
-0.00327195
0.00109009
-0.00293903
0.00104786
-0.00247198
0.00101685
-0.0019448
0.00100575
-0.0014397
0.000982629
-0.00105026
0.000879336
-0.000835198
0.000734277
-0.000715925
0.000632909
-0.00061283
0.000586395
-0.000525584
0.000591034
-0.000457661
0.000646433
-0.000401724
0.000738467
-0.000363835
0.000842117
-0.000344439
0.000949327
-0.000327172
0.00105619
-0.000291804
0.00115575
-0.000218068
0.00123358
-8.44399e-05
0.00127031
0.000111086
0.00126817
0.000338679
0.00124038
0.000598066
0.0012381
0.000921563
0.00131039
0.00130759
0.00146446
0.00180701
0.00189346
0.00207003
0.00212972
0.00127137
0.0017454
0.000827688
0.000306725
-0.000813941
0.011624
-0.000768272
0.00428359
0.000270341
0.00143333
0.000797127
0.00155988
0.00105774
0.00145907
0.00131548
0.000916174
0.00172312
-3.85596e-06
0.00216979
-0.0011795
0.00242646
-0.00217269
0.00250943
-0.00284401
0.00244002
-0.00317732
0.00225102
-0.00320921
0.00198088
-0.00300182
0.00166988
-0.00262804
0.00135159
-0.00215369
0.00105616
-0.00164937
0.000793631
-0.00117716
0.000568566
-0.00082518
0.000362416
-0.00062903
0.000192422
-0.00054591
8.01741e-05
-0.00050056
2.4895e-05
-0.000470283
1.61701e-05
-0.000448915
4.67554e-05
-0.000432288
0.000104874
-0.000421932
0.000177458
-0.000417001
0.000258856
-0.000408548
0.0003507
-0.000383626
0.000458538
-0.000325883
0.000587183
-0.000213063
0.000714424
-1.61321e-05
0.000829083
0.000224044
0.000951277
0.000475895
0.00112597
0.000746896
0.00140319
0.00103039
0.00184779
0.00136243
0.00252254
0.0013953
0.00305493
0.000738999
0.00311763
0.000765008
0.00349078
0.00244598
0.00968814
0.00302581
0.0037038
0.00316997
0.0012892
0.00335611
0.00137377
0.00354281
0.00127242
0.00390839
0.000550637
0.00437969
-0.000475117
0.00461322
-0.00141301
0.00455795
-0.00211741
0.00425687
-0.00254293
0.00378031
-0.00270077
0.00319705
-0.00262597
0.00256692
-0.00237171
0.00193989
-0.00200102
0.00134412
-0.00155793
0.000810143
-0.00111539
0.00034735
-0.00071436
-4.13668e-06
-0.00047368
-0.000245728
-0.00038742
-0.000404652
-0.000386966
-0.000509085
-0.000396106
-0.000574936
-0.000404412
-0.00061243
-0.0004114
-0.000627531
-0.000417165
-0.000626712
-0.000422729
-0.000616531
-0.00042716
-0.000599504
-0.000425553
-0.000572614
-0.000410492
-0.000525682
-0.000372792
-0.000437199
-0.000301523
-0.000271491
-0.000181817
-6.50872e-05
1.76633e-05
0.00016109
0.000249741
0.000442596
0.000465413
0.000794799
0.000678209
0.00126924
0.000888004
0.0017904
0.000874163
0.00198931
0.000540111
0.00116205
0.00159229
0.00491593
0.0102461
0.0139418
0.0123165
0.00291458
0.0109643
0.00272596
0.0099772
0.00225956
0.0092716
0.00125625
0.00850415
0.000292353
0.00758365
-0.000492509
0.00656045
-0.00109422
0.00549807
-0.00148058
0.00444232
-0.00164505
0.0034217
-0.00160537
0.00246069
-0.00141072
0.00159147
-0.00113181
0.000805988
-0.000772446
0.000124235
-0.000433637
-0.000379659
-0.000210457
-0.000682299
-0.000171024
-0.000864958
-0.000204743
-0.00100243
-0.000249478
-0.00111385
-0.000284661
-0.00120802
-0.000310215
-0.00129083
-0.000328575
-0.00136663
-0.000341344
-0.00144031
-0.000349023
-0.00151758
-0.000349869
-0.00160408
-0.000339028
-0.00170596
-0.000308589
-0.00183117
-0.000247566
-0.00199013
-0.00014254
-0.00219022
1.82994e-05
-0.00241313
0.000240596
-0.00269771
0.000534338
-0.00314716
0.000914889
-0.00385233
0.0013834
-0.00487444
0.00191013
-0.00632561
0.00232536
-0.00807883
0.00229335
-0.00756841
0.00108189
-0.00236089
0.00485044
0.00410813
0.00450015
0.00307617
0.00538057
0.00137906
0.00564118
0.000995571
0.00543192
0.000501524
0.00499313
-5.37847e-05
0.00437651
-0.000477667
0.0036208
-0.000724918
0.00278411
-0.000808392
0.00191283
-0.000734107
0.00104698
-0.000544878
0.00023249
-0.000317324
-0.0004599
-8.00505e-05
-0.000931187
3.766e-05
-0.00117739
3.57579e-05
-0.00132611
-2.22815e-05
-0.00144811
-8.27206e-05
-0.00156699
-0.000130578
-0.00168616
-0.000165472
-0.00180666
-0.000189695
-0.00192964
-0.000205575
-0.0020564
-0.000214559
-0.00218849
-0.000216914
-0.00232714
-0.000211198
-0.00247224
-0.0001939
-0.00262137
-0.000159446
-0.00276845
-0.000100465
-0.00290321
-7.75681e-06
-0.00301338
0.000128495
-0.00309773
0.000324967
-0.00317017
0.000606799
-0.00324279
0.00098753
-0.00331594
0.00145657
-0.00334122
0.00193543
-0.00325832
0.00224248
-0.00289362
0.00192866
-0.00161451
-0.000197202
-0.00389845
-0.000582217
0.00474309
0.000860629
0.00163325
0.00131453
0.000925087
0.00164538
0.000664656
0.00178865
0.000358195
0.00168035
5.44646e-05
0.00136829
-0.000165644
0.000883862
-0.000240514
0.00026875
-0.000193287
-0.000403123
-6.2223e-05
-0.00100889
6.08954e-05
-0.00144179
0.000115582
-0.0016529
0.000131068
-0.00172523
0.000110001
-0.00175812
6.86665e-05
-0.00180266
2.22885e-05
-0.0018705
-1.48607e-05
-0.00195859
-4.24736e-05
-0.00206133
-6.27045e-05
-0.00217416
-7.6852e-05
-0.00229358
-8.61315e-05
-0.00241674
-9.13725e-05
-0.00254086
-9.27801e-05
-0.00266236
-8.96744e-05
-0.00277596
-8.02781e-05
-0.00287376
-6.16238e-05
-0.00294457
-2.96398e-05
-0.00297401
2.17054e-05
-0.00294951
0.000104016
-0.00284927
0.000224756
-0.00264117
0.000398714
-0.00230006
0.000646441
-0.00181387
0.000970404
-0.00116191
0.00128349
-0.000164031
0.00124462
0.00117558
0.000589069
0.00159445
-0.000616046
-0.00221946
-0.00759346
-0.0103027
-0.00551837
-0.00386277
-0.00292176
-0.00224478
-0.00187712
-0.00181578
-0.00197667
-0.00221409
-0.00240559
-0.00246708
-0.0024063
-0.00229156
-0.00216196
-0.00205386
-0.00198733
-0.00196734
-0.00198458
-0.00202951
-0.00209473
-0.00217413
-0.00226283
-0.0023568
-0.00245218
-0.00254445
-0.00262731
-0.00269149
-0.00272366
-0.00270445
-0.00260288
-0.00238052
-0.00198416
-0.00134005
-0.000371968
0.000909143
0.00215127
0.00273771
0.00211887
)
;

boundaryField
{
    floor
    {
        type            calculated;
        value           nonuniform List<scalar> 
29
(
0
0
0
0
0
0
0
0
0
0
0
0
0
0
0
0
0
0
0
0
-4.23277e-06
-1.0662e-05
-1.60711e-05
-2.0934e-05
-1.61649e-06
-3.21735e-06
-8.41587e-06
-9.52814e-06
-9.24261e-06
)
;
    }
    ceiling
    {
        type            calculated;
        value           nonuniform List<scalar> 
43
(
-4.38211e-05
-4.25628e-05
-4.12672e-05
-2.23725e-05
-1.5927e-05
-1.23242e-05
-9.47921e-06
-6.88181e-06
-4.76288e-06
-3.09846e-06
-1.78372e-06
-7.19283e-07
1.27425e-07
8.61253e-07
1.48616e-06
1.91315e-06
2.16263e-06
2.31087e-06
2.40642e-06
2.47534e-06
2.52849e-06
2.56812e-06
2.5956e-06
2.61203e-06
2.61826e-06
2.615e-06
2.60274e-06
2.58172e-06
2.55175e-06
2.51179e-06
2.46389e-06
2.4176e-06
2.37731e-06
2.34881e-06
2.34288e-06
2.39457e-06
2.50988e-06
2.6487e-06
2.81418e-06
3.75846e-06
1.13281e-05
8.05791e-06
-5.27933e-05
)
;
    }
    sWall
    {
        type            calculated;
        value           uniform -0.000267426;
    }
    nWall
    {
        type            calculated;
        value           nonuniform List<scalar> 6(-4.95751e-05 -5.95778e-05 -6.64055e-05 -7.69281e-05 -8.45178e-05 -0.000104326);
    }
    sideWalls
    {
        type            empty;
        value           nonuniform 0();
    }
    glass1
    {
        type            calculated;
        value           nonuniform List<scalar> 9(-5.86988e-05 -0.000157663 -0.000240182 -0.000309324 -0.000367131 -0.000415323 -0.000457512 -0.000510066 -0.000569237);
    }
    glass2
    {
        type            calculated;
        value           nonuniform List<scalar> 2(-0.000263076 -0.000291578);
    }
    sun
    {
        type            calculated;
        value           uniform 0;
    }
    heatsource1
    {
        type            calculated;
        value           nonuniform List<scalar> 3(2.04228e-07 2.04144e-07 2.04158e-07);
    }
    heatsource2
    {
        type            calculated;
        value           nonuniform List<scalar> 4(5.10532e-08 5.12015e-08 0 0);
    }
    Table_master
    {
        type            calculated;
        value           nonuniform List<scalar> 9(-1.53172e-07 -1.53219e-07 -1.53239e-07 -1.53254e-07 -1.53265e-07 -1.53273e-07 -1.53277e-07 -1.53272e-07 -1.53243e-07);
    }
    Table_slave
    {
        type            calculated;
        value           nonuniform List<scalar> 9(1.53069e-07 1.53055e-07 1.53022e-07 1.52996e-07 1.52985e-07 1.52991e-07 1.53005e-07 1.5305e-07 1.53135e-07);
    }
    inlet
    {
        type            calculated;
        value           uniform -0.00604405;
    }
    outlet
    {
        type            calculated;
        value           nonuniform List<scalar> 2(0.00790469 0.00275178);
    }
}


// ************************************************************************* //
