// -*- C++ -*-
// File generated by PyFoam - sorry for the ugliness

FoamFile
{
 version 2.0;
 format ascii;
 class volScalarField;
 location "100";
 object T;
}

dimensions [ 0 0 0 1 0 0 0 ];

internalField nonuniform List<scalar> 459
(
  300.848
  300.424
  300.413
  300.42
  300.426
  300.431
  300.435
  300.438
  300.441
  300.442
  300.44
  300.436
  300.429
  300.421
  300.417
  300.116
  300.091
  300.086
  300.082
  300.063
  299.976
  299.897
  299.838
  299.795
  299.776
  299.764
  299.762
  299.779
  299.8
  299.836
  299.937
  299.967
  299.95
  299.954
  301.14
  300.503
  300.451
  300.46
  300.472
  300.483
  300.493
  300.501
  300.507
  300.509
  300.506
  300.496
  300.479
  300.454
  300.42
  300.378
  300.277
  300.134
  300.111
  300.093
  300.082
  300.057
  299.994
  299.862
  299.738
  299.681
  299.654
  299.646
  299.655
  299.681
  299.743
  299.863
  300.063
  300.03
  299.976
  299.958
  301.407
  300.615
  300.515
  300.522
  300.542
  300.56
  300.577
  300.591
  300.6
  300.605
  300.6
  300.585
  300.559
  300.52
  300.471
  300.416
  300.367
  300.192
  300.178
  300.189
  300.217
  300.232
  300.209
  299.877
  299.76
  299.671
  299.621
  299.623
  299.665
  299.732
  299.819
  299.958
  300.253
  300.098
  300.032
  300.006
  301.651
  300.745
  300.594
  300.59
  300.618
  300.647
  300.674
  300.696
  300.713
  300.722
  300.719
  300.701
  300.668
  300.619
  300.558
  300.489
  300.421
  300.375
  300.342
  300.374
  300.417
  300.451
  300.473
  300.488
  300.5
  300.506
  300.511
  300.515
  300.517
  300.516
  300.509
  300.497
  300.482
  300.45
  300.378
  300.294
  300.279
  301.875
  300.895
  300.701
  300.669
  300.697
  300.736
  300.775
  300.811
  300.839
  300.857
  300.86
  300.845
  300.813
  300.765
  300.708
  300.648
  300.592
  300.551
  300.527
  300.528
  300.547
  300.563
  300.572
  300.577
  300.58
  300.581
  300.581
  300.579
  300.573
  300.563
  300.551
  300.533
  300.513
  300.485
  300.44
  300.38
  300.33
  300.314
  300.309
  300.392
  302.07
  301.075
  300.878
  300.799
  300.796
  300.832
  300.879
  300.927
  300.97
  301.001
  301.012
  301.003
  300.973
  300.926
  300.869
  300.807
  300.751
  300.705
  300.676
  300.662
  300.659
  300.66
  300.66
  300.66
  300.657
  300.653
  300.646
  300.635
  300.619
  300.6
  300.58
  300.561
  300.538
  300.507
  300.465
  300.413
  300.369
  300.34
  300.319
  300.337
  302.245
  301.34
  301.201
  301.091
  301.004
  300.985
  301.012
  301.056
  301.104
  301.145
  301.166
  301.164
  301.139
  301.096
  301.038
  300.975
  300.915
  300.863
  300.823
  300.796
  300.78
  300.769
  300.762
  300.755
  300.746
  300.735
  300.719
  300.695
  300.665
  300.636
  300.61
  300.588
  300.566
  300.537
  300.5
  300.453
  300.411
  300.385
  300.36
  300.364
  302.519
  301.869
  301.768
  301.625
  301.452
  301.337
  301.282
  301.267
  301.277
  301.299
  301.316
  301.317
  301.299
  301.263
  301.211
  301.148
  301.087
  301.03
  300.982
  300.945
  300.918
  300.897
  300.881
  300.866
  300.851
  300.832
  300.805
  300.767
  300.722
  300.68
  300.647
  300.626
  300.61
  300.593
  300.572
  300.554
  300.555
  300.573
  300.594
  300.693
  302.905
  302.634
  302.395
  302.204
  301.982
  301.805
  301.68
  301.597
  301.548
  301.513
  301.485
  301.463
  301.439
  301.407
  301.366
  301.314
  301.258
  301.201
  301.15
  301.106
  301.07
  301.041
  301.016
  300.993
  300.971
  300.946
  300.914
  300.865
  300.805
  300.747
  300.705
  300.684
  300.681
  300.691
  300.71
  300.733
  300.757
  300.783
  300.812
  300.879
  300.946
  301.872
  301.909
  301.843
  301.77
  301.709
  301.665
  301.633
  301.605
  301.578
  301.55
  301.521
  301.487
  301.446
  301.401
  301.353
  301.306
  301.263
  301.223
  301.189
  301.158
  301.128
  301.1
  301.07
  301.035
  300.992
  300.939
  300.88
  300.822
  300.768
  300.728
  300.697
  300.681
  300.682
  300.691
  300.69
  300.636
  300.652
  301.194
  301.715
  301.824
  301.816
  301.779
  301.741
  301.71
  301.683
  301.66
  301.637
  301.614
  301.59
  301.564
  301.535
  301.503
  301.468
  301.431
  301.394
  301.358
  301.323
  301.29
  301.257
  301.224
  301.191
  301.156
  301.116
  301.069
  301.016
  300.962
  300.911
  300.863
  300.804
  300.743
  300.698
  300.673
  300.65
  300.631
  300.647
  301.327
  301.3
  301.303
  301.665
  301.774
  301.788
  301.766
  301.745
  301.725
  301.708
  301.692
  301.676
  301.66
  301.644
  301.627
  301.609
  301.589
  301.567
  301.544
  301.518
  301.49
  301.461
  301.43
  301.398
  301.365
  301.33
  301.295
  301.257
  301.217
  301.17
  301.118
  301.073
  301.038
  300.988
  300.906
  300.816
  300.747
  300.699
  300.661
  300.66
)
;

boundaryField
{
  floor
  {
    type wallHeatTransfer;
    Tinf uniform 305.2;
    alphaWall uniform 0.24;
    value nonuniform List<scalar> 29
(
  301.044
  301.03
  300.937
  300.933
  301.061
  301.289
  301.362
  301.358
  301.327
  301.317
  301.334
  301.35
  301.357
  301.384
  301.382
  301.169
  300.888
  300.748
  300.732
  300.825
  300.825
  300.733
  300.725
  300.769
  301.044
  301.03
  300.932
  300.773
  300.878
)
;
  }
  ceiling
  {
    type wallHeatTransfer;
    Tinf uniform 303.2;
    alphaWall uniform 0.24;
    value nonuniform List<scalar> 43
(
  301.4
  301.364
  301.358
  301.721
  301.836
  301.856
  301.844
  301.831
  301.821
  301.812
  301.804
  301.797
  301.79
  301.781
  301.771
  301.759
  301.744
  301.727
  301.706
  301.683
  301.658
  301.631
  301.603
  301.574
  301.543
  301.511
  301.478
  301.442
  301.401
  301.352
  301.298
  301.252
  301.219
  301.169
  301.081
  300.984
  300.914
  300.874
  300.846
  300.86
  302.917
  302.654
  301.239
)
;
  }
  sWall
  {
    type wallHeatTransfer;
    Tinf uniform 315.2;
    alphaWall uniform 0.36;
    value uniform 302.123;
  }
  nWall
  {
    type wallHeatTransfer;
    Tinf uniform 307.2;
    alphaWall uniform 0.36;
    value nonuniform List<scalar> 6
(
  301.396
  301.272
  301.168
  301.319
  301.318
  301.404
)
;
  }
  sideWalls
  {
    type empty;
  }
  glass1
  {
    type wallHeatTransfer;
    Tinf uniform 315.2;
    alphaWall uniform 4.3;
    value nonuniform List<scalar> 9
(
  311.508
  310.042
  309.192
  308.623
  308.233
  307.947
  307.759
  307.904
  308.246
)
;
  }
  glass2
  {
    type wallHeatTransfer;
    Tinf uniform 307.2;
    alphaWall uniform 4.3;
    value nonuniform List<scalar> 2
(
  304.688
  304.581
)
;
  }
  sun
  {
    type wallHeatTransfer;
    Tinf uniform 305.2;
    alphaWall uniform 0.24;
    value nonuniform List<scalar> 14
(
  301.438
  301.066
  301.142
  301.137
  301.125
  301.113
  301.101
  301.088
  301.075
  301.063
  301.052
  301.043
  301.037
  301.035
)
;
  }
  heatsource1
  {
    type fixedGradient;
    gradient uniform 0;
  }
  heatsource2
  {
    type fixedGradient;
    gradient uniform 0;
  }
  Table_master
  {
    type zeroGradient;
  }
  Table_slave
  {
    type zeroGradient;
  }
  inlet
  {
    type fixedValue;
    value uniform 290.15;
  }
  outlet
  {
    type zeroGradient;
  }
} 	// ************************************************************************* //

