/*--------------------------------*- C++ -*----------------------------------*\
  =========                 |
  \\      /  F ield         | OpenFOAM: The Open Source CFD Toolbox
   \\    /   O peration     | Website:  https://openfoam.org
    \\  /    A nd           | Version:  6
     \\/     M anipulation  |
\*---------------------------------------------------------------------------*/
FoamFile
{
    version     2.0;
    format      ascii;
    class       volScalarField;
    location    "100";
    object      epsilon;
}
// * * * * * * * * * * * * * * * * * * * * * * * * * * * * * * * * * * * * * //

dimensions      [0 2 -3 0 0 0 0];

internalField   nonuniform List<scalar> 
459
(
0.000138565
0.000151454
0.000133066
0.000148622
0.000164647
0.00018019
0.000195348
0.000210501
0.000226282
0.000243605
0.000259585
0.000273296
0.00028432
0.000293119
0.00029789
6.6371e-05
0.000123367
0.000144013
0.000142465
0.000136253
0.000120916
9.36246e-05
7.17575e-05
5.59884e-05
4.42375e-05
3.54379e-05
2.88331e-05
2.38612e-05
2.01045e-05
1.72377e-05
1.50044e-05
1.33722e-05
1.56966e-05
1.37794e-05
0.000605489
0.00145066
0.000145074
0.000114009
0.000116612
0.000121976
0.000129158
0.000139193
0.000153261
0.000172438
0.000194998
0.00022016
0.00024634
0.000271356
0.000300902
0.000390497
0.000113441
0.000138034
0.00019509
0.000140775
0.000119767
0.000104627
9.2754e-05
8.16106e-05
6.15229e-05
4.71896e-05
3.66115e-05
2.88112e-05
2.30966e-05
1.88976e-05
1.57956e-05
1.35558e-05
1.21875e-05
1.37285e-05
8.17171e-05
4.51306e-05
0.0015057
0.00489755
0.000296876
0.000121959
0.000116463
0.000122335
0.000131423
0.000143964
0.000160355
0.000180643
0.000203542
0.000227446
0.000252041
0.00028005
0.000320596
0.000394021
0.000538611
0.000442437
0.000319738
0.000203762
0.000155498
0.000120341
0.000107535
0.000179
9.76425e-05
6.28241e-05
4.53042e-05
3.51318e-05
2.85502e-05
2.39572e-05
2.06073e-05
1.82856e-05
1.63759e-05
2.15933e-05
0.000216762
8.95248e-05
0.00300712
0.0112409
0.000699368
0.000146626
0.000124204
0.000131816
0.00014359
0.000158605
0.000177163
0.000199506
0.000223634
0.000245132
0.000263873
0.000285652
0.000323525
0.000402251
0.00056845
0.000856954
0.000456897
0.000270973
0.000210654
0.00016298
0.00012675
0.000114103
0.000200571
0.000172615
0.000165513
0.000163219
0.000160199
0.000152314
0.000136755
0.000118165
9.97791e-05
6.74428e-05
6.06152e-05
0.000559911
0.000114669
0.00518186
0.0202006
0.00161501
0.000198728
0.000133243
0.000141942
0.00015923
0.000181821
0.000209916
0.00024327
0.000276936
0.000300128
0.000311387
0.000314984
0.000315328
0.00031508
0.000315209
0.00029978
0.000241481
0.000209267
0.000192255
0.000175783
0.000149878
0.000129846
0.000126569
0.000121068
0.000120695
0.000122588
0.000123371
0.000119538
0.000108641
9.36997e-05
8.22654e-05
7.11493e-05
6.77177e-05
0.000276537
0.000203006
0.000174813
0.000267607
0.000390423
0.00809848
0.0289021
0.00359435
0.000370481
0.000163921
0.000159299
0.000179542
0.000212031
0.000257079
0.000316358
0.000369227
0.000395322
0.000399732
0.000392261
0.000377265
0.000351056
0.000307239
0.000252193
0.00020845
0.000190588
0.000192558
0.000202091
0.000189521
0.00016361
0.000148861
0.000143393
0.00014621
0.000153723
0.000161894
0.00016581
0.000159052
0.000134401
0.00010797
8.73285e-05
7.9322e-05
0.000153677
0.000175369
0.000165435
0.000517562
0.000485951
0.0118462
0.0331213
0.00812776
0.00151686
0.000490146
0.000299982
0.000274387
0.00030046
0.000358704
0.000464418
0.000524945
0.000532891
0.000513372
0.000484694
0.000453599
0.000415454
0.000360772
0.000294913
0.000241555
0.000211637
0.000208765
0.00023528
0.000246375
0.000215499
0.000194108
0.000186002
0.000189294
0.000201756
0.00021994
0.00024024
0.000255152
0.000249822
0.000204328
0.000167061
0.00015488
0.000197993
0.00028257
0.000466009
0.000984764
0.000900825
0.0129585
0.041954
0.0193853
0.00968134
0.00435717
0.00194292
0.00110137
0.000848591
0.000804395
0.000832923
0.000792116
0.000721944
0.000648045
0.000581649
0.00052528
0.000475224
0.000422834
0.000365658
0.000318685
0.000271991
0.000241903
0.000271881
0.000328479
0.000298383
0.000271255
0.000258823
0.000259481
0.000272339
0.00029859
0.000340987
0.00040034
0.000470917
0.000523958
0.000549025
0.000692467
0.00115509
0.00229924
0.00423309
0.0111959
0.00223787
0.0121126
0.0214827
0.0168928
0.0123018
0.00842912
0.00548827
0.00357808
0.00245379
0.00182817
0.00140639
0.00111774
0.000916608
0.000773004
0.000667435
0.000587664
0.000526148
0.000479123
0.000449478
0.000437882
0.000386862
0.000303089
0.000313564
0.000446896
0.000435766
0.000406146
0.000386554
0.0003776
0.000379685
0.000398503
0.00044565
0.000535116
0.000678368
0.000883311
0.00115814
0.00154677
0.00205741
0.0025794
0.00295429
0.00324274
0.0017104
0.00705777
0.00861477
0.00687834
0.00504607
0.00362459
0.00263587
0.00197663
0.00153077
0.00122542
0.0010119
0.000858117
0.000744418
0.000659888
0.000599643
0.00056478
0.000568009
0.000618024
0.00058044
0.000404169
0.000367884
0.000618232
0.000675334
0.000661905
0.000641981
0.000626777
0.000611916
0.000597657
0.0005952
0.000626555
0.000718789
0.000880408
0.00111299
0.00140556
0.00170692
0.00189472
0.00182625
0.00142639
0.00100044
0.00523496
0.00788104
0.00627714
0.00461779
0.00345456
0.00260823
0.00199887
0.00156143
0.00124331
0.00100929
0.00083756
0.000714171
0.00063086
0.000584055
0.000575667
0.000613721
0.000681045
0.00068201
0.000515817
0.000434358
0.000861572
0.000989332
0.0010204
0.00102464
0.0010168
0.000995103
0.000960392
0.000924666
0.000908117
0.000943993
0.00105037
0.0012343
0.00148193
0.00177646
0.00201446
0.00208321
0.00130127
0.00106698
0.00362781
0.00413974
0.00463876
0.00545684
0.00462701
0.00339112
0.00273234
0.00222206
0.00182159
0.00150554
0.00125773
0.00106767
0.000914784
0.000788968
0.000685215
0.000601302
0.000536965
0.000494154
0.000473521
0.000455516
0.000411095
0.000410774
0.00055617
0.000606973
0.000622906
0.000628585
0.000631407
0.000633836
0.0006407
0.000661556
0.000712026
0.000791166
0.000908352
0.00106737
0.00126974
0.00154025
0.00161139
0.00148431
0.00119646
0.00093567
)
;

boundaryField
{
    floor
    {
        Cmu             0.09;
        kappa           0.41;
        E               9.8;
        type            epsilonWallFunction;
        value           nonuniform List<scalar> 
29
(
0.00029789
6.6371e-05
0.000123367
0.000144013
0.000142465
0.000136253
0.000120916
9.36246e-05
7.17575e-05
5.59884e-05
4.42375e-05
3.54379e-05
2.88331e-05
2.38612e-05
2.01045e-05
1.72377e-05
1.50044e-05
1.33722e-05
1.56966e-05
1.37794e-05
1.37794e-05
4.51306e-05
8.95248e-05
0.000114669
0.00029789
6.6371e-05
0.000138034
0.000442437
0.000856954
)
;
    }
    ceiling
    {
        Cmu             0.09;
        kappa           0.41;
        E               9.8;
        type            epsilonWallFunction;
        value           nonuniform List<scalar> 
43
(
0.00362781
0.00413974
0.00463876
0.00545684
0.00462701
0.00339112
0.00273234
0.00222206
0.00182159
0.00150554
0.00125773
0.00106767
0.000914784
0.000788968
0.000685215
0.000601302
0.000536965
0.000494154
0.000473521
0.000455516
0.000411095
0.000410774
0.00055617
0.000606973
0.000622906
0.000628585
0.000631407
0.000633836
0.0006407
0.000661556
0.000712026
0.000791166
0.000908352
0.00106737
0.00126974
0.00154025
0.00161139
0.00148431
0.00119646
0.00093567
0.0121126
0.0214827
0.00523496
)
;
    }
    sWall
    {
        Cmu             0.09;
        kappa           0.41;
        E               9.8;
        type            epsilonWallFunction;
        value           uniform 0.00362781;
    }
    nWall
    {
        Cmu             0.09;
        kappa           0.41;
        E               9.8;
        type            epsilonWallFunction;
        value           nonuniform List<scalar> 6(0.000390423 0.000485951 0.000900825 0.00100044 0.00106698 0.00093567);
    }
    sideWalls
    {
        type            empty;
    }
    glass1
    {
        Cmu             0.09;
        kappa           0.41;
        E               9.8;
        type            epsilonWallFunction;
        value           nonuniform List<scalar> 9(0.000138565 0.000605489 0.0015057 0.00300712 0.00518186 0.00809848 0.0118462 0.0129585 0.0121126);
    }
    glass2
    {
        Cmu             0.09;
        kappa           0.41;
        E               9.8;
        type            epsilonWallFunction;
        value           nonuniform List<scalar> 2(0.00223787 0.0017104);
    }
    sun
    {
        Cmu             0.09;
        kappa           0.41;
        E               9.8;
        type            epsilonWallFunction;
        value           nonuniform List<scalar> 
14
(
0.000138565
0.000151454
0.000133066
0.000148622
0.000164647
0.00018019
0.000195348
0.000210501
0.000226282
0.000243605
0.000259585
0.000273296
0.00028432
0.000293119
)
;
    }
    heatsource1
    {
        Cmu             0.09;
        kappa           0.41;
        E               9.8;
        type            epsilonWallFunction;
        value           nonuniform List<scalar> 3(0.000174813 0.000267607 0.000390423);
    }
    heatsource2
    {
        Cmu             0.09;
        kappa           0.41;
        E               9.8;
        type            epsilonWallFunction;
        value           nonuniform List<scalar> 4(0.000390497 0.000113441 0.000113441 0.000538611);
    }
    Table_master
    {
        Cmu             0.09;
        kappa           0.41;
        E               9.8;
        type            epsilonWallFunction;
        value           nonuniform List<scalar> 9(0.000179 9.76425e-05 6.28241e-05 4.53042e-05 3.51318e-05 2.85502e-05 2.39572e-05 2.06073e-05 1.82856e-05);
    }
    Table_slave
    {
        Cmu             0.09;
        kappa           0.41;
        E               9.8;
        type            epsilonWallFunction;
        value           nonuniform List<scalar> 9(0.000200571 0.000172615 0.000165513 0.000163219 0.000160199 0.000152314 0.000136755 0.000118165 9.97791e-05);
    }
    inlet
    {
        type            turbulentMixingLengthDissipationRateInlet;
        mixingLength    0.01;
        phi             phi;
        k               k;
        value           uniform 0.000101881;
    }
    outlet
    {
        type            zeroGradient;
    }
}


// ************************************************************************* //
