/*--------------------------------*- C++ -*----------------------------------*\
  =========                 |
  \\      /  F ield         | OpenFOAM: The Open Source CFD Toolbox
   \\    /   O peration     | Website:  https://openfoam.org
    \\  /    A nd           | Version:  6
     \\/     M anipulation  |
\*---------------------------------------------------------------------------*/
FoamFile
{
    version     2.0;
    format      ascii;
    class       volScalarField;
    location    "240";
    object      nut;
}
// * * * * * * * * * * * * * * * * * * * * * * * * * * * * * * * * * * * * * //

dimensions      [0 2 -1 0 0 0 0];

internalField   nonuniform List<scalar> 
459
(
0.00107256
0.00119295
0.00124671
0.00131881
0.00139014
0.00146672
0.0015328
0.00157872
0.00159668
0.00158023
0.00146884
0.0013575
0.00122229
0.00108445
0.000950899
0.000573761
0.000718335
0.000772604
0.000837707
0.000834833
0.000808233
0.000749639
0.000689024
0.000635967
0.000590808
0.000552259
0.000519079
0.000490055
0.000464544
0.00044111
0.000418203
0.000395474
0.000365904
0.00037531
0.00135811
0.00349653
0.00351076
0.00410003
0.00469166
0.00513049
0.00553565
0.00591135
0.00623777
0.00647411
0.00649608
0.00621278
0.00570572
0.00461308
0.00304401
0.00113549
0.000939306
0.000885968
0.00251778
0.00250203
0.00278968
0.00305814
0.0030145
0.00208882
0.00171027
0.00146629
0.00129252
0.00116321
0.00106431
0.000988345
0.000911957
0.000826919
0.000746037
0.000747098
0.000741922
0.000492358
0.00159248
0.00477606
0.00441081
0.00497843
0.00530142
0.00553852
0.00579806
0.00614679
0.00661757
0.00712932
0.00745937
0.00750375
0.00728409
0.00665942
0.00540037
0.00341144
0.00109754
0.00100473
0.00316801
0.00282781
0.00318783
0.00368129
0.00360342
0.00102637
0.000878784
0.000760355
0.000666628
0.000592256
0.000532837
0.000485148
0.000448779
0.000424131
0.000491423
0.000673315
0.000934437
0.00057463
0.0018145
0.0058214
0.00459824
0.00511556
0.00516075
0.00521439
0.00532316
0.00563281
0.00620927
0.00687973
0.00738889
0.00765358
0.00767247
0.00742478
0.00669098
0.00526453
0.00271509
0.00120168
0.00161307
0.00214195
0.00300176
0.00396112
0.00469918
0.00454142
0.00114934
0.00104434
0.000962343
0.00089585
0.000837613
0.000782675
0.000727798
0.00067032
0.000606049
0.000539231
0.000644846
0.00109614
0.000663567
0.00204222
0.00710217
0.00497698
0.00527113
0.00521128
0.00508493
0.00503312
0.005325
0.00594328
0.00667452
0.00727511
0.00761692
0.00770814
0.00759643
0.00721944
0.00641303
0.00496295
0.00389105
0.0040931
0.00467932
0.00543721
0.00611258
0.00654285
0.00654476
0.005566
0.0049647
0.00454417
0.00411535
0.0036554
0.00317202
0.00266723
0.0021403
0.00159537
0.00110892
0.000888493
0.00108498
0.000924408
0.000708918
0.000815752
0.00122326
0.0022882
0.00857324
0.00635407
0.00583764
0.00559907
0.00517451
0.00497827
0.00524599
0.00591858
0.00672743
0.0073839
0.00773825
0.00781304
0.00772407
0.00755869
0.00726426
0.00677757
0.00660723
0.00700644
0.00747289
0.0078584
0.00808301
0.00811539
0.00793399
0.00749321
0.0069898
0.00643223
0.0058159
0.00515202
0.00445007
0.00372083
0.00297791
0.00224832
0.00162198
0.00125768
0.00112991
0.00104403
0.00114261
0.00174726
0.00163384
0.00250573
0.00958552
0.00835946
0.00705358
0.00606126
0.00523018
0.00495653
0.00531955
0.00613854
0.00706773
0.00778176
0.00813571
0.00819373
0.0081546
0.00818878
0.0082589
0.008336
0.0085843
0.0089594
0.00921579
0.00927634
0.0091612
0.00889649
0.00851287
0.00802647
0.00747862
0.00687945
0.00622892
0.00553103
0.00479345
0.00404182
0.00330896
0.0026268
0.00205034
0.00167796
0.00140865
0.00117504
0.0016521
0.0032059
0.00220304
0.00255399
0.00830373
0.00755489
0.00649868
0.00538753
0.00473513
0.00480049
0.0055485
0.00666935
0.00775298
0.00849269
0.00882192
0.00888627
0.00893673
0.00899462
0.00909058
0.00925817
0.00948645
0.00966355
0.00967673
0.00949664
0.00914521
0.00864884
0.00806001
0.00745165
0.00685542
0.0062624
0.00565933
0.00504469
0.00443133
0.00384719
0.00332444
0.0028873
0.00254968
0.00230221
0.00205498
0.00161668
0.00220119
0.0056976
0.00301897
0.00249859
0.00295957
0.0031669
0.00315262
0.00318211
0.00366887
0.0047732
0.00628706
0.00776233
0.00885082
0.00941489
0.00960758
0.00951534
0.00921519
0.00900699
0.00897408
0.00906129
0.00914438
0.00910697
0.0088945
0.00851419
0.00800841
0.00742931
0.00683892
0.0062905
0.00580356
0.00537199
0.00498713
0.00465058
0.00437277
0.0041653
0.00403055
0.00395347
0.0038964
0.00379505
0.00357046
0.0030308
0.00347524
0.00757822
0.00338803
0.000854126
0.00143909
0.00307293
0.00511608
0.00711907
0.0086946
0.00958933
0.00995112
0.00979226
0.00936894
0.008951
0.00865658
0.0085066
0.00846151
0.00844395
0.00837169
0.00820072
0.007935
0.00760722
0.00725624
0.00691463
0.00660675
0.00634628
0.00613593
0.0059742
0.00586143
0.00580098
0.00579636
0.00584642
0.00593939
0.00604589
0.00611094
0.00604888
0.00576867
0.00527255
0.00549349
0.00802318
0.00287926
0.00140441
0.00475063
0.00727822
0.00879026
0.00998653
0.0105004
0.0103385
0.00975692
0.00912843
0.00864445
0.00834016
0.00817798
0.00810628
0.00808486
0.00808225
0.0080702
0.00802809
0.00795006
0.00784211
0.00771652
0.0075877
0.0074684
0.00736746
0.0072904
0.0072418
0.00722654
0.00724957
0.00731449
0.00742079
0.00755884
0.00770012
0.00778046
0.00768806
0.00732108
0.00674867
0.0063794
0.0061762
0.00240859
0.00146877
0.00160455
0.00176136
0.00203688
0.00216309
0.00224778
0.00226406
0.00221732
0.00214713
0.00206689
0.00199816
0.00195472
0.00193196
0.0019235
0.00192427
0.00193001
0.00193679
0.00194126
0.00194159
0.00193775
0.00193091
0.00192279
0.00191489
0.00190831
0.00190374
0.00190158
0.00190213
0.00190561
0.00191218
0.00192174
0.00193358
0.00194576
0.00195414
0.00195233
0.00193828
0.00193098
0.00197332
0.00208357
0.00218196
0.00198811
)
;

boundaryField
{
    floor
    {
        type            nutkWallFunction;
        Cmu             0.09;
        kappa           0.41;
        E               9.8;
        value           nonuniform List<scalar> 
29
(
0.000114932
6.9061e-05
8.69733e-05
9.35838e-05
0.000101441
0.000101096
9.7894e-05
9.07954e-05
8.33826e-05
7.68302e-05
7.12014e-05
6.63553e-05
6.2151e-05
5.84463e-05
5.51675e-05
5.21359e-05
4.91529e-05
4.61727e-05
4.22624e-05
4.35069e-05
4.35068e-05
5.87346e-05
6.91654e-05
8.02401e-05
0.000114933
6.90609e-05
0.000107214
0.000121281
0.000144201
)
;
    }
    ceiling
    {
        type            nutkWallFunction;
        Cmu             0.09;
        kappa           0.41;
        E               9.8;
        value           nonuniform List<scalar> 
43
(
0.000174623
0.000189847
0.000207259
0.000237476
0.000251181
0.000260329
0.000262087
0.000257058
0.000249479
0.000240782
0.000233303
0.000228563
0.000226077
0.000225152
0.000225238
0.000225869
0.000226611
0.000227101
0.000227139
0.000226718
0.000225971
0.000225081
0.000224216
0.000223495
0.000222994
0.000222757
0.000222816
0.000223198
0.000223918
0.000224964
0.00022626
0.000227592
0.000228507
0.000228309
0.000226771
0.000225972
0.000230601
0.000242605
0.000253261
0.000232219
0.000287204
0.000335842
0.000167307
)
;
    }
    sWall
    {
        type            nutkWallFunction;
        Cmu             0.09;
        kappa           0.41;
        E               9.8;
        value           uniform 0.000174662;
    }
    nWall
    {
        type            nutkWallFunction;
        Cmu             0.09;
        kappa           0.41;
        E               9.8;
        value           nonuniform List<scalar> 6(0.000146703 0.000193154 0.000255523 0.000327449 0.000277608 0.000232211);
    }
    sideWalls
    {
        type            empty;
    }
    glass1
    {
        type            nutkWallFunction;
        Cmu             0.09;
        kappa           0.41;
        E               9.8;
        value           nonuniform List<scalar> 9(0.000129301 0.000162236 0.000188682 0.000213339 0.000238291 0.000264911 0.000288199 0.00029334 0.000287449);
    }
    glass2
    {
        type            nutkWallFunction;
        Cmu             0.09;
        kappa           0.41;
        E               9.8;
        value           nonuniform List<scalar> 2(0.00034187 0.000380168);
    }
    sun
    {
        type            nutkWallFunction;
        Cmu             0.09;
        kappa           0.41;
        E               9.8;
        value           nonuniform List<scalar> 
14
(
0.00012923
0.000143198
0.000149383
0.000157632
0.000165744
0.000174401
0.000181832
0.000186974
0.00018898
0.000187142
0.000174635
0.000162034
0.000146575
0.000130617
)
;
    }
    heatsource1
    {
        type            nutkWallFunction;
        Cmu             0.09;
        kappa           0.41;
        E               9.8;
        value           nonuniform List<scalar> 3(8.58159e-05 9.87969e-05 0.000146718);
    }
    heatsource2
    {
        type            nutkWallFunction;
        Cmu             0.09;
        kappa           0.41;
        E               9.8;
        value           nonuniform List<scalar> 4(0.000136559 0.000113564 0.000113564 0.000132148);
    }
    Table_master
    {
        type            nutkWallFunction;
        Cmu             0.09;
        kappa           0.41;
        E               9.8;
        value           nonuniform List<scalar> 9(0.000123837 0.000106365 9.20973e-05 8.06192e-05 7.13734e-05 6.38849e-05 5.78003e-05 5.31101e-05 4.99044e-05);
    }
    Table_slave
    {
        type            nutkWallFunction;
        Cmu             0.09;
        kappa           0.41;
        E               9.8;
        value           nonuniform List<scalar> 9(0.000138176 0.000125945 0.000116297 0.000108403 0.000101433 9.48055e-05 8.81302e-05 8.10737e-05 7.30962e-05);
    }
    inlet
    {
        type            calculated;
        value           uniform 0.000100623;
    }
    outlet
    {
        type            calculated;
        value           nonuniform List<scalar> 2(0.00146877 0.00160455);
    }
}


// ************************************************************************* //
