// -*- C++ -*-
// File generated by PyFoam - sorry for the ugliness

FoamFile
{
 version 2.0;
 format ascii;
 class volScalarField;
 location "240";
 object T;
}

dimensions [ 0 0 0 1 0 0 0 ];

internalField nonuniform List<scalar> 459
(
  303.905
  303.769
  303.765
  303.765
  303.766
  303.766
  303.764
  303.762
  303.763
  303.771
  303.795
  303.806
  303.812
  303.812
  303.8
  304.102
  304.111
  304.103
  304.104
  304.121
  304.136
  304.147
  304.156
  304.165
  304.173
  304.183
  304.192
  304.201
  304.21
  304.22
  304.23
  304.242
  304.26
  304.298
  303.997
  303.801
  303.792
  303.793
  303.793
  303.789
  303.779
  303.766
  303.76
  303.771
  303.8
  303.822
  303.836
  303.839
  303.832
  303.841
  303.853
  304.127
  304.108
  304.084
  304.094
  304.118
  304.143
  304.161
  304.178
  304.195
  304.212
  304.229
  304.246
  304.264
  304.28
  304.293
  304.301
  304.305
  304.305
  304.345
  304.092
  303.831
  303.815
  303.82
  303.823
  303.819
  303.798
  303.765
  303.747
  303.761
  303.796
  303.828
  303.85
  303.86
  303.86
  303.861
  303.863
  304.083
  304.031
  304.04
  304.071
  304.112
  304.15
  304.164
  304.182
  304.201
  304.223
  304.245
  304.268
  304.291
  304.314
  304.332
  304.344
  304.346
  304.341
  304.369
  304.19
  303.866
  303.842
  303.855
  303.869
  303.869
  303.826
  303.765
  303.733
  303.749
  303.792
  303.837
  303.87
  303.886
  303.889
  303.886
  303.881
  303.889
  303.928
  303.963
  304.013
  304.073
  304.135
  304.189
  304.235
  304.272
  304.304
  304.334
  304.363
  304.392
  304.421
  304.45
  304.478
  304.45
  304.417
  304.389
  304.395
  304.289
  303.91
  303.873
  303.895
  303.928
  303.927
  303.852
  303.762
  303.72
  303.737
  303.793
  303.856
  303.903
  303.927
  303.933
  303.929
  303.924
  303.933
  303.96
  304.005
  304.068
  304.14
  304.211
  304.276
  304.332
  304.377
  304.417
  304.451
  304.48
  304.505
  304.526
  304.543
  304.553
  304.532
  304.49
  304.449
  304.425
  304.442
  304.56
  304.929
  304.383
  303.967
  303.916
  303.938
  303.992
  303.961
  303.856
  303.748
  303.7
  303.728
  303.804
  303.891
  303.957
  303.992
  304.002
  303.999
  303.998
  304.017
  304.057
  304.114
  304.185
  304.261
  304.333
  304.397
  304.45
  304.495
  304.531
  304.56
  304.583
  304.602
  304.617
  304.625
  304.625
  304.604
  304.565
  304.533
  304.482
  304.483
  304.629
  304.908
  304.476
  304.056
  304.005
  304.024
  304.053
  303.971
  303.824
  303.701
  303.665
  303.724
  303.837
  303.956
  304.044
  304.091
  304.107
  304.106
  304.113
  304.144
  304.199
  304.267
  304.342
  304.416
  304.484
  304.54
  304.586
  304.621
  304.646
  304.666
  304.682
  304.694
  304.702
  304.704
  304.698
  304.676
  304.643
  304.613
  304.534
  304.526
  304.673
  304.919
  304.603
  304.283
  304.22
  304.22
  304.121
  303.92
  303.713
  303.599
  303.618
  303.744
  303.913
  304.07
  304.178
  304.234
  304.248
  304.251
  304.269
  304.315
  304.382
  304.457
  304.527
  304.592
  304.65
  304.695
  304.723
  304.742
  304.757
  304.768
  304.777
  304.784
  304.787
  304.784
  304.776
  304.759
  304.733
  304.695
  304.599
  304.579
  304.694
  304.959
  304.783
  304.625
  304.521
  304.36
  303.982
  303.619
  303.423
  303.432
  303.599
  303.846
  304.08
  304.261
  304.364
  304.404
  304.418
  304.433
  304.467
  304.522
  304.592
  304.663
  304.724
  304.772
  304.807
  304.831
  304.846
  304.855
  304.863
  304.868
  304.872
  304.874
  304.873
  304.868
  304.859
  304.844
  304.821
  304.783
  304.699
  304.663
  304.743
  304.972
  301.162
  301.336
  301.715
  302.248
  302.825
  303.357
  303.808
  304.181
  304.39
  304.502
  304.558
  304.587
  304.611
  304.64
  304.682
  304.735
  304.791
  304.842
  304.882
  304.911
  304.929
  304.94
  304.947
  304.95
  304.951
  304.951
  304.95
  304.947
  304.942
  304.934
  304.923
  304.907
  304.885
  304.853
  304.807
  304.777
  304.828
  304.951
  301.438
  301.929
  302.562
  303.194
  303.726
  304.08
  304.342
  304.525
  304.63
  304.69
  304.728
  304.758
  304.787
  304.819
  304.856
  304.895
  304.932
  304.962
  304.984
  304.999
  305.007
  305.011
  305.012
  305.011
  305.008
  305.004
  304.999
  304.992
  304.984
  304.973
  304.96
  304.944
  304.926
  304.905
  304.884
  304.874
  304.908
  304.961
  303.289
  303.223
  303.206
  303.676
  304.068
  304.305
  304.488
  304.619
  304.71
  304.776
  304.823
  304.857
  304.886
  304.912
  304.938
  304.963
  304.987
  305.009
  305.027
  305.04
  305.048
  305.052
  305.053
  305.052
  305.048
  305.044
  305.038
  305.031
  305.023
  305.014
  305.003
  304.99
  304.978
  304.965
  304.953
  304.944
  304.938
  304.94
  304.96
  304.992
)
;

boundaryField
{
  floor
  {
    type wallHeatTransfer;
    Tinf uniform 298.85;
    alphaWall uniform 0.24;
    value nonuniform List<scalar> 29
(
  303.225
  303.227
  303.362
  303.393
  303.434
  303.448
  303.444
  303.415
  303.377
  303.34
  303.304
  303.271
  303.24
  303.21
  303.182
  303.155
  303.126
  303.096
  303.052
  303.1
  303.1
  303.33
  303.45
  303.559
  303.225
  303.227
  303.481
  303.5
  303.398
)
;
  }
  ceiling
  {
    type wallHeatTransfer;
    Tinf uniform 298.85;
    alphaWall uniform 0.24;
    value nonuniform List<scalar> 43
(
  302.92
  302.884
  302.892
  303.367
  303.749
  303.982
  304.155
  304.272
  304.349
  304.399
  304.432
  304.458
  304.481
  304.504
  304.528
  304.552
  304.575
  304.597
  304.613
  304.625
  304.631
  304.634
  304.633
  304.631
  304.627
  304.622
  304.617
  304.611
  304.605
  304.598
  304.59
  304.58
  304.57
  304.557
  304.544
  304.534
  304.536
  304.555
  304.588
  304.588
  304.46
  304.351
  301.216
)
;
  }
  sWall
  {
    type wallHeatTransfer;
    Tinf uniform 311.144;
    alphaWall uniform 0.36;
    value uniform 304.234;
  }
  nWall
  {
    type wallHeatTransfer;
    Tinf uniform 299.15;
    alphaWall uniform 0.36;
    value nonuniform List<scalar> 6
(
  304.134
  304.27
  304.412
  304.54
  304.485
  304.435
)
;
  }
  sideWalls
  {
    type empty;
  }
  glass1
  {
    type wallHeatTransfer;
    Tinf uniform 311.144;
    alphaWall uniform 4.3;
    value nonuniform List<scalar> 9
(
  308.852
  308.56
  308.368
  308.217
  308.087
  307.963
  307.875
  307.91
  308.03
)
;
  }
  glass2
  {
    type wallHeatTransfer;
    Tinf uniform 299.15;
    alphaWall uniform 4.3;
    value nonuniform List<scalar> 2
(
  302.257
  302.409
)
;
  }
  sun
  {
    type wallHeatTransfer;
    Tinf uniform 298.85;
    alphaWall uniform 0.24;
    value nonuniform List<scalar> 14
(
  303.368
  303.288
  303.3
  303.32
  303.339
  303.356
  303.369
  303.376
  303.38
  303.384
  303.383
  303.367
  303.335
  303.29
)
;
  }
  heatsource1
  {
    type fixedGradient;
    gradient uniform 0;
  }
  heatsource2
  {
    type fixedGradient;
    gradient uniform 0;
  }
  Table_master
  {
    type zeroGradient;
  }
  Table_slave
  {
    type zeroGradient;
  }
  inlet
  {
    type fixedValue;
    value uniform 300.15;
  }
  outlet
  {
    type zeroGradient;
  }
} 	// ************************************************************************* //

