/*--------------------------------*- C++ -*----------------------------------*\
  =========                 |
  \\      /  F ield         | OpenFOAM: The Open Source CFD Toolbox
   \\    /   O peration     | Website:  https://openfoam.org
    \\  /    A nd           | Version:  6
     \\/     M anipulation  |
\*---------------------------------------------------------------------------*/
FoamFile
{
    version     2.0;
    format      ascii;
    class       volScalarField;
    location    "800";
    object      alphat;
}
// * * * * * * * * * * * * * * * * * * * * * * * * * * * * * * * * * * * * * //

dimensions      [1 -1 -1 0 0 0 0];

internalField   nonuniform List<scalar> 
459
(
0.00328788
0.00326444
0.00313077
0.0030015
0.00288865
0.00279015
0.00270192
0.00262247
0.00254873
0.0024775
0.00240523
0.00232755
0.00223808
0.00212444
0.00197968
0.000871345
0.000859439
0.000528217
0.000395594
0.000353829
0.000318504
0.000294199
0.000264869
0.000253186
0.000253087
0.000264114
0.000267977
0.000278373
0.000302956
0.000352408
0.000414221
0.000597972
0.00092226
0.000892745
0.00373145
0.00501702
0.00476448
0.00460954
0.00459757
0.00469432
0.00484642
0.00497908
0.00504757
0.00501232
0.0048435
0.00452127
0.00403742
0.00339204
0.00265813
0.00193477
0.00172314
0.00124699
0.00308032
0.00190523
0.00168925
0.00167553
0.00129808
0.00057871
0.000460223
0.000413774
0.00038414
0.000362051
0.000375739
0.000416507
0.000511386
0.000772439
0.00149816
0.00236862
0.00359293
0.00130733
0.00407576
0.00531131
0.00475823
0.00461641
0.00494955
0.00563957
0.00643064
0.00702109
0.00727751
0.00719462
0.00681549
0.00619222
0.00538273
0.00444704
0.00349357
0.00267394
0.00173873
0.00149335
0.00358337
0.00247481
0.00261599
0.0026861
0.00242441
0.000746606
0.000615954
0.0005225
0.000446004
0.000375024
0.000365723
0.000453261
0.000568142
0.000732121
0.00186336
0.00284706
0.0047867
0.0016262
0.00438379
0.0052462
0.00466054
0.00494734
0.00651256
0.00837476
0.00957335
0.00995287
0.00968974
0.00907188
0.00825267
0.0073011
0.00625898
0.00516365
0.00407735
0.00312192
0.00215045
0.00159161
0.00235216
0.00280622
0.00255622
0.0027476
0.00294856
0.00285106
0.000984818
0.000891314
0.000813986
0.000749783
0.000692944
0.00064023
0.000589824
0.000541815
0.000517413
0.001303
0.00216129
0.00379879
0.00165989
0.00469755
0.00517957
0.00481075
0.00714533
0.0094603
0.0104469
0.0107827
0.0107478
0.0103688
0.00961119
0.0086825
0.00767533
0.00660663
0.00551175
0.00442833
0.00345575
0.00255008
0.00205904
0.00215534
0.00214481
0.00222337
0.00254535
0.00291775
0.00315497
0.00308832
0.00297567
0.0028622
0.0026979
0.00251012
0.00230803
0.00209673
0.00189356
0.00177476
0.00216614
0.00254874
0.0027288
0.00214219
0.00139525
0.00175415
0.00228597
0.00504579
0.00517372
0.00466878
0.00762997
0.00948106
0.00966254
0.00950495
0.00938428
0.00931467
0.00905133
0.00838993
0.00754707
0.0065705
0.00559085
0.00460636
0.00369359
0.00287488
0.00245927
0.00239161
0.00238552
0.00257924
0.00303873
0.00351706
0.00384057
0.00398438
0.00402519
0.00399305
0.00388277
0.00372183
0.00353441
0.00334713
0.00320441
0.00320074
0.003483
0.00386649
0.00380111
0.0031864
0.00334805
0.00442498
0.00308295
0.00548109
0.00548261
0.00432298
0.00669499
0.00810719
0.00773585
0.00738585
0.00726177
0.00741953
0.00767644
0.00758503
0.00703506
0.00633297
0.00556236
0.0047182
0.00386335
0.00316184
0.00288327
0.00288561
0.00310137
0.00365461
0.00433658
0.00485912
0.00513824
0.0052167
0.00514846
0.00495585
0.00472673
0.00450311
0.00431142
0.0041789
0.00413986
0.00424189
0.0045174
0.00483537
0.00477735
0.00432132
0.00558198
0.00815573
0.00403872
0.00608306
0.00646076
0.00600609
0.00529481
0.00695891
0.00700376
0.00673928
0.00644507
0.00625128
0.00633666
0.00661139
0.00648511
0.00601773
0.00545162
0.00481727
0.00415265
0.0035652
0.00359751
0.0040213
0.00483004
0.00570919
0.00635424
0.00669347
0.00674767
0.00653528
0.00613849
0.00574228
0.00543509
0.00524648
0.00517418
0.0052058
0.00533625
0.00557241
0.00591245
0.00628367
0.00643016
0.00598006
0.00671063
0.0120649
0.00532614
0.0070022
0.00833076
0.0125231
0.00747714
0.00694452
0.00778051
0.00769115
0.00741398
0.00700877
0.00656731
0.00630455
0.00626171
0.00598516
0.00561334
0.00521129
0.00484219
0.00467704
0.00533024
0.00629905
0.00736517
0.00811861
0.00845751
0.00844617
0.00813992
0.00765767
0.00721598
0.00692119
0.006793
0.00680334
0.00691298
0.00709501
0.00734604
0.00768002
0.00811291
0.00862715
0.00907109
0.00907078
0.00901775
0.0140783
0.00573767
0.0191496
0.0138597
0.00858464
0.00893551
0.00908159
0.00914232
0.0091262
0.00893953
0.00863165
0.00825652
0.00771619
0.00725921
0.00698816
0.0069647
0.00733794
0.00830453
0.00933046
0.010132
0.0105217
0.0105477
0.0103566
0.0100761
0.00980234
0.00961669
0.00954827
0.00958486
0.00969812
0.00986473
0.0100771
0.010345
0.0106913
0.0111434
0.0117028
0.0122357
0.0126623
0.0129749
0.0145341
0.00474082
0.00785973
0.00853533
0.0100042
0.00961602
0.0101489
0.0105327
0.011106
0.0114026
0.011248
0.0106687
0.00977641
0.00902764
0.00867593
0.00879599
0.00946879
0.0106679
0.011799
0.012561
0.0129063
0.0129361
0.0127935
0.0126062
0.0124597
0.0123952
0.0124171
0.0125076
0.0126437
0.0128095
0.013001
0.0132273
0.0135072
0.0138563
0.0142481
0.0145485
0.014567
0.0140657
0.011425
0.00393119
0.00283148
0.0025022
0.003994
0.00374284
0.00349697
0.00317794
0.00297261
0.00291556
0.00293122
0.00290066
0.00283337
0.00276804
0.0027496
0.00276176
0.0028049
0.00288655
0.00300276
0.00312897
0.00322702
0.00328461
0.00330604
0.00330377
0.00329131
0.00327872
0.00327165
0.00327203
0.00327911
0.00329077
0.00330485
0.00332002
0.00333603
0.00335365
0.00337391
0.00339581
0.00341443
0.00343452
0.00348477
0.00357588
0.00357605
0.00322827
)
;

boundaryField
{
    floor
    {
        type            compressible::alphatWallFunction;
        Prt             0.85;
        value           nonuniform List<scalar> 
29
(
0.000275502
0.000124756
0.000123043
7.41813e-05
5.36118e-05
4.69604e-05
4.12553e-05
3.72863e-05
3.24275e-05
3.04737e-05
3.04578e-05
3.23076e-05
3.2946e-05
3.4672e-05
3.87263e-05
4.67442e-05
5.65488e-05
8.47202e-05
0.000132012
0.000127818
0.000127817
0.000185697
0.000228786
0.000233388
0.000275499
0.000124754
0.000177423
0.000211003
0.000224291
)
;
    }
    ceiling
    {
        type            compressible::alphatWallFunction;
        Prt             0.85;
        value           nonuniform List<scalar> 
43
(
0.000385127
0.000343404
0.000528179
0.000497619
0.000467493
0.000428078
0.000402451
0.000395206
0.000397147
0.000393316
0.00038487
0.000376647
0.000374321
0.000375846
0.000381275
0.000391533
0.000406087
0.000421834
0.000434023
0.000441166
0.000443824
0.000443548
0.000442011
0.000440457
0.000439585
0.000439637
0.000440516
0.00044196
0.000443704
0.000445579
0.000447557
0.000449731
0.000452231
0.000454929
0.000457219
0.000459691
0.000465874
0.000477057
0.000477075
0.000434226
0.00088142
0.00103248
0.00097921
)
;
    }
    sWall
    {
        type            compressible::alphatWallFunction;
        Prt             0.85;
        value           uniform 0.00038481;
    }
    nWall
    {
        type            compressible::alphatWallFunction;
        Prt             0.85;
        value           nonuniform List<scalar> 6(0.000315673 0.000416406 0.000533682 0.000617979 0.000520635 0.000434466);
    }
    sideWalls
    {
        type            empty;
    }
    glass1
    {
        type            compressible::alphatWallFunction;
        Prt             0.85;
        value           nonuniform List<scalar> 9(0.000443008 0.000497621 0.00053953 0.000576706 0.000614294 0.000655714 0.000707068 0.000777388 0.000883388);
    }
    glass2
    {
        type            compressible::alphatWallFunction;
        Prt             0.85;
        value           nonuniform List<scalar> 2(0.000697949 0.000746696);
    }
    sun
    {
        type            compressible::alphatWallFunction;
        Prt             0.85;
        value           nonuniform List<scalar> 
14
(
0.000441234
0.000438348
0.000421779
0.000405683
0.000391571
0.000379206
0.000368091
0.000358049
0.000348701
0.000339643
0.000330425
0.000320484
0.000308988
0.000294317
)
;
    }
    heatsource1
    {
        type            compressible::alphatWallFunction;
        Prt             0.85;
        value           nonuniform List<scalar> 3(0.000197023 0.000245046 0.000314275);
    }
    heatsource2
    {
        type            compressible::alphatWallFunction;
        Prt             0.85;
        value           nonuniform List<scalar> 4(0.000268739 0.00024089 0.000240888 0.000242951);
    }
    Table_master
    {
        type            compressible::alphatWallFunction;
        Prt             0.85;
        value           nonuniform List<scalar> 9(0.000106107 8.68485e-05 7.2761e-05 6.09889e-05 4.98347e-05 4.84146e-05 6.21721e-05 7.97255e-05 0.000104047);
    }
    Table_slave
    {
        type            compressible::alphatWallFunction;
        Prt             0.85;
        value           nonuniform List<scalar> 9(0.000140231 0.00012696 0.000115863 0.000106554 9.82339e-05 9.04434e-05 8.29213e-05 7.56862e-05 7.2e-05);
    }
    inlet
    {
        type            fixedValue;
        value           uniform 1.94e-05;
    }
    outlet
    {
        type            zeroGradient;
    }
}


// ************************************************************************* //
