/*--------------------------------*- C++ -*----------------------------------*\
  =========                 |
  \\      /  F ield         | OpenFOAM: The Open Source CFD Toolbox
   \\    /   O peration     | Website:  https://openfoam.org
    \\  /    A nd           | Version:  6
     \\/     M anipulation  |
\*---------------------------------------------------------------------------*/
FoamFile
{
    version     2.0;
    format      ascii;
    class       volScalarField;
    location    "100";
    object      alphat;
}
// * * * * * * * * * * * * * * * * * * * * * * * * * * * * * * * * * * * * * //

dimensions      [1 -1 -1 0 0 0 0];

internalField   nonuniform List<scalar> 
459
(
0.000802601
0.000823987
0.000699468
0.000712363
0.000735492
0.00075957
0.000784105
0.000809546
0.000836638
0.000861493
0.000882551
0.000897651
0.000903753
0.000896357
0.00086715
0.000237216
0.000253711
0.000275456
0.000300837
0.000325415
0.000348007
0.000368554
0.000387567
0.000405759
0.000423983
0.000443228
0.000464318
0.00048819
0.000517147
0.000552446
0.000578926
0.000550036
0.000467638
0.00034311
0.00142567
0.00290017
0.00200567
0.00295469
0.00330725
0.00352395
0.00372619
0.00390707
0.0040481
0.0041599
0.00421291
0.00416135
0.0039256
0.00336947
0.00231917
0.000920013
0.000632605
0.000278056
0.000435249
0.000432025
0.000453149
0.000502972
0.0005688
0.000639885
0.000695112
0.000734938
0.000776265
0.000835812
0.000926453
0.00105591
0.00122344
0.00142691
0.0018518
0.00170799
0.00136648
0.000511868
0.00196994
0.00502915
0.00234456
0.00369945
0.00491626
0.00534265
0.00560015
0.00579731
0.00593357
0.00602097
0.00603129
0.00591407
0.00558522
0.00491824
0.00378708
0.00227453
0.000910228
0.000415542
0.000842081
0.000714194
0.000606971
0.000511214
0.000423018
0.000316522
0.000341113
0.000379553
0.000429016
0.000487511
0.000552657
0.00062517
0.000710276
0.000816907
0.00227574
0.00210311
0.00162317
0.000710974
0.00247514
0.00759029
0.00338675
0.00356958
0.00534409
0.00611575
0.00649987
0.00677509
0.00698322
0.00714089
0.00724398
0.00724765
0.00707266
0.00659642
0.00566199
0.00414644
0.00221742
0.000851647
0.0017162
0.00195789
0.00178749
0.00159646
0.00135715
0.00109078
0.000836318
0.000845071
0.000851194
0.000856131
0.000862412
0.000872737
0.000890642
0.000921905
0.000976503
0.00286765
0.00256932
0.00183984
0.000950215
0.00293382
0.0102362
0.00542449
0.00392726
0.00498761
0.00594717
0.00655
0.00699911
0.00736673
0.00769273
0.0080108
0.00829117
0.00848129
0.00851207
0.00831184
0.00783485
0.007101
0.00619164
0.00531949
0.004954
0.00488893
0.00498025
0.00510016
0.00514128
0.0050832
0.00504899
0.00498431
0.00489041
0.00477295
0.00463897
0.00449784
0.00436198
0.00423891
0.00412388
0.00352868
0.00275265
0.00188349
0.00108191
0.00103123
0.000853453
0.00335344
0.0125201
0.00849352
0.00575628
0.00502498
0.00527243
0.00585288
0.00644319
0.00696118
0.00748242
0.00804871
0.00862896
0.00916654
0.009594
0.00984421
0.00985747
0.00959186
0.00905977
0.00839291
0.00786749
0.00761905
0.00756327
0.00758638
0.0075827
0.00753513
0.00744999
0.00732747
0.00717001
0.00697899
0.00675371
0.00649066
0.0061829
0.00581534
0.00534864
0.00471734
0.00395017
0.00315374
0.00251511
0.00201283
0.00103736
0.00369988
0.0137732
0.011588
0.0086604
0.0067204
0.00566297
0.00548826
0.00575156
0.00612637
0.00662828
0.00728963
0.00807955
0.00891109
0.00967478
0.0102769
0.0106444
0.0107214
0.0105023
0.0100832
0.00964097
0.00930468
0.00909585
0.00896328
0.0088608
0.00875474
0.00862824
0.0084747
0.00829137
0.00807628
0.00782702
0.00754037
0.00721272
0.00683796
0.00639388
0.00582069
0.00503428
0.00403726
0.00315493
0.00257823
0.00139276
0.00370928
0.0121697
0.0110371
0.0103663
0.00882001
0.00736689
0.00645967
0.00600736
0.00586245
0.00596972
0.00633404
0.00696989
0.00782634
0.00876938
0.00964107
0.0103154
0.0107097
0.010791
0.0106204
0.0103232
0.0100161
0.00975555
0.0095478
0.00937715
0.00922288
0.00906769
0.00890004
0.00871227
0.00849911
0.00825716
0.00798535
0.00768649
0.00736719
0.00702983
0.00665186
0.00614408
0.00530354
0.00423881
0.0037196
0.00158135
0.00352996
0.00406871
0.00999274
0.0107833
0.00956584
0.0082251
0.00716857
0.00645093
0.00603042
0.0058625
0.00594232
0.00627787
0.00684976
0.00758904
0.00838733
0.00912231
0.00968661
0.0100139
0.0101087
0.0100357
0.00987436
0.00968355
0.00949466
0.00931856
0.00915418
0.00899463
0.00883166
0.00865762
0.00846612
0.0082524
0.00801421
0.00775311
0.00747503
0.00718793
0.00689852
0.00660625
0.00627312
0.00578635
0.00525241
0.00169797
0.0215085
0.0199483
0.0116864
0.00925669
0.00801728
0.00725199
0.00680467
0.00660315
0.00659101
0.00671734
0.00694244
0.00724671
0.00761565
0.00802513
0.00843131
0.00877833
0.0090243
0.00915855
0.00919741
0.00917006
0.00910269
0.00901294
0.0089085
0.0087923
0.0086647
0.00852462
0.00837
0.00819823
0.00800682
0.00779429
0.00756087
0.00730836
0.00703926
0.00675562
0.00644801
0.00604873
0.00519611
0.00180882
0.00718748
0.0154331
0.0112508
0.00894507
0.00769912
0.00704236
0.00676054
0.00672407
0.006838
0.00703063
0.00725271
0.00747754
0.00769605
0.00790688
0.00810665
0.00828601
0.00843376
0.00854365
0.00861705
0.00866048
0.00868243
0.00868841
0.00866509
0.00861738
0.00855028
0.00846756
0.00837123
0.0082615
0.00813702
0.00799512
0.00783172
0.00764052
0.00741204
0.00713247
0.00678235
0.00632193
0.00572151
0.00201711
0.00161222
0.00184442
0.0047932
0.00441608
0.00380943
0.00326787
0.00284515
0.0025316
0.00230519
0.00214685
0.00204168
0.00197739
0.00194277
0.00192793
0.00192498
0.0019284
0.00193454
0.00194082
0.00194533
0.0019468
0.00194485
0.00193972
0.00193203
0.00192256
0.00191392
0.00190536
0.00189639
0.00188676
0.00187633
0.00186501
0.00185269
0.00183916
0.00182408
0.00180682
0.00178628
0.00176049
0.00172647
0.00168154
0.0016468
0.00144554
)
;

boundaryField
{
    floor
    {
        type            compressible::alphatWallFunction;
        Prt             0.85;
        value           nonuniform List<scalar> 
29
(
0.000123574
2.73504e-05
3.01172e-05
3.37334e-05
3.79128e-05
4.19182e-05
4.55657e-05
4.88566e-05
5.18805e-05
5.47558e-05
5.7619e-05
6.06249e-05
6.38997e-05
6.75835e-05
7.20198e-05
7.7384e-05
8.13801e-05
7.70227e-05
6.44238e-05
4.47673e-05
4.47667e-05
7.11808e-05
0.000100988
0.000135482
0.000123573
2.73499e-05
3.4176e-05
5.62481e-05
0.000121306
)
;
    }
    ceiling
    {
        type            compressible::alphatWallFunction;
        Prt             0.85;
        value           nonuniform List<scalar> 
43
(
0.000226525
0.000257268
0.000623047
0.000577972
0.000504648
0.000438182
0.000385514
0.00034592
0.000317006
0.000296603
0.000282962
0.000274582
0.000270056
0.00026811
0.00026772
0.000268165
0.000268964
0.000269783
0.000270368
0.000270557
0.000270299
0.000269624
0.000268615
0.000267373
0.000266236
0.000265112
0.000263933
0.000262668
0.000261297
0.00025981
0.00025819
0.00025641
0.000254423
0.000252149
0.000249438
0.000246032
0.00024153
0.000235571
0.000230953
0.000203959
0.000470393
0.000536015
0.000901965
)
;
    }
    sWall
    {
        type            compressible::alphatWallFunction;
        Prt             0.85;
        value           uniform 0.000225647;
    }
    nWall
    {
        type            compressible::alphatWallFunction;
        Prt             0.85;
        value           nonuniform List<scalar> 6(0.000121506 0.000147661 0.000196596 0.000252133 0.000279383 0.000203699);
    }
    sideWalls
    {
        type            empty;
    }
    glass1
    {
        type            compressible::alphatWallFunction;
        Prt             0.85;
        value           nonuniform List<scalar> 9(0.000111632 0.00019736 0.000268921 0.000333546 0.000391092 0.000442971 0.000485341 0.000486606 0.000464932);
    }
    glass2
    {
        type            compressible::alphatWallFunction;
        Prt             0.85;
        value           nonuniform List<scalar> 2(0.000221692 0.000237198);
    }
    sun
    {
        type            compressible::alphatWallFunction;
        Prt             0.85;
        value           nonuniform List<scalar> 
14
(
0.000114304
0.000117378
9.92625e-05
0.000101156
0.000104542
0.000108053
0.000111616
0.000115298
0.000119203
0.000122771
0.000125785
0.000127941
0.00012881
0.000127753
)
;
    }
    heatsource1
    {
        type            compressible::alphatWallFunction;
        Prt             0.85;
        value           nonuniform List<scalar> 3(0.000153946 0.000146856 0.000121604);
    }
    heatsource2
    {
        type            compressible::alphatWallFunction;
        Prt             0.85;
        value           nonuniform List<scalar> 4(0.000131096 8.93558e-05 8.93548e-05 0.000129691);
    }
    Table_master
    {
        type            compressible::alphatWallFunction;
        Prt             0.85;
        value           nonuniform List<scalar> 9(4.04645e-05 4.4439e-05 5.05777e-05 5.83635e-05 6.74295e-05 7.73688e-05 8.8262e-05 0.000100849 0.000116361);
    }
    Table_slave
    {
        type            compressible::alphatWallFunction;
        Prt             0.85;
        value           nonuniform List<scalar> 9(0.000119116 0.000120382 0.000121267 0.00012198 0.000122885 0.000124369 0.000126933 0.000131393 0.000139135);
    }
    inlet
    {
        type            fixedValue;
        value           uniform 1.94e-05;
    }
    outlet
    {
        type            zeroGradient;
    }
}


// ************************************************************************* //
