/*--------------------------------*- C++ -*----------------------------------*\
  =========                 |
  \\      /  F ield         | OpenFOAM: The Open Source CFD Toolbox
   \\    /   O peration     | Website:  https://openfoam.org
    \\  /    A nd           | Version:  6
     \\/     M anipulation  |
\*---------------------------------------------------------------------------*/
FoamFile
{
    version     2.0;
    format      ascii;
    class       volScalarField;
    location    "710";
    object      epsilon;
}
// * * * * * * * * * * * * * * * * * * * * * * * * * * * * * * * * * * * * * //

dimensions      [0 2 -3 0 0 0 0];

internalField   nonuniform List<scalar> 
459
(
1.66508e-05
2.87221e-05
4.01849e-05
5.12368e-05
6.43077e-05
8.09767e-05
0.00010008
0.000121747
0.000121607
0.000110423
9.47075e-05
7.74529e-05
6.28832e-05
4.95455e-05
3.83352e-05
4.5245e-05
6.86308e-05
6.32681e-05
5.64879e-05
4.63449e-05
3.74409e-05
2.95581e-05
2.3445e-05
1.88953e-05
1.54949e-05
1.29127e-05
1.09116e-05
9.32951e-06
8.05117e-06
6.96228e-06
5.97199e-06
5.20833e-06
5.10021e-06
1.2115e-05
2.00101e-05
2.59351e-05
3.32428e-05
3.64834e-05
4.41746e-05
5.74414e-05
7.41089e-05
9.1697e-05
9.24849e-05
8.14664e-05
6.73743e-05
5.45306e-05
4.54589e-05
3.91422e-05
3.28458e-05
4.63999e-05
3.13821e-05
0.000132538
0.000294558
0.00011881
7.23544e-05
5.0994e-05
3.83461e-05
3.2018e-05
2.47884e-05
1.90298e-05
1.47376e-05
1.15715e-05
9.21896e-06
7.44721e-06
6.117e-06
5.16252e-06
4.69042e-06
7.71627e-06
1.75143e-05
2.35944e-05
2.12211e-05
2.46619e-05
3.13775e-05
3.38476e-05
4.25671e-05
5.64354e-05
7.34982e-05
9.47291e-05
0.000101014
9.08556e-05
7.42104e-05
5.84623e-05
4.62343e-05
3.76022e-05
3.0871e-05
3.13721e-05
3.7719e-05
0.000148795
0.000332972
0.0001408
8.17507e-05
5.58047e-05
4.32346e-05
7.18619e-05
4.76309e-05
3.28052e-05
2.34586e-05
1.73631e-05
1.32591e-05
1.04344e-05
8.515e-06
7.28086e-06
5.44654e-06
8.07091e-06
3.20762e-05
3.61856e-05
2.19561e-05
2.73178e-05
3.18356e-05
3.34887e-05
4.33695e-05
5.87682e-05
7.85973e-05
0.000105276
0.00011647
0.000105929
8.47038e-05
6.42894e-05
4.87554e-05
3.79809e-05
3.06168e-05
2.80005e-05
3.23894e-05
5.10608e-05
0.000134261
9.66974e-05
7.00789e-05
5.44291e-05
4.44075e-05
3.96966e-05
9.10563e-05
6.87759e-05
5.42952e-05
4.37803e-05
3.54716e-05
2.85014e-05
2.24167e-05
1.69736e-05
1.19069e-05
6.41449e-06
8.27837e-06
6.11295e-05
5.45005e-05
2.50341e-05
3.88197e-05
3.42463e-05
3.50902e-05
4.92739e-05
6.73732e-05
9.30691e-05
0.000125895
0.000142217
0.000128658
9.89179e-05
7.06536e-05
5.05601e-05
3.79459e-05
3.06832e-05
2.7928e-05
3.13716e-05
3.93342e-05
4.45913e-05
4.95441e-05
5.02294e-05
4.77536e-05
4.33173e-05
3.87444e-05
3.81885e-05
3.59364e-05
3.356e-05
3.06432e-05
2.71381e-05
2.31647e-05
1.8846e-05
1.43549e-05
9.55779e-06
6.15885e-06
7.46241e-06
4.03053e-05
5.85801e-05
5.98208e-05
6.50692e-05
0.000158658
3.40913e-05
6.85144e-05
4.1108e-05
4.40212e-05
6.59693e-05
8.52071e-05
0.000118211
0.000160985
0.000182078
0.000161505
0.000117659
7.7387e-05
5.14327e-05
3.79547e-05
3.23559e-05
3.24267e-05
3.86896e-05
4.78824e-05
5.59249e-05
6.13558e-05
6.25195e-05
5.91155e-05
5.26736e-05
4.56045e-05
4.00882e-05
3.58539e-05
3.22402e-05
2.85455e-05
2.45732e-05
2.03899e-05
1.61479e-05
1.21424e-05
8.87255e-06
7.79414e-06
9.99647e-06
1.91322e-05
4.06487e-05
7.66737e-05
0.000267485
0.000388222
5.67555e-05
0.000146942
6.38294e-05
7.57018e-05
9.7577e-05
0.000119933
0.000163158
0.000219025
0.000243301
0.000208606
0.000142919
8.64976e-05
5.58049e-05
4.40473e-05
4.21828e-05
4.70538e-05
5.84326e-05
7.28753e-05
8.4051e-05
8.90356e-05
8.63297e-05
7.73517e-05
6.54668e-05
5.4142e-05
4.48999e-05
3.84578e-05
3.36012e-05
2.92979e-05
2.5379e-05
2.19872e-05
1.93888e-05
1.79165e-05
1.78345e-05
1.92664e-05
2.18044e-05
2.73776e-05
4.88025e-05
0.000192637
0.000875304
0.000971785
0.0001002
0.000256223
0.000107721
0.000138957
0.00015499
0.000186145
0.000245839
0.000318254
0.000338825
0.000276298
0.000179793
0.000108041
8.30426e-05
7.60716e-05
7.85524e-05
8.90855e-05
0.000105803
0.000123647
0.000133385
0.000131643
0.000119527
0.000102857
8.67062e-05
7.2914e-05
6.27145e-05
5.56481e-05
5.06959e-05
4.73419e-05
4.56134e-05
4.57612e-05
4.80433e-05
5.25111e-05
5.8644e-05
6.4868e-05
6.93804e-05
7.49127e-05
0.000102727
0.000427124
0.00320223
0.00248725
0.000162446
0.000322595
0.000233134
0.000243491
0.00026862
0.000321456
0.000409435
0.000497189
0.000488818
0.000372633
0.000251841
0.000205578
0.000189978
0.000189024
0.000195693
0.000208107
0.000223759
0.00023656
0.000238831
0.000229158
0.000212009
0.000192581
0.000175059
0.000160928
0.000150433
0.000143493
0.000139978
0.00014008
0.000144281
0.0001531
0.000166752
0.000184632
0.000204584
0.000222713
0.000236883
0.000236347
0.000271861
0.000753947
0.00444609
0.00344843
0.0002626
0.000509588
0.000647297
0.00076285
0.000847797
0.000842431
0.000680816
0.000562838
0.000536186
0.000540054
0.000552632
0.00056491
0.000575613
0.000585394
0.00059373
0.000598091
0.000595952
0.000587342
0.000574391
0.000559709
0.000545237
0.000532193
0.000521614
0.000514843
0.00051346
0.000519233
0.000534019
0.000559437
0.000596139
0.000642405
0.000692215
0.000735472
0.000759998
0.000753075
0.000769261
0.00113733
0.00329876
0.0020452
0.00307326
0.00473042
0.00420601
0.00303654
0.00225861
0.00182155
0.00157868
0.00149909
0.00150509
0.00154187
0.00158032
0.00160951
0.00163111
0.00165189
0.00167696
0.00170477
0.00172662
0.00173586
0.00173214
0.00171961
0.00170247
0.0016838
0.00166654
0.00165452
0.00165205
0.00166384
0.00169504
0.0017508
0.00183473
0.00194537
0.00206856
0.00216559
0.00217401
0.00209649
0.00193408
0.00191297
0.00202204
0.00124139
0.000964424
0.00119578
0.00160138
0.00195225
0.00187051
0.00167555
0.00150513
0.00136851
0.00125707
0.00118195
0.00114427
0.00112959
0.00112679
0.00113028
0.00113769
0.00114728
0.00115664
0.00116277
0.00116384
0.00116006
0.00115309
0.00114489
0.00113708
0.0011308
0.00112701
0.00112658
0.00113038
0.00113916
0.0011534
0.00117288
0.00119603
0.00121918
0.00123552
0.00123614
0.00122267
0.00119215
0.00119065
0.00123704
0.00120032
0.00079131
)
;

boundaryField
{
    floor
    {
        Cmu             0.09;
        kappa           0.41;
        E               9.8;
        type            epsilonWallFunction;
        value           nonuniform List<scalar> 
29
(
3.83352e-05
4.5245e-05
6.86308e-05
6.32681e-05
5.64879e-05
4.63449e-05
3.74409e-05
2.95581e-05
2.3445e-05
1.88953e-05
1.54949e-05
1.29127e-05
1.09116e-05
9.32951e-06
8.05117e-06
6.96228e-06
5.97199e-06
5.20833e-06
5.10021e-06
1.2115e-05
1.2115e-05
2.35944e-05
3.61856e-05
5.45005e-05
3.83352e-05
4.5245e-05
0.000132538
0.000148795
5.10608e-05
)
;
    }
    ceiling
    {
        Cmu             0.09;
        kappa           0.41;
        E               9.8;
        type            epsilonWallFunction;
        value           nonuniform List<scalar> 
43
(
0.000964424
0.00119578
0.00160138
0.00195225
0.00187051
0.00167555
0.00150513
0.00136851
0.00125707
0.00118195
0.00114427
0.00112959
0.00112679
0.00113028
0.00113769
0.00114728
0.00115664
0.00116277
0.00116384
0.00116006
0.00115309
0.00114489
0.00113708
0.0011308
0.00112701
0.00112658
0.00113038
0.00113916
0.0011534
0.00117288
0.00119603
0.00121918
0.00123552
0.00123614
0.00122267
0.00119215
0.00119065
0.00123704
0.00120032
0.00079131
0.000162446
0.000322595
0.00307326
)
;
    }
    sWall
    {
        Cmu             0.09;
        kappa           0.41;
        E               9.8;
        type            epsilonWallFunction;
        value           uniform 0.000964424;
    }
    nWall
    {
        Cmu             0.09;
        kappa           0.41;
        E               9.8;
        type            epsilonWallFunction;
        value           nonuniform List<scalar> 6(0.000158658 0.000388222 0.000971785 0.0020452 0.00124139 0.00079131);
    }
    sideWalls
    {
        type            empty;
    }
    glass1
    {
        Cmu             0.09;
        kappa           0.41;
        E               9.8;
        type            epsilonWallFunction;
        value           nonuniform List<scalar> 9(1.66508e-05 2.00101e-05 2.12211e-05 2.19561e-05 2.50341e-05 3.40913e-05 5.67555e-05 0.0001002 0.000162446);
    }
    glass2
    {
        Cmu             0.09;
        kappa           0.41;
        E               9.8;
        type            epsilonWallFunction;
        value           nonuniform List<scalar> 2(0.00248725 0.00344843);
    }
    sun
    {
        Cmu             0.09;
        kappa           0.41;
        E               9.8;
        type            epsilonWallFunction;
        value           nonuniform List<scalar> 
14
(
1.66508e-05
2.87221e-05
4.01849e-05
5.12368e-05
6.43077e-05
8.09767e-05
0.00010008
0.000121747
0.000121607
0.000110423
9.47075e-05
7.74529e-05
6.28832e-05
4.95455e-05
)
;
    }
    heatsource1
    {
        Cmu             0.09;
        kappa           0.41;
        E               9.8;
        type            epsilonWallFunction;
        value           nonuniform List<scalar> 3(5.98208e-05 6.50692e-05 0.000158658);
    }
    heatsource2
    {
        Cmu             0.09;
        kappa           0.41;
        E               9.8;
        type            epsilonWallFunction;
        value           nonuniform List<scalar> 4(4.63999e-05 3.13821e-05 3.13821e-05 3.7719e-05);
    }
    Table_master
    {
        Cmu             0.09;
        kappa           0.41;
        E               9.8;
        type            epsilonWallFunction;
        value           nonuniform List<scalar> 9(7.18619e-05 4.76309e-05 3.28052e-05 2.34586e-05 1.73631e-05 1.32591e-05 1.04344e-05 8.515e-06 7.28086e-06);
    }
    Table_slave
    {
        Cmu             0.09;
        kappa           0.41;
        E               9.8;
        type            epsilonWallFunction;
        value           nonuniform List<scalar> 9(9.10563e-05 6.87759e-05 5.42952e-05 4.37803e-05 3.54716e-05 2.85014e-05 2.24167e-05 1.69736e-05 1.19069e-05);
    }
    inlet
    {
        type            turbulentMixingLengthDissipationRateInlet;
        mixingLength    0.01;
        phi             phi;
        k               k;
        value           uniform 0.000101881;
    }
    outlet
    {
        type            zeroGradient;
    }
}


// ************************************************************************* //
