/*--------------------------------*- C++ -*----------------------------------*\
  =========                 |
  \\      /  F ield         | OpenFOAM: The Open Source CFD Toolbox
   \\    /   O peration     | Website:  https://openfoam.org
    \\  /    A nd           | Version:  6
     \\/     M anipulation  |
\*---------------------------------------------------------------------------*/
FoamFile
{
    version     2.0;
    format      ascii;
    class       volScalarField;
    location    "500";
    object      epsilon;
}
// * * * * * * * * * * * * * * * * * * * * * * * * * * * * * * * * * * * * * //

dimensions      [0 2 -3 0 0 0 0];

internalField   nonuniform List<scalar> 
459
(
0.000101745
0.000141477
0.000164553
0.000195636
0.000229347
0.000268709
0.000311736
0.000352179
0.000382685
0.000392328
0.000342568
0.000270187
0.000197022
0.00013644
9.10552e-05
2.21624e-05
5.66723e-05
7.6967e-05
8.16078e-05
8.02658e-05
7.4141e-05
6.28461e-05
5.19806e-05
4.30994e-05
3.60516e-05
3.04444e-05
2.59755e-05
2.23572e-05
1.93503e-05
1.67583e-05
1.43995e-05
1.20808e-05
9.04583e-06
6.45781e-06
0.000195246
0.000233758
0.000128582
0.000132349
0.000144492
0.000166851
0.000198509
0.0002321
0.00025736
0.000264866
0.000241003
0.000195662
0.000153387
0.000120479
9.12779e-05
0.000146535
8.26172e-05
7.65844e-05
0.000148665
8.50917e-05
6.95353e-05
6.14058e-05
5.60454e-05
5.70936e-05
4.78907e-05
3.88528e-05
3.14029e-05
2.54845e-05
2.08531e-05
1.72323e-05
1.43821e-05
1.22639e-05
1.11697e-05
1.19396e-05
9.82969e-06
1.09743e-05
0.000307588
0.000426574
0.000127408
0.000117261
0.000130339
0.000156647
0.000193001
0.000229705
0.000258854
0.000272219
0.000256782
0.000217501
0.000175118
0.000137711
0.000105614
0.000101447
0.000129606
9.34052e-05
0.000104229
8.38599e-05
7.30658e-05
6.51955e-05
6.39856e-05
0.000151564
0.000101813
7.09934e-05
5.14936e-05
3.87409e-05
3.01364e-05
2.42105e-05
2.01081e-05
1.74202e-05
1.34469e-05
1.27916e-05
1.1691e-05
1.40974e-05
0.000448508
0.000772424
0.000152294
0.000110794
0.000124223
0.000157604
0.000201749
0.000240565
0.000274599
0.000293998
0.000281749
0.000241658
0.000194377
0.000153918
0.000121409
0.000104445
0.000105958
0.000184884
0.000134872
0.00010586
9.10756e-05
8.11046e-05
7.29646e-05
7.27779e-05
0.000200924
0.000151974
0.000123126
0.00010423
9.01725e-05
7.80006e-05
6.74675e-05
5.73647e-05
4.68282e-05
2.72252e-05
1.84495e-05
1.87216e-05
1.95377e-05
0.000634585
0.00133034
0.000237707
0.000116235
0.000127394
0.000182532
0.000236671
0.000274968
0.000313662
0.000335597
0.000319866
0.000269293
0.000208588
0.00015857
0.000124213
0.00010552
0.000105391
0.000116396
0.00011307
0.000109376
0.000103705
9.52502e-05
8.50692e-05
7.61431e-05
7.70598e-05
7.31527e-05
6.90734e-05
6.47923e-05
5.99273e-05
5.42403e-05
4.80271e-05
4.16002e-05
3.53376e-05
2.75383e-05
2.08228e-05
2.25504e-05
2.16401e-05
2.89223e-05
2.96275e-05
3.05074e-05
0.000892991
0.00204378
0.000493636
0.000177578
0.000165688
0.000266103
0.00031004
0.00034137
0.000379745
0.000402
0.00037663
0.000306026
0.000223412
0.000158358
0.000119703
0.00010456
0.000108664
0.000120854
0.000128511
0.000129205
0.000123273
0.000112195
9.85441e-05
8.55626e-05
7.72977e-05
7.31298e-05
7.06532e-05
6.7883e-05
6.40674e-05
5.89307e-05
5.23012e-05
4.47496e-05
3.74911e-05
3.09681e-05
2.51624e-05
2.42425e-05
2.4941e-05
2.7916e-05
0.000106766
7.19186e-05
0.0012
0.00257396
0.00109726
0.000519618
0.000440301
0.000447588
0.000435536
0.000447291
0.000483882
0.00050159
0.000456442
0.000354465
0.000242276
0.000160509
0.000119714
0.00011095
0.000121884
0.000138921
0.000149193
0.000149075
0.000140314
0.000126176
0.000110415
9.67012e-05
8.81093e-05
8.45589e-05
8.26633e-05
8.0359e-05
7.72124e-05
7.3388e-05
6.89986e-05
6.26997e-05
5.5719e-05
4.98954e-05
4.57583e-05
4.44157e-05
4.56962e-05
5.24583e-05
0.000163267
0.000123873
0.00129623
0.0032091
0.00178159
0.00122025
0.000933509
0.000720841
0.000612186
0.000602013
0.000640184
0.000644761
0.000560268
0.000409629
0.000261968
0.000169193
0.000136037
0.000135417
0.000149991
0.000166422
0.000173127
0.000168634
0.000156746
0.000142148
0.000128754
0.000119013
0.000113493
0.000110737
0.000108291
0.00010493
0.000101107
9.84821e-05
9.89996e-05
0.000103767
0.000109933
0.000118664
0.000137657
0.000167517
0.000216714
0.000274403
0.00102036
0.000275437
0.00124026
0.00207121
0.00157413
0.00118739
0.000913843
0.000756179
0.000730447
0.000800731
0.000871757
0.000838024
0.000668191
0.000445757
0.000277879
0.000211523
0.000193126
0.000195619
0.000206392
0.000215913
0.000217691
0.000211437
0.000202305
0.000193715
0.000187731
0.000184575
0.000182539
0.000179417
0.000173096
0.000162579
0.00014926
0.000137153
0.000131364
0.000136148
0.00015345
0.000182785
0.0002265
0.000288092
0.000368222
0.000464167
0.000568463
0.0003192
0.000283072
0.000441973
0.000651704
0.000896125
0.00115827
0.00131918
0.00127812
0.00101937
0.000632752
0.000448229
0.000377152
0.000357304
0.00035661
0.000363551
0.000372448
0.000379717
0.00038399
0.000386249
0.000388045
0.000391308
0.000396973
0.000403393
0.000405571
0.000400371
0.000384725
0.000355202
0.000311969
0.000261913
0.000216394
0.00018945
0.000178378
0.000186757
0.000215768
0.000265166
0.000328864
0.000390673
0.000442094
0.000413801
0.0005504
0.0038
0.00406402
0.00379341
0.00315606
0.00253107
0.00193883
0.00143762
0.0010739
0.000900884
0.000833529
0.000817119
0.000822277
0.000839169
0.000865229
0.000897928
0.0009327
0.000966282
0.000998221
0.0010291
0.00105806
0.0010832
0.00110267
0.0011125
0.00110617
0.00107157
0.00100037
0.000896828
0.00077108
0.000636147
0.000516093
0.000424167
0.000367798
0.00034453
0.000343255
0.000356071
0.00075085
0.000546658
0.000972073
0.00113877
0.00133147
0.00211799
0.00199724
0.00169901
0.00143333
0.00124761
0.00108319
0.000929832
0.000804762
0.000725605
0.000685498
0.000668645
0.000664376
0.000666007
0.000668988
0.000670423
0.000669398
0.00066647
0.000662468
0.000657735
0.000652068
0.000644814
0.000634725
0.000619564
0.000595805
0.000563225
0.000524972
0.000482925
0.000441195
0.000404724
0.000375242
0.000354491
0.000342806
0.000338354
0.000334675
0.000319136
0.000317105
0.00029873
)
;

boundaryField
{
    floor
    {
        Cmu             0.09;
        kappa           0.41;
        E               9.8;
        type            epsilonWallFunction;
        value           nonuniform List<scalar> 
29
(
9.10552e-05
2.21624e-05
5.66723e-05
7.6967e-05
8.16078e-05
8.02658e-05
7.4141e-05
6.28461e-05
5.19806e-05
4.30994e-05
3.60516e-05
3.04444e-05
2.59755e-05
2.23572e-05
1.93503e-05
1.67583e-05
1.43995e-05
1.20808e-05
9.04583e-06
6.45781e-06
6.45781e-06
1.09743e-05
1.40974e-05
1.95377e-05
9.10552e-05
2.21624e-05
7.65844e-05
9.34052e-05
0.000184884
)
;
    }
    ceiling
    {
        Cmu             0.09;
        kappa           0.41;
        E               9.8;
        type            epsilonWallFunction;
        value           nonuniform List<scalar> 
43
(
0.000972073
0.00113877
0.00133147
0.00211799
0.00199724
0.00169901
0.00143333
0.00124761
0.00108319
0.000929832
0.000804762
0.000725605
0.000685498
0.000668645
0.000664376
0.000666007
0.000668988
0.000670423
0.000669398
0.00066647
0.000662468
0.000657735
0.000652068
0.000644814
0.000634725
0.000619564
0.000595805
0.000563225
0.000524972
0.000482925
0.000441195
0.000404724
0.000375242
0.000354491
0.000342806
0.000338354
0.000334675
0.000319136
0.000317105
0.00029873
0.00124026
0.00207121
0.0005504
)
;
    }
    sWall
    {
        Cmu             0.09;
        kappa           0.41;
        E               9.8;
        type            epsilonWallFunction;
        value           uniform 0.000972073;
    }
    nWall
    {
        Cmu             0.09;
        kappa           0.41;
        E               9.8;
        type            epsilonWallFunction;
        value           nonuniform List<scalar> 6(3.05074e-05 7.19186e-05 0.000123873 0.000413801 0.000546658 0.00029873);
    }
    sideWalls
    {
        type            empty;
    }
    glass1
    {
        Cmu             0.09;
        kappa           0.41;
        E               9.8;
        type            epsilonWallFunction;
        value           nonuniform List<scalar> 9(0.000101745 0.000195246 0.000307588 0.000448508 0.000634585 0.000892991 0.0012 0.00129623 0.00124026);
    }
    glass2
    {
        Cmu             0.09;
        kappa           0.41;
        E               9.8;
        type            epsilonWallFunction;
        value           nonuniform List<scalar> 2(0.000275437 0.0003192);
    }
    sun
    {
        Cmu             0.09;
        kappa           0.41;
        E               9.8;
        type            epsilonWallFunction;
        value           nonuniform List<scalar> 
14
(
0.000101745
0.000141477
0.000164553
0.000195636
0.000229347
0.000268709
0.000311736
0.000352179
0.000382685
0.000392328
0.000342568
0.000270187
0.000197022
0.00013644
)
;
    }
    heatsource1
    {
        Cmu             0.09;
        kappa           0.41;
        E               9.8;
        type            epsilonWallFunction;
        value           nonuniform List<scalar> 3(2.89223e-05 2.96275e-05 3.05074e-05);
    }
    heatsource2
    {
        Cmu             0.09;
        kappa           0.41;
        E               9.8;
        type            epsilonWallFunction;
        value           nonuniform List<scalar> 4(0.000146535 8.26172e-05 8.26172e-05 0.000129606);
    }
    Table_master
    {
        Cmu             0.09;
        kappa           0.41;
        E               9.8;
        type            epsilonWallFunction;
        value           nonuniform List<scalar> 9(0.000151564 0.000101813 7.09934e-05 5.14936e-05 3.87409e-05 3.01364e-05 2.42105e-05 2.01081e-05 1.74202e-05);
    }
    Table_slave
    {
        Cmu             0.09;
        kappa           0.41;
        E               9.8;
        type            epsilonWallFunction;
        value           nonuniform List<scalar> 9(0.000200924 0.000151974 0.000123126 0.00010423 9.01725e-05 7.80006e-05 6.74675e-05 5.73647e-05 4.68282e-05);
    }
    inlet
    {
        type            turbulentMixingLengthDissipationRateInlet;
        mixingLength    0.01;
        phi             phi;
        k               k;
        value           uniform 0.000101881;
    }
    outlet
    {
        type            zeroGradient;
    }
}


// ************************************************************************* //
