/*--------------------------------*- C++ -*----------------------------------*\
  =========                 |
  \\      /  F ield         | OpenFOAM: The Open Source CFD Toolbox
   \\    /   O peration     | Website:  https://openfoam.org
    \\  /    A nd           | Version:  6
     \\/     M anipulation  |
\*---------------------------------------------------------------------------*/
FoamFile
{
    version     2.0;
    format      ascii;
    class       surfaceScalarField;
    location    "500";
    object      phi;
}
// * * * * * * * * * * * * * * * * * * * * * * * * * * * * * * * * * * * * * //

dimensions      [1 0 -1 0 0 0 0];

internalField   nonuniform List<scalar> 
852
(
-0.00156922
0.00158131
-0.00229367
0.000724439
-0.00278963
0.000495961
-0.00309505
0.000305409
-0.00318795
9.28946e-05
-0.00303896
-0.000148995
-0.00262227
-0.000416697
-0.001951
-0.000671266
-0.00109409
-0.000856926
-0.000181531
-0.000912562
0.000533267
-0.000714809
0.000961524
-0.000428267
0.00109092
-0.000129406
0.000850213
0.000240698
0.000848672
-4.2117e-05
3.98388e-05
9.36184e-06
-5.14986e-05
0.000341969
-0.000332624
0.000729677
-0.000387726
0.0010642
-0.000334536
0.00131052
-0.000246341
0.0014439
-0.000133399
0.00149866
-5.47787e-05
0.00152353
-2.48863e-05
0.00153563
-1.21195e-05
0.00153824
-2.63335e-06
0.00153161
6.60939e-06
0.00151203
1.95589e-05
0.00146724
4.47755e-05
0.0013679
9.93186e-05
0.00116271
0.000205169
0.000805477
0.000357209
0.000230112
0.000575343
0.000227019
-0.00119239
0.00280793
-0.00183518
0.00136723
-0.00231907
0.000979847
-0.00262552
0.000611858
-0.00273146
0.000198827
-0.00260795
-0.000272508
-0.00223889
-0.000785768
-0.00165717
-0.00125299
-0.000957889
-0.00155622
-0.000272931
-0.00159753
0.000312512
-0.00130026
0.000732956
-0.000848722
0.00098047
-0.00037693
0.00112088
0.000100277
0.00141343
0.000556114
0.000746352
0.000667014
0.000746291
-7.45569e-05
0.000109193
0.000397096
-0.000523167
0.00072456
-0.000660103
0.00100236
-0.000665546
0.00123361
-0.000565802
0.0013998
-0.000412538
0.00143729
-0.000170912
0.00144502
-6.25312e-05
0.00145271
-3.25849e-05
0.00145906
-1.8496e-05
0.00146313
-6.72298e-06
0.00146495
4.77367e-06
0.0014635
2.09923e-05
0.00145465
5.36e-05
0.00140826
0.000145693
0.00122456
0.00038884
0.000911736
0.000670014
0.000525662
0.000961394
0.000744254
-0.000886958
0.0037493
-0.00140832
0.00188858
-0.00183472
0.00140624
-0.002113
0.000890137
-0.00222266
0.000308482
-0.00211824
-0.000376939
-0.00178191
-0.0011221
-0.00127139
-0.00176352
-0.000691109
-0.0021365
-0.00014885
-0.0021398
0.000314732
-0.00176386
0.000678087
-0.00121209
0.000927429
-0.000626285
0.00108656
-5.88658e-05
0.00116776
0.00047491
0.000913948
0.000920811
0.00166023
0.000517914
-0.000416845
0.000835808
-0.000841075
0.00109263
-0.000916942
0.00125367
-0.000826599
0.00137624
-0.00068839
0.00152646
-0.000562777
0.00135569
0.00129329
0.00126085
0.00124249
0.0012359
0.00124081
0.00126194
0.00131567
0.0014615
0.00125973
0.000590586
0.00102701
0.000902717
0.00069214
0.00129624
0.00142297
-0.000651121
0.00447329
-0.00102434
0.00226179
-0.00132185
0.00170375
-0.00152473
0.00109301
-0.00161035
0.000394091
-0.00149613
-0.000491162
-0.0011762
-0.00144203
-0.000743023
-0.00219669
-0.000292479
-0.00258705
0.000103507
-0.00253579
0.000446293
-0.00210666
0.000724202
-0.00149001
0.000931151
-0.000833248
0.00108988
-0.000217605
0.00124121
0.000323565
0.00144309
0.000718918
0.00219201
0.000911301
0.00193218
0.000251634
0.00188576
-0.000370435
0.00168141
-0.000636732
0.00152111
-0.000756652
0.0014262
-0.000731708
0.00136513
-0.000627335
0.00126562
-0.00046329
0.00147003
-0.000204583
0.00157602
-0.00010617
0.00164967
-7.38232e-05
0.00170567
-5.61823e-05
0.00174063
-3.51315e-05
0.00174022
2.31999e-07
0.00168183
5.82098e-05
0.00153234
0.000149311
0.00123488
0.000297279
0.00120264
0.000622801
0.0011055
0.000999825
0.000951203
0.00145052
0.00235644
-0.000474449
0.00503736
-0.000701408
0.00248875
-0.00078754
0.00178988
-0.000849772
0.00115524
-0.000857168
0.000401482
-0.000679429
-0.000668906
-0.000377559
-0.0017439
-5.50755e-05
-0.00251918
0.000225577
-0.00286771
0.000450592
-0.00276082
0.000642081
-0.00229816
0.000795115
-0.00164306
0.000915701
-0.00095385
0.00103508
-0.000336997
0.0012023
0.000156329
0.00144691
0.000474299
0.00179616
0.000562038
0.00187261
0.000175171
0.00173309
-0.000230933
0.00156401
-0.000467658
0.00138209
-0.000574753
0.00122654
-0.00057617
0.00110419
-0.000505009
0.00102397
-0.000383088
0.00105378
-0.00023442
0.0010941
-0.000146509
0.00113276
-0.000112509
0.00117407
-9.75205e-05
0.00121643
-7.7518e-05
0.00125093
-3.43013e-05
0.00126199
4.71235e-05
0.00123573
0.00017554
0.0011796
0.000353381
0.00118858
0.000613798
0.00129551
0.000892863
0.00168652
0.00105949
0.00265308
0.00138985
0.0017046
0.000948252
0.00102293
0.000681433
0.00105547
-0.000401921
0.00554391
-0.000486339
0.00257316
-0.00026924
0.00157277
-0.000105473
0.00099147
7.53042e-05
0.000220699
0.000348556
-0.000942161
0.000593751
-0.0019891
0.000755859
-0.00268129
0.000831856
-0.00294371
0.000855302
-0.00278427
0.000848645
-0.00229152
0.000826116
-0.00162055
0.000808684
-0.000936438
0.000829543
-0.000357874
0.000921792
6.40646e-05
0.00108685
0.000309224
0.0013029
0.000345977
0.00135957
0.00011849
0.00126751
-0.000138889
0.001118
-0.00031817
0.000947344
-0.000404113
0.000785224
-0.000414072
0.000651252
-0.000371061
0.000563473
-0.000295334
0.000540022
-0.000210996
0.000555618
-0.000162132
0.000591065
-0.000147986
0.000640547
-0.000147032
0.000702341
-0.000139342
0.00077519
-0.000107182
0.000851402
-2.91192e-05
0.000920747
0.000106163
0.000987971
0.000286127
0.00109816
0.000503582
0.00127593
0.000715065
0.0014959
0.00083949
0.00177655
0.00110918
0.0015822
0.00114257
0.000962424
0.00130119
0.00205122
-0.000406036
0.0060684
-0.000221716
0.00238884
0.000408701
0.000942352
0.000847051
0.000553114
0.00123819
-0.000170444
0.00154817
-0.00125214
0.00168463
-0.00212556
0.00165013
-0.00264678
0.00148441
-0.00277799
0.00124645
-0.00254633
0.000986135
-0.00203122
0.000742869
-0.00137731
0.000554731
-0.000748324
0.000455829
-0.000258992
0.000464703
5.51726e-05
0.000561186
0.000212724
0.000685593
0.000221554
0.000715902
8.8163e-05
0.00064803
-7.10361e-05
0.000519405
-0.000189566
0.000364877
-0.00024961
0.000212636
-0.000261856
8.5375e-05
-0.000243827
1.71329e-06
-0.000211701
-2.78546e-05
-0.000181458
-1.71417e-05
-0.000172875
1.68797e-05
-0.000182038
6.60791e-05
-0.000196263
0.000129892
-0.000203187
0.000214084
-0.000191407
0.000330103
-0.000145171
0.00047394
-3.77067e-05
0.000629998
0.000130037
0.000810074
0.000323475
0.00101714
0.000507967
0.00120611
0.000650496
0.00144151
0.000873741
0.00158639
0.000997672
0.0014022
0.00148535
0.00348807
0.00118007
0.00502173
0.00162718
0.00194172
0.00194677
0.000622758
0.00240653
9.33409e-05
0.00288436
-0.000648275
0.00305343
-0.00142121
0.00292851
-0.00200064
0.00256612
-0.0022844
0.00205126
-0.00226313
0.00147832
-0.00197341
0.00092079
-0.00147372
0.000445623
-0.000902173
0.000105463
-0.000408192
-7.06438e-05
-8.29096e-05
-0.000105656
9.01643e-05
-5.4077e-05
0.000161125
1.33023e-05
0.000154154
2.19345e-05
7.95082e-05
-4.08133e-05
-8.31275e-06
-0.00015426
-7.61459e-05
-0.000288271
-0.000115627
-0.000417037
-0.00013312
-0.00052105
-0.000139844
-0.000587933
-0.000144849
-0.000615234
-0.000154189
-0.000615133
-0.00017301
-0.00059985
-0.000197355
-0.000576593
-0.000219554
-0.000546838
-0.000232976
-0.000504925
-0.000233353
-0.000433903
-0.000216226
-0.000299021
-0.000172621
-9.91787e-05
-6.9838e-05
0.000134236
9.00285e-05
0.000370065
0.000272107
0.00056502
0.000455511
0.00078118
0.000657552
0.000969331
0.000809492
0.00059684
0.00185781
0.00422022
0.00515508
0.00708355
0.00647245
0.00123386
0.00610456
0.00046122
0.00568106
-0.00022477
0.00503093
-0.000771078
0.00417865
-0.00114834
0.00320243
-0.00130818
0.00219808
-0.00125879
0.00125922
-0.00103457
0.000431598
-0.00064613
-0.000178207
-0.000292403
-0.000535533
-5.08959e-05
-0.000688412
6.99419e-05
-0.000721973
0.0001237
-0.000702216
0.000141342
-0.000678542
0.000130453
-0.00069145
9.23881e-05
-0.000746388
4.65962e-05
-0.000831618
9.05245e-06
-0.000930041
-1.72366e-05
-0.00102442
-3.87737e-05
-0.00110268
-6.16187e-05
-0.0011594
-8.81648e-05
-0.00119761
-0.000116015
-0.00122609
-0.000144564
-0.00125286
-0.000170618
-0.00128584
-0.000186611
-0.00133465
-0.000184198
-0.00140974
-0.00015829
-0.00152244
-0.000103561
-0.00167619
-1.89032e-05
-0.00186983
0.000123778
-0.00211594
0.000336107
-0.00247691
0.00063305
-0.00305542
0.00103399
-0.00395661
0.00155872
-0.0052199
0.00207276
-0.0053373
0.00197518
-0.000970994
0.00592051
0.00179055
0.00530288
0.00107886
0.00472235
0.000355777
0.00396469
-1.34227e-05
0.0030026
-0.000186258
0.00195119
-0.000256789
0.000920985
-0.000228609
-8.24716e-06
-0.000105382
-0.000701342
4.69273e-05
-0.00108658
9.28031e-05
-0.00125947
0.000121962
-0.00131798
0.000128421
-0.00132456
0.00013025
-0.00131326
0.000130008
-0.00130557
0.000122729
-0.00131793
0.000104723
-0.00135202
8.06479e-05
-0.00139962
5.66137e-05
-0.00145113
3.424e-05
-0.00150307
1.31288e-05
-0.00155594
-8.77757e-06
-0.00161151
-3.26361e-05
-0.00167248
-5.50761e-05
-0.00174165
-7.54316e-05
-0.00181895
-9.33498e-05
-0.00190342
-0.000102167
-0.00199543
-9.22255e-05
-0.00209395
-5.98002e-05
-0.0021997
2.15705e-06
-0.00231036
9.17249e-05
-0.00241185
0.000225236
-0.002502
0.000426227
-0.00257588
0.000706903
-0.00261941
0.00107749
-0.0026011
0.00154038
-0.00240248
0.00187411
-0.00110836
0.000681027
-0.002044
-0.000107021
0.00188736
2.82651e-05
0.000943562
-0.000122361
0.000506369
-0.00036257
0.000226755
-0.000654894
0.000106032
-0.000999493
8.77728e-05
-0.00134087
0.000112724
-0.00159392
0.000147634
-0.00171767
0.000170642
-0.00178358
0.000158677
-0.00180025
0.000138593
-0.00179076
0.000118896
-0.0017666
0.000106061
-0.00173545
9.88227e-05
-0.00170514
9.2382e-05
-0.00168316
8.27096e-05
-0.00167234
6.97916e-05
-0.00167127
5.55007e-05
-0.00167817
4.11051e-05
-0.00169219
2.71162e-05
-0.00171562
1.46159e-05
-0.00175337
5.07315e-06
-0.00180649
-1.99107e-06
-0.00187649
-5.45712e-06
-0.00196529
-4.58262e-06
-0.00206864
1.14448e-06
-0.00217449
1.35922e-05
-0.00226872
3.43985e-05
-0.00233115
6.45593e-05
-0.00235779
0.000118328
-0.00232677
0.000194191
-0.00220489
0.000304317
-0.00195849
0.00046048
-0.00153157
0.000650534
-0.000768124
0.000776908
0.000449975
0.000655983
0.00127754
-0.000146563
-0.000729661
-0.00544632
-0.00653138
-0.00465833
-0.00372953
-0.00324002
-0.00303241
-0.00294754
-0.00288263
-0.00279438
-0.00267283
-0.00252975
-0.0023997
-0.00229034
-0.00220099
-0.00212462
-0.00205552
-0.00199288
-0.0019399
-0.00189985
-0.00187408
-0.0018627
-0.00186529
-0.00188038
-0.00190502
-0.00193678
-0.00197213
-0.00200685
-0.00203624
-0.0020537
-0.002051
-0.00201887
-0.00193368
-0.00177327
-0.00150323
-0.00107733
-0.000461519
0.000280539
0.000901213
0.00071924
)
;

boundaryField
{
    floor
    {
        type            calculated;
        value           nonuniform List<scalar> 
29
(
0
0
0
0
0
0
0
0
0
0
0
0
0
0
0
0
0
0
0
0
3.06694e-06
8.40223e-06
1.33977e-05
1.77134e-05
1.53167e-06
2.25375e-06
5.18312e-06
8.11034e-06
8.18224e-06
)
;
    }
    ceiling
    {
        type            calculated;
        value           nonuniform List<scalar> 
43
(
1.57524e-05
1.49283e-05
1.42755e-05
1.47215e-05
1.68156e-05
1.91038e-05
2.11323e-05
2.28178e-05
2.44339e-05
2.60538e-05
2.75244e-05
2.85829e-05
2.91974e-05
2.95098e-05
2.96463e-05
2.96911e-05
2.96981e-05
2.96977e-05
2.96981e-05
2.96952e-05
2.96858e-05
2.96733e-05
2.96671e-05
2.96805e-05
2.97331e-05
2.98571e-05
3.01058e-05
3.05009e-05
3.10235e-05
3.16709e-05
3.23961e-05
3.31089e-05
3.375e-05
3.42449e-05
3.45498e-05
3.46916e-05
3.48204e-05
3.52787e-05
3.53799e-05
3.64649e-05
1.57665e-05
1.3247e-05
1.02094e-05
)
;
    }
    sWall
    {
        type            calculated;
        value           uniform -5.03394e-05;
    }
    nWall
    {
        type            calculated;
        value           nonuniform List<scalar> 6(-3.27727e-05 -3.33439e-05 -3.46841e-05 -3.53802e-05 -3.68315e-05 -4.6916e-05);
    }
    sideWalls
    {
        type            empty;
        value           nonuniform 0();
    }
    glass1
    {
        type            calculated;
        value           nonuniform List<scalar> 9(-1.20937e-05 -3.42389e-05 -5.44133e-05 -7.28724e-05 -8.96297e-05 -0.000104636 -0.00011845 -0.000133408 -0.000149123);
    }
    glass2
    {
        type            calculated;
        value           nonuniform List<scalar> 2(-0.000135332 -0.000146109);
    }
    sun
    {
        type            calculated;
        value           uniform 0;
    }
    heatsource1
    {
        type            calculated;
        value           nonuniform List<scalar> 3(2.06299e-07 2.0671e-07 2.06983e-07);
    }
    heatsource2
    {
        type            calculated;
        value           nonuniform List<scalar> 4(5.1778e-08 5.18772e-08 0 0);
    }
    Table_master
    {
        type            calculated;
        value           nonuniform List<scalar> 9(-1.55073e-07 -1.55184e-07 -1.55213e-07 -1.5523e-07 -1.55239e-07 -1.55242e-07 -1.55237e-07 -1.5522e-07 -1.55172e-07);
    }
    Table_slave
    {
        type            calculated;
        value           nonuniform List<scalar> 9(1.54966e-07 1.5498e-07 1.54948e-07 1.54921e-07 1.54902e-07 1.54897e-07 1.54896e-07 1.54916e-07 1.54971e-07);
    }
    inlet
    {
        type            calculated;
        value           uniform -0.0064772;
    }
    outlet
    {
        type            calculated;
        value           nonuniform List<scalar> 2(0.00548088 0.0010701);
    }
}


// ************************************************************************* //
