/*--------------------------------*- C++ -*----------------------------------*\
  =========                 |
  \\      /  F ield         | OpenFOAM: The Open Source CFD Toolbox
   \\    /   O peration     | Website:  https://openfoam.org
    \\  /    A nd           | Version:  6
     \\/     M anipulation  |
\*---------------------------------------------------------------------------*/
FoamFile
{
    version     2.0;
    format      ascii;
    class       volScalarField;
    location    "1200";
    object      nut;
}
// * * * * * * * * * * * * * * * * * * * * * * * * * * * * * * * * * * * * * //

dimensions      [0 2 -1 0 0 0 0];

internalField   nonuniform List<scalar> 
459
(
0.00105151
0.00116727
0.00117955
0.00111556
0.000949052
0.00083084
0.000756306
0.000708658
0.000677403
0.000661135
0.000655279
0.000655403
0.000656774
0.000654105
0.000642416
0.000408687
0.000390619
0.000325773
0.000269518
0.000244723
0.000242342
0.000247394
0.00025441
0.000261439
0.000268552
0.000275286
0.000283938
0.000299771
0.000328866
0.000377819
0.000438701
0.000492846
0.00059424
0.000539623
0.00138211
0.00398311
0.00501761
0.00550167
0.00474259
0.00371471
0.00301121
0.00282134
0.00294707
0.00294979
0.00281227
0.00263911
0.00241626
0.0020712
0.00151248
0.000721248
0.000496079
0.000533274
0.00141887
0.00125599
0.00109432
0.00103483
0.00101421
0.00100519
0.00101453
0.0010284
0.00104429
0.00106578
0.00109875
0.00115949
0.00128207
0.00150553
0.00188545
0.00196095
0.00235558
0.000746144
0.00144247
0.00204847
0.0025552
0.00345209
0.00429147
0.00471898
0.00455168
0.00379062
0.00372917
0.00406001
0.00402799
0.00379724
0.00348141
0.00302807
0.00236762
0.00153772
0.00076602
0.000620461
0.00136627
0.00101478
0.00074659
0.000583995
0.000469049
0.000383376
0.0004028
0.000426877
0.000455627
0.000491097
0.000536184
0.000595389
0.000676791
0.000795925
0.00232691
0.00249484
0.002882
0.000876344
0.00274706
0.00289595
0.0028077
0.00285388
0.0032763
0.00393716
0.00445376
0.00440098
0.00421209
0.0046826
0.00500019
0.00491593
0.00469808
0.00434041
0.00374066
0.00280805
0.00162982
0.0007638
0.00153828
0.00179803
0.00147684
0.00121368
0.00100284
0.000823121
0.000675369
0.000688033
0.000700806
0.000714929
0.0007326
0.000756043
0.000788362
0.000835193
0.00090817
0.00267026
0.00262911
0.00233687
0.000921429
0.00313761
0.00345263
0.00319684
0.00298698
0.00312486
0.00363846
0.00425085
0.0045261
0.00442648
0.0050048
0.00568377
0.0058722
0.00591256
0.00591106
0.00583445
0.00562858
0.00524614
0.00471578
0.00429175
0.00403298
0.00385906
0.00378641
0.00376992
0.00377169
0.00375581
0.00373854
0.00370204
0.00365535
0.00360407
0.00355329
0.00350829
0.00347563
0.00345841
0.00344216
0.00304305
0.00246204
0.00182561
0.00116325
0.0011898
0.00112669
0.00342383
0.00397544
0.00362776
0.003128
0.00310627
0.00353496
0.00415487
0.00453526
0.00454497
0.00511168
0.00596011
0.00634181
0.00654004
0.00672487
0.00688011
0.00695185
0.00687716
0.00662251
0.00627562
0.00596035
0.0057601
0.00565198
0.00559651
0.0055566
0.00550285
0.00542664
0.00533772
0.00524063
0.00513855
0.0050339
0.00492832
0.00482341
0.00471989
0.00460675
0.00444759
0.00425652
0.00407763
0.0039793
0.00394328
0.00142108
0.00372513
0.00427514
0.00402926
0.00320718
0.00311112
0.00354912
0.00416541
0.00455598
0.00460823
0.00496839
0.00583954
0.00634998
0.00663607
0.006934
0.0072392
0.00749204
0.00762054
0.00757761
0.00740232
0.00718655
0.0069917
0.00683774
0.00671593
0.00660436
0.00648469
0.00635598
0.00621961
0.00607701
0.00593038
0.00578278
0.00563836
0.00550381
0.00538973
0.00530545
0.0052473
0.00519925
0.0051459
0.00519055
0.00563646
0.00167077
0.00411424
0.00461806
0.00459588
0.00313517
0.00329813
0.00374385
0.00429128
0.00467205
0.00474652
0.00495769
0.00547699
0.00596047
0.00632649
0.00670297
0.00710874
0.0074908
0.00778104
0.0079253
0.00792407
0.00783301
0.00770306
0.00756346
0.00742614
0.00728685
0.00714083
0.00698841
0.00682898
0.0066618
0.00648789
0.00631009
0.00613281
0.00596284
0.00580945
0.00568185
0.00558722
0.00554053
0.00556698
0.00568625
0.00637841
0.00192346
0.00471822
0.00571447
0.00923515
0.00390946
0.00357787
0.00440769
0.00482319
0.00514922
0.00520067
0.00529337
0.00553643
0.00588447
0.00624622
0.00662416
0.00701253
0.00738137
0.00769444
0.00791553
0.00803035
0.00805438
0.00801572
0.00794067
0.00784658
0.00773755
0.00761549
0.00748266
0.00733944
0.00718447
0.00701804
0.00684231
0.00666082
0.00647824
0.00630005
0.00613104
0.00597529
0.00584531
0.00578337
0.00586923
0.00625024
0.00190117
0.0156127
0.00956446
0.00453994
0.00571677
0.00615267
0.00630364
0.00627585
0.006351
0.00657546
0.00690161
0.00721634
0.00750557
0.00776099
0.0079769
0.00815355
0.00828739
0.00837326
0.00841004
0.00840616
0.00837605
0.00832994
0.0082695
0.00819441
0.00810583
0.00800076
0.00787793
0.00773856
0.00758494
0.00741964
0.0072453
0.00706459
0.00687989
0.00669257
0.00650229
0.00630413
0.00606144
0.00539417
0.00155515
0.00580371
0.0071627
0.00781948
0.0066585
0.00625604
0.00626372
0.00648232
0.00686438
0.00734518
0.00783791
0.00825601
0.00854873
0.00871837
0.00879963
0.00882732
0.00881928
0.00878855
0.0087485
0.00870757
0.00867086
0.0086413
0.0086201
0.0086052
0.00858929
0.00855104
0.00849062
0.00841216
0.00831929
0.00821438
0.00809864
0.0079721
0.00783326
0.00767839
0.00750065
0.0072839
0.0069616
0.00604863
0.00189326
0.00158463
0.00171879
0.00352435
0.00307217
0.0027228
0.00242571
0.00220489
0.00206296
0.00197809
0.00193286
0.00191656
0.00192222
0.00194343
0.00197184
0.00199831
0.00201701
0.00202675
0.00202939
0.00202689
0.00202067
0.00201217
0.0020025
0.00199259
0.00198307
0.00197414
0.00196548
0.00195822
0.00195109
0.00194338
0.00193488
0.00192559
0.00191556
0.00190482
0.00189331
0.00188076
0.0018667
0.00185056
0.00182925
0.00175438
0.00153988
)
;

boundaryField
{
    floor
    {
        type            nutkWallFunction;
        Cmu             0.09;
        kappa           0.41;
        E               9.8;
        value           nonuniform List<scalar> 
29
(
7.75995e-05
4.78302e-05
4.54414e-05
3.67814e-05
2.90932e-05
2.56421e-05
2.53107e-05
2.60206e-05
2.70023e-05
2.79823e-05
2.89706e-05
2.9903e-05
3.10955e-05
3.32666e-05
3.72182e-05
4.3767e-05
5.17598e-05
5.8751e-05
7.15918e-05
6.47056e-05
6.47055e-05
9.03561e-05
0.000106076
0.000111458
7.75994e-05
4.78301e-05
6.38967e-05
7.48605e-05
9.24998e-05
)
;
    }
    ceiling
    {
        type            nutkWallFunction;
        Cmu             0.09;
        kappa           0.41;
        E               9.8;
        value           nonuniform List<scalar> 
43
(
0.000188141
0.000203121
0.00039545
0.00034845
0.000311642
0.000279942
0.000256124
0.000240689
0.000231409
0.000226444
0.000224649
0.000225263
0.000227584
0.000230689
0.000233579
0.000235618
0.000236678
0.000236964
0.000236689
0.000236008
0.000235076
0.000234018
0.000232932
0.000231889
0.000230909
0.000229959
0.000229161
0.000228377
0.000227528
0.000226592
0.00022557
0.000224467
0.000223284
0.000222017
0.000220636
0.000219088
0.00021731
0.000214962
0.000206689
0.000182769
0.000516035
0.000614712
0.00062367
)
;
    }
    sWall
    {
        type            nutkWallFunction;
        Cmu             0.09;
        kappa           0.41;
        E               9.8;
        value           uniform 0.000188166;
    }
    nWall
    {
        type            nutkWallFunction;
        Cmu             0.09;
        kappa           0.41;
        E               9.8;
        value           nonuniform List<scalar> 6(0.000135588 0.00016936 0.000197391 0.000184492 0.000222019 0.000182778);
    }
    sideWalls
    {
        type            empty;
    }
    glass1
    {
        type            nutkWallFunction;
        Cmu             0.09;
        kappa           0.41;
        E               9.8;
        value           nonuniform List<scalar> 9(0.000126877 0.000165066 0.000171919 0.000314126 0.00035515 0.000384856 0.000415853 0.000455511 0.000516342);
    }
    glass2
    {
        type            nutkWallFunction;
        Cmu             0.09;
        kappa           0.41;
        E               9.8;
        value           nonuniform List<scalar> 2(0.00022527 0.000222828);
    }
    sun
    {
        type            nutkWallFunction;
        Cmu             0.09;
        kappa           0.41;
        E               9.8;
        value           nonuniform List<scalar> 
14
(
0.000126819
0.000140298
0.000141716
0.00013429
0.000114739
0.00010062
9.15955e-05
8.5772e-05
8.19264e-05
7.99169e-05
7.91926e-05
7.92089e-05
7.93796e-05
7.90495e-05
)
;
    }
    heatsource1
    {
        type            nutkWallFunction;
        Cmu             0.09;
        kappa           0.41;
        E               9.8;
        value           nonuniform List<scalar> 3(0.000139839 0.000142909 0.000135591);
    }
    heatsource2
    {
        type            nutkWallFunction;
        Cmu             0.09;
        kappa           0.41;
        E               9.8;
        value           nonuniform List<scalar> 4(8.73132e-05 5.91536e-05 5.91536e-05 9.27709e-05);
    }
    Table_master
    {
        type            nutkWallFunction;
        Cmu             0.09;
        kappa           0.41;
        E               9.8;
        value           nonuniform List<scalar> 9(4.44791e-05 4.70423e-05 5.01979e-05 5.39366e-05 5.85092e-05 6.42627e-05 7.17288e-05 8.18493e-05 9.64046e-05);
    }
    Table_slave
    {
        type            nutkWallFunction;
        Cmu             0.09;
        kappa           0.41;
        E               9.8;
        value           nonuniform List<scalar> 9(8.1671e-05 8.32324e-05 8.48035e-05 8.65366e-05 8.86995e-05 9.15594e-05 9.54852e-05 0.000101141 0.000109881);
    }
    inlet
    {
        type            calculated;
        value           uniform 3.3541e-05;
    }
    outlet
    {
        type            calculated;
        value           nonuniform List<scalar> 2(0.00158463 0.00171879);
    }
}


// ************************************************************************* //
