/*--------------------------------*- C++ -*----------------------------------*\
  =========                 |
  \\      /  F ield         | OpenFOAM: The Open Source CFD Toolbox
   \\    /   O peration     | Website:  https://openfoam.org
    \\  /    A nd           | Version:  6
     \\/     M anipulation  |
\*---------------------------------------------------------------------------*/
FoamFile
{
    version     2.0;
    format      ascii;
    class       surfaceScalarField;
    location    "1200";
    object      phi;
}
// * * * * * * * * * * * * * * * * * * * * * * * * * * * * * * * * * * * * * //

dimensions      [1 0 -1 0 0 0 0];

internalField   nonuniform List<scalar> 
852
(
-0.00259527
0.00262928
-0.00322389
0.000628692
-0.00326359
3.97844e-05
-0.00323687
-2.66355e-05
-0.00324451
7.72326e-06
-0.00317458
-6.98549e-05
-0.00298501
-0.000189479
-0.00270345
-0.000281474
-0.00239759
-0.00030578
-0.00210462
-0.000292888
-0.00181199
-0.000292537
-0.00148839
-0.000323521
-0.0010985
-0.0003898
-0.000611523
-0.000486891
-0.000614432
0.000222047
-0.000224841
0.0002728
-5.06693e-05
0.000300774
-2.78858e-05
0.000296962
3.88222e-06
0.000293939
3.07821e-06
0.000302335
-8.35163e-06
0.000316325
-1.39487e-05
0.000330589
-1.42203e-05
0.000341986
-1.13496e-05
0.000350091
-8.05397e-06
0.000352578
-2.43069e-06
0.0003439
8.74112e-06
0.000307622
3.63306e-05
0.00022828
7.93629e-05
0.000130678
9.7591e-05
7.24139e-05
5.82859e-05
-1.82947e-05
9.07769e-05
-0.000206139
0.000187931
-0.000209161
-0.00114434
0.00386478
-0.000956513
0.00044093
-0.000598771
-0.00031787
-0.000950263
0.000324931
-0.00164025
0.000697782
-0.00225081
0.000540788
-0.00248495
4.47446e-05
-0.00240153
-0.000364801
-0.00224594
-0.000461274
-0.00208175
-0.000456986
-0.0019144
-0.000459796
-0.00172902
-0.000508794
-0.00150711
-0.000611616
-0.00122724
-0.000766655
-0.000889228
-0.000952339
0.000124349
-0.00101351
0.000124376
-0.00021205
-2.04021e-05
-0.000325117
6.24809e-05
-0.000443978
9.10506e-05
-0.000510771
7.07475e-05
-0.000551609
4.39852e-05
-0.000572788
1.28966e-05
-0.000587868
1.20295e-06
-0.000602428
4.14084e-07
-0.000622291
8.5897e-06
-0.000644794
1.4527e-05
-0.000667483
2.0335e-05
-0.000688431
2.97662e-05
-0.000702596
5.05715e-05
-0.000700359
7.71984e-05
-0.000644942
4.22385e-05
-0.000453273
-0.000133322
-0.000235876
-0.000126553
2.49241e-05
-7.27892e-05
-0.000192088
0.00381495
0.00019323
0.00520138
-0.000945346
0.00481402
6.96084e-05
0.00373395
0.00140511
0.00231749
0.00211432
0.000734818
0.00212353
-0.000730657
0.0015103
-0.00162535
0.000529979
-0.00181418
-0.000272351
-0.00184125
-0.000429806
-0.00183107
-0.000469869
-0.00180317
-0.000536592
-0.00176293
-0.000651746
-0.00171551
-0.000813961
-0.00166845
-0.000999274
-0.00150834
-0.00117349
-0.00138384
-0.000969926
0.000936415
-0.00119748
0.000290146
-0.0012806
0.000174272
-0.0013304
0.000120636
-0.0013578
7.14799e-05
-0.00135973
1.4921e-05
-0.00135829
-0.00135763
-0.0013488
-0.00133402
-0.00131344
-0.00128341
-0.00123258
-0.00115511
-0.0011126
-0.000741313
-0.000504468
-0.000364397
-0.000503329
0.000114854
-0.0005519
-8.96834e-05
0.00576661
-0.00545255
0.00750224
-0.00268074
0.00707698
0.000495074
0.00590994
0.0025723
0.00440747
0.00361688
0.00279459
0.00373646
0.00117737
0.00312756
-0.000292599
0.00199999
-0.00111719
0.00055234
-0.00143034
-0.000116553
-0.00157593
-0.000324168
-0.00168505
-0.000427361
-0.001806
-0.000530678
-0.00196769
-0.000652152
-0.00218733
-0.000779501
-0.00248195
-0.000878735
-0.00303823
-0.000827413
-0.00288245
-0.000171351
-0.00215364
0.000207736
-0.0020377
0.00017434
-0.0020513
0.000187996
-0.00208636
0.000155824
-0.00212156
0.000106808
-0.00215046
4.39617e-05
-0.00215599
5.5318e-06
-0.00213546
-2.0533e-05
-0.00209043
-4.50119e-05
-0.00202507
-6.5344e-05
-0.00193807
-8.69873e-05
-0.00182443
-0.000113611
-0.00167519
-0.000149214
-0.00146798
-0.000207177
-0.00113756
-0.00033039
-0.00105004
-0.00059182
-0.000761183
-0.000792004
-0.000446492
-0.000866413
-0.000554256
0.00352908
-0.00883791
0.00485868
-0.00401023
0.0048348
0.000519067
0.00429871
0.00310851
0.00345646
0.00445921
0.00243018
0.0047628
0.00134563
0.00421213
0.000328653
0.00301701
-0.000504219
0.0013853
-0.000935069
0.00031441
-0.00115882
-0.0001003
-0.00131052
-0.000275552
-0.00146016
-0.000380916
-0.00163484
-0.000477358
-0.00184416
-0.000570061
-0.00210215
-0.000620617
-0.00240338
-0.000526048
-0.00234088
-0.000233719
-0.00213656
3.55182e-06
-0.00203634
7.42547e-05
-0.00196212
0.000113911
-0.00191479
0.000108635
-0.00188435
7.65016e-05
-0.00187066
3.04235e-05
-0.00185329
-1.169e-05
-0.00182734
-4.63179e-05
-0.00179495
-7.72334e-05
-0.00175405
-0.00010608
-0.00170451
-0.000136345
-0.00164627
-0.000171675
-0.00157781
-0.000217486
-0.00149815
-0.000286649
-0.00142851
-0.000399848
-0.00147115
-0.000548991
-0.00160252
-0.000660439
-0.00180676
-0.000661983
-0.001822
-0.000538817
-0.00144749
-0.000374513
-0.00111474
-0.000332746
-0.00112566
0.00137565
-0.0100437
0.00213504
-0.00476951
0.00244085
0.000213362
0.00219365
0.00335582
0.00178944
0.0048635
0.00132625
0.00522603
0.000836653
0.00470176
0.000370255
0.00348345
-0.000118687
0.00187435
-0.000477318
0.000673163
-0.000686812
0.000109313
-0.00083086
-0.000131385
-0.000966484
-0.000245173
-0.0011226
-0.000321119
-0.00130864
-0.000383905
-0.00151838
-0.000410752
-0.0016954
-0.000348903
-0.00172794
-0.000201048
-0.00166348
-6.07665e-05
-0.00160032
1.12248e-05
-0.00153581
4.95395e-05
-0.00148266
5.56221e-05
-0.00144329
3.72837e-05
-0.00141669
3.97471e-06
-0.00139505
-3.31778e-05
-0.00137259
-6.86079e-05
-0.00134674
-0.000102912
-0.0013155
-0.00013714
-0.00127834
-0.000173317
-0.00123572
-0.0002141
-0.00118917
-0.000263842
-0.00114489
-0.000330738
-0.00112177
-0.000422772
-0.00114248
-0.000528088
-0.00119695
-0.000605774
-0.00123908
-0.000619666
-0.00118435
-0.000593353
-0.000945725
-0.000612955
-0.000593388
-0.000684897
-0.00173059
-0.000192065
-0.00965701
0.00045401
-0.00541546
0.000762738
-9.52603e-05
0.000176235
0.00394242
0.000112855
0.00492695
0.000204832
0.0051341
0.0002575
0.00464912
0.000280099
0.00346092
0.000171798
0.00198277
-2.22623e-05
0.000867363
-0.000172978
0.000260164
-0.000280769
-2.34617e-05
-0.000375335
-0.000150473
-0.000486047
-0.000210274
-0.000623185
-0.000246636
-0.000774746
-0.000259062
-0.000897854
-0.000225667
-0.000951321
-0.000147453
-0.000944459
-6.74987e-05
-0.000917332
-1.57692e-05
-0.000880169
1.25125e-05
-0.000843395
1.89879e-05
-0.000813169
7.2046e-06
-0.000791844
-1.71955e-05
-0.000776896
-4.79614e-05
-0.000763571
-8.1758e-05
-0.00074897
-0.000117329
-0.000731152
-0.000154767
-0.000709059
-0.000195211
-0.000682487
-0.000240469
-0.000652677
-0.000293444
-0.000624497
-0.000358708
-0.000607286
-0.000439772
-0.000604819
-0.000530347
-0.000600978
-0.000609413
-0.000562554
-0.000657893
-0.000467926
-0.000687791
-0.000310281
-0.000770415
-1.83582e-05
-0.000976639
-0.00176141
-0.00207647
-0.00736455
-0.00252546
-0.00496636
-0.00187471
-0.000745912
-0.00198851
0.00405631
-0.00135871
0.00429722
-0.000660679
0.00443611
-0.000115082
0.00410357
0.000313681
0.00303223
0.000502458
0.00179412
0.000495909
0.000874061
0.000429443
0.000326782
0.000364669
4.14634e-05
0.00030906
-9.4707e-05
0.000249824
-0.000150879
0.000172512
-0.000169169
7.98841e-05
-0.000166286
-3.40998e-06
-0.00014223
-5.21005e-05
-9.86242e-05
-6.61202e-05
-5.33431e-05
-6.13631e-05
-2.03908e-05
-4.64956e-05
-2.21789e-06
-2.86654e-05
1.29844e-06
-1.41146e-05
-7.19925e-06
-5.72315e-06
-2.54284e-05
-2.30487e-06
-5.12092e-05
-1.71538e-06
-8.21648e-05
-2.53617e-06
-0.000116314
-3.46661e-06
-0.000153631
-3.3853e-06
-0.000195078
-1.62763e-06
-0.000242003
1.45024e-06
-0.000296293
3.52267e-06
-0.000360548
1.08002e-06
-0.000437097
-4.02386e-06
-0.000525014
5.54549e-06
-0.000618758
6.43243e-05
-0.000716458
0.000214583
-0.000837846
0.000473845
-0.00102949
0.000756411
-0.00125902
-0.00108202
-0.00716147
-0.0121506
-0.00761668
-0.0052797
-0.00437625
0.000815958
-0.00251562
0.00243665
-0.0011559
0.00307644
-0.00013903
0.00308676
0.000602608
0.0022907
0.000993946
0.00140292
0.00113772
0.000730446
0.00116289
0.000301769
0.00114508
5.94463e-05
0.00112305
-7.24914e-05
0.00109999
-0.000127642
0.00106606
-0.000135062
0.00101973
-0.000119779
0.000971635
-9.39699e-05
0.000935451
-6.22811e-05
0.000914585
-3.23223e-05
0.000905593
-1.12482e-05
0.000904169
-6.43164e-07
0.000904936
6.84656e-07
0.000903803
-5.90843e-06
0.000898896
-2.0354e-05
0.00089019
-4.23259e-05
0.000877767
-6.95501e-05
0.000860729
-9.90702e-05
0.000839241
-0.000131923
0.000813945
-0.000169549
0.000785376
-0.000213188
0.000753592
-0.000264255
0.000717838
-0.000324533
0.000676922
-0.000395918
0.000631735
-0.000479565
0.000589052
-0.000575822
0.000561241
-0.000688405
0.000563825
-0.000840207
0.000634567
-0.00110002
0.000853834
-0.0014781
-0.000317426
-0.0067657
0.00157333
-0.00510904
-0.000840566
-0.00277234
0.000100061
-0.000959361
0.00126356
0.000349564
0.00177794
0.0012315
0.00140888
0.00172865
0.000905929
0.00197102
0.00048824
0.00207315
0.000199808
0.00210423
2.85466e-05
0.00210162
-6.96866e-05
0.00207727
-0.000103107
0.00203979
-9.73871e-05
0.00199736
-7.71661e-05
0.00195729
-5.37119e-05
0.00192508
-2.98952e-05
0.00190238
-9.45482e-06
0.00188758
3.71474e-06
0.00187718
9.93036e-06
0.00186755
1.04784e-05
0.00185628
5.53627e-06
0.00184179
-5.68849e-06
0.00182252
-2.28618e-05
0.00179755
-4.4378e-05
0.00176458
-6.58818e-05
0.00172318
-9.02949e-05
0.0016732
-0.000119316
0.00161425
-0.000153974
0.0015456
-0.000195331
0.00146597
-0.000244612
0.00137344
-0.000303088
0.00126578
-0.00037161
0.00114033
-0.000450083
0.000989664
-0.000537464
0.000782872
-0.000633165
0.000417587
-0.000734516
-0.00029386
-0.000766468
-0.000631256
-0.000339791
0.00188106
-0.000504326
-0.000675725
-0.000298557
-0.000105384
0.000517417
0.000447841
0.00160638
0.000689195
0.00241849
0.000596966
0.00290527
0.000419354
0.00314591
0.000247793
0.00322471
0.000121201
0.00320998
4.34658e-05
0.00313207
8.41787e-06
0.00303526
-6.10749e-06
0.00294797
-9.91454e-06
0.00287901
-8.02275e-06
0.00282852
-3.03964e-06
0.00279513
3.66916e-06
0.0027754
1.04444e-05
0.002763
1.62832e-05
0.00275268
2.04264e-05
0.00274148
2.18459e-05
0.00272678
2.04171e-05
0.0027049
1.63762e-05
0.00267217
1.00602e-05
0.00262685
1.15615e-06
0.00257067
-9.48236e-06
0.00250353
-2.29083e-05
0.00242385
-3.93817e-05
0.00232954
-5.93891e-05
0.00221806
-8.35515e-05
0.00208642
-0.000112657
0.00193133
-0.000147675
0.00174976
-0.000189719
0.00153993
-0.000239925
0.0013024
-0.000299631
0.00104381
-0.00037429
0.00078787
-0.000478338
0.000495337
-0.000473729
-0.000155298
0.000905254
0.00185706
0.00365647
0.0028925
0.00269448
0.00304936
0.00364683
0.00415302
0.00448245
0.00464138
0.00467512
0.00463297
0.00455791
0.00447055
0.00438137
0.0042957
0.00421623
0.00414442
0.00408012
0.00402224
0.00396899
0.00391758
0.00386514
0.00380903
0.00374701
0.00367648
0.00359575
0.00350205
0.00339233
0.00326305
0.00311005
0.00292838
0.00271215
0.00245431
0.00214671
0.00177981
0.00133866
0.000793774
0.000252434
)
;

boundaryField
{
    floor
    {
        type            calculated;
        value           nonuniform List<scalar> 
29
(
0
0
0
0
0
0
0
0
0
0
0
0
0
0
0
0
0
0
0
0
3.11429e-06
7.95714e-06
1.259e-05
1.82588e-05
2.99836e-06
2.86518e-06
7.70318e-06
1.32305e-05
1.57151e-05
)
;
    }
    ceiling
    {
        type            calculated;
        value           nonuniform List<scalar> 
43
(
0.000230989
0.000202919
8.20137e-05
8.86315e-05
9.30393e-05
9.34002e-05
9.21483e-05
9.1153e-05
9.02443e-05
8.9156e-05
8.77082e-05
8.58537e-05
8.36824e-05
8.14472e-05
7.94405e-05
7.78207e-05
7.65843e-05
7.56377e-05
7.48991e-05
7.4314e-05
7.38316e-05
7.34131e-05
7.3027e-05
7.26492e-05
7.22683e-05
7.1888e-05
7.14631e-05
7.1028e-05
7.05994e-05
7.01786e-05
6.97609e-05
6.93407e-05
6.89137e-05
6.8479e-05
6.80413e-05
6.76098e-05
6.71871e-05
6.68169e-05
6.78296e-05
7.34163e-05
2.77321e-05
2.28844e-05
3.2295e-05
)
;
    }
    sWall
    {
        type            calculated;
        value           uniform 9.92473e-05;
    }
    nWall
    {
        type            calculated;
        value           nonuniform List<scalar> 6(1.09114e-05 1.17271e-05 1.26384e-05 2.01357e-05 1.9549e-05 2.39032e-05);
    }
    sideWalls
    {
        type            empty;
        value           nonuniform 0();
    }
    glass1
    {
        type            calculated;
        value           nonuniform List<scalar> 9(-3.39418e-05 -9.10911e-05 -0.000143319 -0.000120514 -0.000143606 -0.000169721 -0.000194535 -0.000215879 -0.000230683);
    }
    glass2
    {
        type            calculated;
        value           nonuniform List<scalar> 2(7.72029e-05 8.94201e-05);
    }
    sun
    {
        type            calculated;
        value           uniform 0;
    }
    heatsource1
    {
        type            calculated;
        value           nonuniform List<scalar> 3(1.97216e-07 1.97379e-07 1.97606e-07);
    }
    heatsource2
    {
        type            calculated;
        value           nonuniform List<scalar> 4(4.95656e-08 4.97111e-08 0 0);
    }
    Table_master
    {
        type            calculated;
        value           nonuniform List<scalar> 9(-1.48884e-07 -1.48849e-07 -1.4881e-07 -1.48772e-07 -1.48731e-07 -1.48689e-07 -1.48642e-07 -1.4859e-07 -1.48503e-07);
    }
    Table_slave
    {
        type            calculated;
        value           nonuniform List<scalar> 9(1.48064e-07 1.48056e-07 1.48052e-07 1.48056e-07 1.48066e-07 1.48081e-07 1.48104e-07 1.48137e-07 1.48156e-07);
    }
    inlet
    {
        type            calculated;
        value           uniform -8.71483e-05;
    }
    outlet
    {
        type            calculated;
        value           nonuniform List<scalar> 2(-0.00123526 -0.00115452);
    }
}


// ************************************************************************* //
