/*--------------------------------*- C++ -*----------------------------------*\
  =========                 |
  \\      /  F ield         | OpenFOAM: The Open Source CFD Toolbox
   \\    /   O peration     | Website:  https://openfoam.org
    \\  /    A nd           | Version:  6
     \\/     M anipulation  |
\*---------------------------------------------------------------------------*/
FoamFile
{
    version     2.0;
    format      ascii;
    class       volVectorField;
    location    "1200";
    object      U;
}
// * * * * * * * * * * * * * * * * * * * * * * * * * * * * * * * * * * * * * //

dimensions      [0 1 -1 0 0 0 0];

internalField   nonuniform List<vector> 
459
(
(-0.00686972 0.0688122 0)
(-0.1404 0.0104057 0)
(-0.140622 -0.00385049 0)
(-0.141269 -0.00245918 0)
(-0.143276 -0.00258255 0)
(-0.141724 -0.00582074 0)
(-0.135267 -0.0091837 0)
(-0.124356 -0.0110422 0)
(-0.111463 -0.0112383 0)
(-0.0985258 -0.0109136 0)
(-0.0859507 -0.0112558 0)
(-0.0726058 -0.0126897 0)
(-0.0566137 -0.0152963 0)
(-0.0353133 -0.0190562 0)
(-0.00619372 -0.0237818 0)
(-0.0840399 -0.00770379 0)
(0.0324737 -0.00383742 0)
(0.0219398 -0.00187153 0)
(0.0120708 -0.00063978 0)
(0.0115982 -0.000285859 0)
(0.0128345 -0.000599881 0)
(0.0134928 -0.00104052 0)
(0.0140614 -0.00122327 0)
(0.0146352 -0.00134393 0)
(0.0150443 -0.0014996 0)
(0.0153695 -0.00170164 0)
(0.0154983 -0.00173315 0)
(0.0146615 -0.000514767 0)
(0.0121684 0.00302633 0)
(0.0078709 0.00663752 0)
(0.00425089 0.00495789 0)
(-0.00636313 0.00619402 0)
(-0.0286418 0.00507481 0)
(0.0831317 -0.0064412 0)
(0.162749 0.134431 0)
(-0.0741981 -0.00350137 0)
(-0.0224688 -0.0289325 0)
(-0.0327707 -0.00710492 0)
(-0.0567129 0.0020648 0)
(-0.0885976 -0.00544259 0)
(-0.107469 -0.0145813 0)
(-0.107658 -0.0185255 0)
(-0.102046 -0.0192412 0)
(-0.0947928 -0.0180366 0)
(-0.0876094 -0.017819 0)
(-0.0799361 -0.0196955 0)
(-0.0708242 -0.0238407 0)
(-0.0593405 -0.0301389 0)
(-0.0460952 -0.0380776 0)
(-0.0363039 -0.0445647 0)
(0.0249951 0.0126058 0)
(-0.113754 -0.00480135 0)
(0.0108742 -0.0005807 0)
(-0.0157947 0.00213913 0)
(-0.0215032 0.00237494 0)
(-0.0234985 0.00184465 0)
(-0.0245963 0.00148176 0)
(-0.0252481 0.00124918 0)
(-0.0259383 0.0017688 0)
(-0.0266754 0.00230726 0)
(-0.0276464 0.00288927 0)
(-0.028835 0.00368609 0)
(-0.0300408 0.00487837 0)
(-0.0308661 0.00657074 0)
(-0.0307372 0.00805667 0)
(-0.0285631 0.0070014 0)
(-0.0238906 0.00159132 0)
(-0.0176713 0.00250994 0)
(-0.0343435 0.00287811 0)
(0.12533 -0.00498971 0)
(0.387203 0.212785 0)
(0.21752 0.0870991 0)
(0.204427 0.0667764 0)
(0.18978 0.0767967 0)
(0.138092 0.0811209 0)
(0.07155 0.0683525 0)
(-0.00411511 0.0319187 0)
(-0.0627996 -0.00829103 0)
(-0.0781902 -0.020346 0)
(-0.0805866 -0.0215189 0)
(-0.0805532 -0.0219911 0)
(-0.0796152 -0.0245139 0)
(-0.0779316 -0.0295407 0)
(-0.0753312 -0.0367952 0)
(-0.0720746 -0.0450841 0)
(-0.0717225 -0.051377 0)
(-0.0822889 -0.0515082 0)
(-0.125395 0.0330201 0)
(-0.0370095 0.0106212 0)
(-0.0538183 0.00681045 0)
(-0.0573813 0.00485035 0)
(-0.059038 0.00311941 0)
(-0.0597291 0.000967831 0)
(-0.0590398 -0.00318192 0)
(-0.0594076 -0.00422239 0)
(-0.059153 -0.00419092 0)
(-0.0586692 -0.0043062 0)
(-0.0579543 -0.00457267 0)
(-0.0569481 -0.00500208 0)
(-0.0555242 -0.00575741 0)
(-0.0533763 -0.00764766 0)
(-0.0486991 -0.0124591 0)
(-0.039675 -0.016904 0)
(-0.0280742 -0.0163461 0)
(-0.0329777 -0.0170493 0)
(0.142421 -0.00615818 0)
(0.484374 -0.182443 0)
(0.282808 -0.123502 0)
(0.302849 -0.0333032 0)
(0.293544 0.0585632 0)
(0.236303 0.113374 0)
(0.160281 0.126191 0)
(0.0845011 0.105666 0)
(0.0150357 0.0606283 0)
(-0.0411082 0.00245691 0)
(-0.058561 -0.0141033 0)
(-0.066212 -0.0185223 0)
(-0.0713159 -0.0220426 0)
(-0.0759856 -0.0269038 0)
(-0.0814356 -0.0333207 0)
(-0.0892809 -0.0404548 0)
(-0.103402 -0.0464318 0)
(-0.124544 -0.0466543 0)
(-0.130292 -0.031356 0)
(-0.111493 0.0233887 0)
(-0.0869415 0.0105684 0)
(-0.0896041 0.00824252 0)
(-0.0905387 0.0058836 0)
(-0.092192 0.00313456 0)
(-0.0938157 -0.000249817 0)
(-0.0945612 -0.00286646 0)
(-0.0940656 -0.00307454 0)
(-0.0925949 -0.00398102 0)
(-0.0902189 -0.00490035 0)
(-0.0870372 -0.00599748 0)
(-0.0828721 -0.0074273 0)
(-0.0769147 -0.00943084 0)
(-0.0677764 -0.0125628 0)
(-0.0558332 -0.0177672 0)
(-0.0481743 -0.0255115 0)
(-0.0447087 -0.0315105 0)
(-0.0353491 -0.0332123 0)
(0.0887048 -0.0180957 0)
(0.446905 -0.352528 0)
(0.12516 -0.168024 0)
(0.189583 0.00917768 0)
(0.21575 0.122342 0)
(0.183526 0.177759 0)
(0.132081 0.188269 0)
(0.0805544 0.164014 0)
(0.0322562 0.113737 0)
(-0.0109348 0.0445375 0)
(-0.0345745 0.00423298 0)
(-0.0468612 -0.00956616 0)
(-0.0541286 -0.015387 0)
(-0.060369 -0.0197332 0)
(-0.0671182 -0.0242524 0)
(-0.0755782 -0.0286362 0)
(-0.0872582 -0.0310148 0)
(-0.100335 -0.0268662 0)
(-0.104527 -0.0118821 0)
(-0.0987097 0.00302477 0)
(-0.0905863 0.00560952 0)
(-0.0872439 0.00711703 0)
(-0.0846714 0.00645566 0)
(-0.0830851 0.00484 0)
(-0.0822066 0.0027625 0)
(-0.081525 0.00077534 0)
(-0.0805926 -0.000840796 0)
(-0.0793393 -0.00209022 0)
(-0.0777424 -0.0031718 0)
(-0.0758012 -0.00431232 0)
(-0.0734927 -0.00572278 0)
(-0.0706278 -0.00772063 0)
(-0.0669698 -0.0110521 0)
(-0.0633058 -0.0170416 0)
(-0.0625635 -0.0259528 0)
(-0.0673293 -0.0323494 0)
(-0.0750418 -0.0328657 0)
(-0.0798593 -0.0236296 0)
(-0.0876479 -0.0177887 0)
(-0.0680801 -0.0239174 0)
(0.0844156 -0.0527063 0)
(0.400876 -0.440791 0)
(-0.029307 -0.204241 0)
(0.0891002 0.0243837 0)
(0.12044 0.149713 0)
(0.0985762 0.209977 0)
(0.0702593 0.223829 0)
(0.0458106 0.199515 0)
(0.0228778 0.145898 0)
(0.000977651 0.0740398 0)
(-0.0148614 0.0217506 0)
(-0.0261116 0.000379951 0)
(-0.0334424 -0.00868207 0)
(-0.0391661 -0.0134001 0)
(-0.0453743 -0.017143 0)
(-0.0529749 -0.0205495 0)
(-0.0622669 -0.022302 0)
(-0.071352 -0.0192683 0)
(-0.075792 -0.0100727 0)
(-0.0746637 -0.00209562 0)
(-0.0715117 0.00145605 0)
(-0.0685928 0.00336109 0)
(-0.0659663 0.00348166 0)
(-0.0639598 0.00240011 0)
(-0.0625677 0.000671481 0)
(-0.0615086 -0.00108734 0)
(-0.0606043 -0.00266537 0)
(-0.0595698 -0.00411716 0)
(-0.0583307 -0.00551424 0)
(-0.0568416 -0.00697198 0)
(-0.0550913 -0.00861829 0)
(-0.0530756 -0.0106461 0)
(-0.0509143 -0.0134765 0)
(-0.0492514 -0.0177223 0)
(-0.0493145 -0.0231305 0)
(-0.0514051 -0.0271072 0)
(-0.0532218 -0.027656 0)
(-0.052345 -0.0240832 0)
(-0.055032 -0.0214145 0)
(-0.0707824 -0.0249394 0)
(0.132318 -0.0688341 0)
(0.31862 -0.445191 0)
(-0.12177 -0.235932 0)
(0.0520789 -0.000140976 0)
(0.0384583 0.163799 0)
(0.0107352 0.223328 0)
(0.00769205 0.234689 0)
(0.00927533 0.210224 0)
(0.00937152 0.156119 0)
(0.00727349 0.0872342 0)
(0.00319424 0.0350482 0)
(-0.00409602 0.00795764 0)
(-0.0101345 -0.00353609 0)
(-0.0142318 -0.0085953 0)
(-0.0186019 -0.0114246 0)
(-0.0240946 -0.0135786 0)
(-0.0307438 -0.0146022 0)
(-0.0371709 -0.0128759 0)
(-0.0411274 -0.00809257 0)
(-0.0419005 -0.00344044 0)
(-0.0409301 -0.000692445 0)
(-0.0394591 0.000853047 0)
(-0.0377399 0.00121256 0)
(-0.0362454 0.000597217 0)
(-0.0350558 -0.000667929 0)
(-0.0343202 -0.00217439 0)
(-0.033739 -0.00372972 0)
(-0.0331471 -0.00530825 0)
(-0.0324506 -0.0069275 0)
(-0.0315833 -0.00865214 0)
(-0.0305119 -0.0105737 0)
(-0.0292418 -0.0128317 0)
(-0.0278927 -0.0156671 0)
(-0.0268317 -0.0193175 0)
(-0.026537 -0.0234764 0)
(-0.0267758 -0.0268698 0)
(-0.0255521 -0.0284083 0)
(-0.0204028 -0.0286118 0)
(-0.0182168 -0.0307443 0)
(-0.072626 -0.0380893 0)
(0.204007 -0.0775048 0)
(0.16897 -0.354486 0)
(-0.196151 -0.21332 0)
(-0.0980787 -0.051398 0)
(-0.0461785 0.188828 0)
(-0.0749915 0.211939 0)
(-0.0446254 0.218152 0)
(-0.0174899 0.198408 0)
(0.00337973 0.147048 0)
(0.0172112 0.0856247 0)
(0.0229243 0.0399765 0)
(0.0212675 0.0136548 0)
(0.017707 0.000456441 0)
(0.0148216 -0.00551026 0)
(0.0124385 -0.00793661 0)
(0.00947496 -0.00899458 0)
(0.00559877 -0.0092444 0)
(0.00145951 -0.00820384 0)
(-0.0016184 -0.00571009 0)
(-0.0028985 -0.00305924 0)
(-0.00294339 -0.00121971 0)
(-0.00247824 -0.000178722 0)
(-0.00170227 8.2848e-05 0)
(-0.000897781 -0.000321842 0)
(-0.000377471 -0.00123159 0)
(-0.000145221 -0.00246473 0)
(-6.98945e-05 -0.00389014 0)
(-8.66965e-05 -0.00542763 0)
(-0.000137167 -0.0070683 0)
(-0.000164114 -0.00884887 0)
(-0.00012445 -0.0108291 0)
(-3.77474e-06 -0.0131004 0)
(0.000145013 -0.0158031 0)
(0.000164386 -0.0190677 0)
(-9.1755e-05 -0.0227852 0)
(-0.000289077 -0.026444 0)
(0.00131842 -0.029619 0)
(0.00752123 -0.0331069 0)
(0.0148442 -0.039625 0)
(-0.0417147 -0.0505797 0)
(0.33224 -0.0580093 0)
(-0.0493394 -0.209359 0)
(-0.462197 -0.156883 0)
(-0.604494 -0.103817 0)
(-0.124954 0.133125 0)
(-0.153702 0.16452 0)
(-0.080815 0.174774 0)
(-0.0289669 0.165416 0)
(0.0113891 0.122193 0)
(0.035985 0.0744766 0)
(0.0485278 0.0392918 0)
(0.0519293 0.0175764 0)
(0.0513375 0.00569486 0)
(0.0499851 -0.000124909 0)
(0.0489447 -0.00243784 0)
(0.0476829 -0.00299126 0)
(0.045846 -0.00271067 0)
(0.0436277 -0.00187003 0)
(0.0416484 -0.000581139 0)
(0.0403805 0.000766474 0)
(0.0397844 0.00179126 0)
(0.0396138 0.0023672 0)
(0.0396488 0.00247823 0)
(0.0396807 0.00219464 0)
(0.0395624 0.00157774 0)
(0.0392698 0.000685797 0)
(0.0388111 -0.000411718 0)
(0.0381615 -0.0016424 0)
(0.0373095 -0.00301452 0)
(0.0362766 -0.0045681 0)
(0.0350924 -0.00635823 0)
(0.0337744 -0.00846202 0)
(0.0323103 -0.0109861 0)
(0.0306464 -0.0140484 0)
(0.0287308 -0.0177173 0)
(0.0266949 -0.0219947 0)
(0.0253507 -0.0270526 0)
(0.0259585 -0.033947 0)
(0.0253549 -0.0448562 0)
(-0.0294323 -0.0558027 0)
(0.344235 -0.0224156 0)
(-1.45551 -0.131555 0)
(-0.0738783 -0.0233683 0)
(-0.164977 0.0630821 0)
(-0.0810132 0.105122 0)
(-0.0136777 0.114036 0)
(0.0377597 0.0885569 0)
(0.0670023 0.0612578 0)
(0.0833687 0.0407953 0)
(0.0904765 0.0279833 0)
(0.0927036 0.0206559 0)
(0.0929152 0.0152549 0)
(0.0920323 0.0120488 0)
(0.0905152 0.0107931 0)
(0.0886622 0.0106461 0)
(0.08677 0.0110417 0)
(0.0851199 0.0117109 0)
(0.0838914 0.0123593 0)
(0.0830969 0.0126969 0)
(0.0825952 0.0126871 0)
(0.0821897 0.0124431 0)
(0.0817458 0.0119859 0)
(0.0811898 0.0112001 0)
(0.0804687 0.0100136 0)
(0.0795097 0.00851846 0)
(0.0782371 0.00680036 0)
(0.0766015 0.00477126 0)
(0.0745932 0.00235077 0)
(0.0722039 -0.000534145 0)
(0.069412 -0.00396763 0)
(0.0661755 -0.00804983 0)
(0.062423 -0.0128867 0)
(0.0580529 -0.0185594 0)
(0.0529637 -0.0251046 0)
(0.0471634 -0.0325771 0)
(0.0400796 -0.0413609 0)
(0.0262105 -0.0523582 0)
(-0.0254094 -0.0608836 0)
(0.131296 -0.0243733 0)
(-0.613079 0.0287868 0)
(0.211199 -0.107614 0)
(-0.0155783 -0.112955 0)
(-0.00987331 -0.0682358 0)
(0.044234 -0.0404507 0)
(0.0901308 -0.0519368 0)
(0.119524 -0.0735325 0)
(0.135516 -0.0954357 0)
(0.141955 -0.112761 0)
(0.142719 -0.123526 0)
(0.140048 -0.127124 0)
(0.135846 -0.125687 0)
(0.131561 -0.121854 0)
(0.12797 -0.117503 0)
(0.125275 -0.113508 0)
(0.123427 -0.109997 0)
(0.122289 -0.107031 0)
(0.121615 -0.10468 0)
(0.121145 -0.102929 0)
(0.120698 -0.101806 0)
(0.120153 -0.101268 0)
(0.11937 -0.101177 0)
(0.118171 -0.101384 0)
(0.116449 -0.101817 0)
(0.114228 -0.101965 0)
(0.111512 -0.101989 0)
(0.108286 -0.102 0)
(0.104474 -0.102027 0)
(0.099972 -0.102059 0)
(0.0946588 -0.102064 0)
(0.0883961 -0.102001 0)
(0.081038 -0.101821 0)
(0.0724744 -0.101466 0)
(0.0628042 -0.100864 0)
(0.0522602 -0.100043 0)
(0.0392462 -0.100579 0)
(0.00715203 -0.112362 0)
(0.138698 -0.206996 0)
(-0.720544 0.0667205 0)
(0.337927 0.0617853 0)
(0.0223673 0.268316 0)
(0.180417 0.296722 0)
(0.153757 0.360261 0)
(0.12219 0.370522 0)
(0.140163 0.354891 0)
(0.171118 0.347235 0)
(0.19295 0.348046 0)
(0.204031 0.353418 0)
(0.20751 0.359371 0)
(0.206479 0.362764 0)
(0.203182 0.361545 0)
(0.199105 0.356255 0)
(0.194958 0.349053 0)
(0.191001 0.341934 0)
(0.187317 0.335863 0)
(0.183934 0.330802 0)
(0.18089 0.326626 0)
(0.178175 0.323323 0)
(0.175715 0.32082 0)
(0.173409 0.319072 0)
(0.171129 0.317992 0)
(0.168745 0.317414 0)
(0.166147 0.317209 0)
(0.163242 0.317319 0)
(0.159892 0.31699 0)
(0.156049 0.31645 0)
(0.151588 0.315887 0)
(0.146354 0.315362 0)
(0.140176 0.314872 0)
(0.132861 0.314385 0)
(0.124174 0.313861 0)
(0.113836 0.313279 0)
(0.101517 0.312666 0)
(0.0869012 0.312115 0)
(0.0695831 0.311699 0)
(0.0467188 0.313515 0)
(-0.0201597 0.350485 0)
(0.200541 0.546845 0)
)
;

boundaryField
{
    floor
    {
        type            noSlip;
    }
    ceiling
    {
        type            noSlip;
    }
    sWall
    {
        type            noSlip;
    }
    nWall
    {
        type            noSlip;
    }
    sideWalls
    {
        type            empty;
    }
    glass1
    {
        type            noSlip;
    }
    glass2
    {
        type            noSlip;
    }
    sun
    {
        type            noSlip;
    }
    heatsource1
    {
        type            noSlip;
    }
    heatsource2
    {
        type            noSlip;
    }
    Table_master
    {
        type            noSlip;
    }
    Table_slave
    {
        type            noSlip;
    }
    inlet
    {
        type            fixedValue;
        value           uniform (0.0707107 -0.0707107 0);
    }
    outlet
    {
        type            zeroGradient;
    }
}


// ************************************************************************* //
