/*--------------------------------*- C++ -*----------------------------------*\
  =========                 |
  \\      /  F ield         | OpenFOAM: The Open Source CFD Toolbox
   \\    /   O peration     | Website:  https://openfoam.org
    \\  /    A nd           | Version:  6
     \\/     M anipulation  |
\*---------------------------------------------------------------------------*/
FoamFile
{
    version     2.0;
    format      ascii;
    class       volVectorField;
    location    "60";
    object      U;
}
// * * * * * * * * * * * * * * * * * * * * * * * * * * * * * * * * * * * * * //

dimensions      [0 1 -1 0 0 0 0];

internalField   nonuniform List<vector> 
459
(
(-0.125109 -0.138806 0)
(0.187599 -0.0650473 0)
(0.233904 -0.0459753 0)
(0.243179 -0.0329116 0)
(0.255747 -0.021124 0)
(0.263005 -0.0130297 0)
(0.261402 -0.00758027 0)
(0.254375 -0.00354035 0)
(0.244403 -0.000200735 0)
(0.232009 0.00287831 0)
(0.216658 0.00618265 0)
(0.197073 0.0104593 0)
(0.170714 0.017267 0)
(0.129892 0.0318483 0)
(0.114907 0.0713516 0)
(-0.14173 0.00693383 0)
(0.0212526 0.000653573 0)
(0.00244151 -0.0277946 0)
(0.036778 -0.0325211 0)
(0.0694237 -0.027097 0)
(0.0966952 -0.0198334 0)
(0.114758 -0.0124929 0)
(0.12292 -0.00610286 0)
(0.1227 -0.000976577 0)
(0.117665 0.00233797 0)
(0.110948 0.00362739 0)
(0.104391 0.0034872 0)
(0.0986649 0.00294529 0)
(0.0932232 0.00300945 0)
(0.0863682 0.00474222 0)
(0.075226 0.00950584 0)
(0.0600011 0.0151382 0)
(-0.0239212 0.0249244 0)
(0.151348 -0.00691778 0)
(-0.318887 -0.187084 0)
(0.192881 -0.0721593 0)
(0.168135 -0.0582188 0)
(0.173123 -0.0334187 0)
(0.186296 -0.0111048 0)
(0.192011 0.00268458 0)
(0.189963 0.0102837 0)
(0.184331 0.0149533 0)
(0.177132 0.0184095 0)
(0.168711 0.0216926 0)
(0.158853 0.0258011 0)
(0.147243 0.0319223 0)
(0.134079 0.0417389 0)
(0.119314 0.0582226 0)
(0.120506 0.089827 0)
(0.110479 0.0799168 0)
(0.067344 0.0681212 0)
(-0.189967 0.0100702 0)
(0.0521597 -0.0148274 0)
(0.0377838 -0.0447144 0)
(0.0541902 -0.0501112 0)
(0.0732456 -0.0411035 0)
(0.0875962 -0.0273472 0)
(0.09478 -0.0142353 0)
(0.0972768 -0.00430412 0)
(0.0971898 0.00294487 0)
(0.0963297 0.0071032 0)
(0.0957832 0.00834636 0)
(0.0956431 0.00800867 0)
(0.0955994 0.00764097 0)
(0.0952298 0.00870419 0)
(0.0933897 0.0134116 0)
(0.0849942 0.0279666 0)
(0.0711012 0.0381308 0)
(-0.00645337 0.0462648 0)
(0.20173 0.0224226 0)
(-0.457809 -0.240251 0)
(0.21523 -0.128798 0)
(0.0971092 -0.0989345 0)
(0.103517 -0.0520943 0)
(0.114646 -0.0204638 0)
(0.115984 -0.00270577 0)
(0.112904 0.00791459 0)
(0.109716 0.0148796 0)
(0.106939 0.0201024 0)
(0.104255 0.0249775 0)
(0.101418 0.0307623 0)
(0.0984271 0.0386779 0)
(0.0957228 0.0499377 0)
(0.0927837 0.06544 0)
(0.0950615 0.0863603 0)
(0.0861949 0.0833852 0)
(0.0656027 0.103027 0)
(-0.233226 0.00849343 0)
(0.0917024 -0.0594378 0)
(0.0774558 -0.0699591 0)
(0.0813787 -0.0653785 0)
(0.0876562 -0.0509731 0)
(0.0891715 -0.030888 0)
(0.0758012 -0.0160081 0)
(0.063172 -0.00325424 0)
(0.0634399 0.00261655 0)
(0.0695562 0.00430831 0)
(0.0764342 0.00371668 0)
(0.0828443 0.00233484 0)
(0.0886458 0.00128717 0)
(0.0949796 0.00158038 0)
(0.105415 0.00605848 0)
(0.101191 0.0377055 0)
(0.0830097 0.0565897 0)
(0.00695469 0.0679165 0)
(0.232191 0.0600393 0)
(-0.563076 -0.265175 0)
(0.231688 -0.168222 0)
(0.0154979 -0.115089 0)
(0.0352384 -0.04875 0)
(0.0411791 -0.0146824 0)
(0.0381388 0.00187702 0)
(0.037777 0.0109583 0)
(0.0395957 0.0165985 0)
(0.0425962 0.0208928 0)
(0.0461376 0.0252505 0)
(0.049977 0.0307438 0)
(0.0542074 0.0382864 0)
(0.0592253 0.048592 0)
(0.0649629 0.0619879 0)
(0.0757646 0.0794628 0)
(0.0895409 0.0894046 0)
(0.106566 0.110458 0)
(0.139226 -0.0114154 0)
(0.130996 -0.0249903 0)
(0.134498 -0.0585875 0)
(0.120399 -0.0699037 0)
(0.11033 -0.0648994 0)
(0.105521 -0.0505635 0)
(0.103925 -0.0290853 0)
(0.110237 -0.0129679 0)
(0.115353 -0.00318847 0)
(0.109929 0.00429433 0)
(0.0945972 0.0106165 0)
(0.072908 0.0143272 0)
(0.0509781 0.0128401 0)
(0.0352629 0.00726824 0)
(0.0259855 0.00189633 0)
(0.00720111 -0.00015459 0)
(0.0464369 0.0540458 0)
(0.0565443 0.070305 0)
(0.00224851 0.0807338 0)
(0.252911 0.106449 0)
(-0.617456 -0.263999 0)
(0.206537 -0.183059 0)
(-0.0603001 -0.114236 0)
(-0.0181958 -0.0395217 0)
(-0.0199069 -0.01045 0)
(-0.0217993 0.00181514 0)
(-0.0187902 0.00799058 0)
(-0.0136116 0.0118701 0)
(-0.00696703 0.0152014 0)
(0.00073664 0.0190701 0)
(0.00909501 0.0241527 0)
(0.0181582 0.0309672 0)
(0.0285587 0.0398999 0)
(0.0407412 0.0510201 0)
(0.0580224 0.064519 0)
(0.0799781 0.0726903 0)
(0.106846 0.0734084 0)
(0.132127 0.0167217 0)
(0.138557 -0.0164266 0)
(0.132103 -0.0459021 0)
(0.119609 -0.0575377 0)
(0.106604 -0.0546401 0)
(0.0957469 -0.0428498 0)
(0.0876761 -0.0255943 0)
(0.0821573 -0.0074641 0)
(0.0739207 0.00649787 0)
(0.061988 0.0174312 0)
(0.047605 0.0255613 0)
(0.0345663 0.0279529 0)
(0.025758 0.0233715 0)
(0.0210462 0.0153496 0)
(0.0178673 0.0087288 0)
(0.0121748 0.00670358 0)
(0.0208696 0.0321204 0)
(0.0412995 0.0561856 0)
(0.0207253 0.0656252 0)
(0.142739 0.103833 0)
(0.105934 0.0863419 0)
(-0.0995524 0.0716851 0)
(0.370907 -0.02493 0)
(-0.652883 -0.240029 0)
(0.159429 -0.176739 0)
(-0.0938516 -0.112051 0)
(-0.0539953 -0.0377777 0)
(-0.0580376 -0.0108291 0)
(-0.0584133 -0.00124245 0)
(-0.0545308 0.00244189 0)
(-0.0481582 0.00453749 0)
(-0.0400331 0.00665662 0)
(-0.0306927 0.00953686 0)
(-0.020407 0.0135661 0)
(-0.00913866 0.0189821 0)
(0.00429469 0.0262861 0)
(0.0194817 0.0345953 0)
(0.0384225 0.0427849 0)
(0.0608984 0.0450351 0)
(0.0874375 0.0366349 0)
(0.106658 0.00497649 0)
(0.111102 -0.0224304 0)
(0.105058 -0.0400425 0)
(0.0929481 -0.0461809 0)
(0.0781901 -0.0421034 0)
(0.0634181 -0.0307217 0)
(0.0499306 -0.0141014 0)
(0.0358362 0.00488229 0)
(0.0250714 0.0196141 0)
(0.0157366 0.0299266 0)
(0.00913133 0.035108 0)
(0.00640148 0.0332542 0)
(0.00666009 0.0256348 0)
(0.00779465 0.0163699 0)
(0.00806969 0.00929698 0)
(0.00629323 0.00740306 0)
(0.00974355 0.0193217 0)
(0.023903 0.035549 0)
(0.0179733 0.0384145 0)
(0.0599691 0.0693194 0)
(0.0588084 0.0762776 0)
(-0.138368 0.090068 0)
(0.390062 -0.0437851 0)
(-0.692442 -0.194054 0)
(0.116228 -0.156271 0)
(-0.119596 -0.114177 0)
(-0.0769548 -0.0355896 0)
(-0.0816923 -0.0108657 0)
(-0.0801592 -0.00433241 0)
(-0.0757457 -0.00357763 0)
(-0.0687951 -0.00380239 0)
(-0.0600003 -0.00324983 0)
(-0.0500035 -0.00141726 0)
(-0.0391189 0.00169465 0)
(-0.027356 0.00588191 0)
(-0.0144476 0.0108854 0)
(0.00074915 0.0165412 0)
(0.0187315 0.0211546 0)
(0.0383159 0.0207412 0)
(0.0584899 0.0128145 0)
(0.0697201 -0.00489872 0)
(0.0711915 -0.0206937 0)
(0.0637659 -0.0303667 0)
(0.0503833 -0.0322165 0)
(0.0340112 -0.0264433 0)
(0.017074 -0.0144501 0)
(-0.000336937 0.0027601 0)
(-0.0105153 0.0174158 0)
(-0.0162161 0.0276634 0)
(-0.0185671 0.0340526 0)
(-0.0173829 0.0352822 0)
(-0.0135251 0.0307999 0)
(-0.00879654 0.0225645 0)
(-0.00487586 0.0140006 0)
(-0.00249407 0.00801226 0)
(-0.00158734 0.00676166 0)
(0.00142043 0.0136645 0)
(0.00977218 0.0246058 0)
(0.00913194 0.0314764 0)
(0.024287 0.0620285 0)
(0.0488655 0.0965082 0)
(-0.192307 0.11658 0)
(0.487896 -0.0520196 0)
(-0.733946 -0.113708 0)
(0.0661165 -0.118325 0)
(-0.154913 -0.136759 0)
(-0.091164 -0.0475187 0)
(-0.0957487 -0.0142684 0)
(-0.0905102 -0.00768429 0)
(-0.0850139 -0.00899121 0)
(-0.0779153 -0.0111483 0)
(-0.0695934 -0.0119721 0)
(-0.0606411 -0.011171 0)
(-0.0513039 -0.00908848 0)
(-0.0414832 -0.00615941 0)
(-0.0307143 -0.00262261 0)
(-0.018718 0.0010215 0)
(-0.00511992 0.00404405 0)
(0.00940567 0.00431235 0)
(0.0208175 0.000526648 0)
(0.0251146 -0.0075379 0)
(0.0225571 -0.0152146 0)
(0.0131275 -0.0188402 0)
(-0.00158192 -0.0163399 0)
(-0.0177384 -0.00828849 0)
(-0.0324414 0.00254514 0)
(-0.0411369 0.0129506 0)
(-0.0448338 0.0217973 0)
(-0.045003 0.02835 0)
(-0.0419567 0.0314931 0)
(-0.0363598 0.0302318 0)
(-0.0296241 0.0249031 0)
(-0.0233923 0.0175216 0)
(-0.0186297 0.0106285 0)
(-0.0153121 0.00611577 0)
(-0.0126337 0.00531714 0)
(-0.00854474 0.00967594 0)
(-0.0011754 0.0184284 0)
(0.00444229 0.0292243 0)
(0.0196266 0.0578051 0)
(0.0653465 0.100205 0)
(-0.156489 0.103792 0)
(0.841958 0.0179332 0)
(-0.789316 0.0449982 0)
(-0.0120378 -0.0872358 0)
(-0.217297 -0.180234 0)
(-0.074778 -0.0719698 0)
(-0.0901423 -0.0150351 0)
(-0.0875219 -0.00677219 0)
(-0.083436 -0.0107446 0)
(-0.0780589 -0.014592 0)
(-0.0721998 -0.0158645 0)
(-0.0663462 -0.0148865 0)
(-0.0606717 -0.0125666 0)
(-0.0551155 -0.00968779 0)
(-0.0494681 -0.00671169 0)
(-0.0435185 -0.00389754 0)
(-0.0371825 -0.00152201 0)
(-0.0309002 -4.65152e-05 0)
(-0.0266366 -9.92242e-05 0)
(-0.0265739 -0.00211242 0)
(-0.0316024 -0.00379933 0)
(-0.0406673 -0.00288445 0)
(-0.0515461 0.000904503 0)
(-0.0611231 0.0063201 0)
(-0.0668764 0.0121448 0)
(-0.0691362 0.0181304 0)
(-0.0682233 0.0234642 0)
(-0.0645199 0.0270512 0)
(-0.0585749 0.0278913 0)
(-0.0513972 0.0255963 0)
(-0.044355 0.0208509 0)
(-0.0385939 0.0151906 0)
(-0.0344841 0.0101486 0)
(-0.031585 0.0067744 0)
(-0.0288293 0.00584325 0)
(-0.0245113 0.00812911 0)
(-0.017502 0.0135397 0)
(-0.00822679 0.0218007 0)
(0.0126582 0.042044 0)
(0.0599471 0.0748349 0)
(-0.126531 0.0656448 0)
(0.831831 0.0631459 0)
(-0.265912 -0.122865 0)
(-0.0165685 -0.063033 0)
(-0.055678 -0.0135265 0)
(-0.0713222 -0.0176308 0)
(-0.0711308 -0.0281424 0)
(-0.0693488 -0.0331775 0)
(-0.0682738 -0.032754 0)
(-0.0678677 -0.0288574 0)
(-0.0679301 -0.0233332 0)
(-0.068235 -0.0173113 0)
(-0.0685931 -0.0112971 0)
(-0.0688679 -0.00550792 0)
(-0.0689953 -9.67906e-05 0)
(-0.0691163 0.00474038 0)
(-0.069914 0.00874658 0)
(-0.0723139 0.0113259 0)
(-0.0764741 0.0130674 0)
(-0.0813469 0.0152421 0)
(-0.0854373 0.0177793 0)
(-0.0878568 0.020367 0)
(-0.088262 0.0229165 0)
(-0.0865337 0.0252927 0)
(-0.082677 0.0269634 0)
(-0.0770097 0.0272404 0)
(-0.0702262 0.0256429 0)
(-0.063354 0.0222213 0)
(-0.0574681 0.0176547 0)
(-0.0532593 0.0129325 0)
(-0.0508128 0.00885841 0)
(-0.049709 0.00586389 0)
(-0.049193 0.00408303 0)
(-0.048176 0.00448425 0)
(-0.0451388 0.00711097 0)
(-0.0385808 0.0119183 0)
(-0.0241521 0.0243761 0)
(-0.00914837 0.0478036 0)
(-0.185711 0.0383688 0)
(0.506042 0.0943442 0)
(-0.245993 -0.19455 0)
(-0.0368601 -0.15594 0)
(-0.0524595 -0.125505 0)
(-0.0510406 -0.113038 0)
(-0.0473784 -0.108882 0)
(-0.0486696 -0.106823 0)
(-0.0529011 -0.107332 0)
(-0.0589669 -0.108638 0)
(-0.0657075 -0.109771 0)
(-0.0722047 -0.110927 0)
(-0.0781478 -0.112259 0)
(-0.0834898 -0.113785 0)
(-0.0882273 -0.115299 0)
(-0.0922577 -0.116229 0)
(-0.09554 -0.11554 0)
(-0.0982439 -0.114579 0)
(-0.100649 -0.113559 0)
(-0.102731 -0.112318 0)
(-0.104014 -0.110438 0)
(-0.104114 -0.107675 0)
(-0.102715 -0.104094 0)
(-0.0996002 -0.100128 0)
(-0.094797 -0.0965987 0)
(-0.0886972 -0.0943687 0)
(-0.0820489 -0.09396 0)
(-0.0757921 -0.0953342 0)
(-0.0707759 -0.0979474 0)
(-0.0675014 -0.101068 0)
(-0.0660705 -0.104108 0)
(-0.0663627 -0.106701 0)
(-0.0683012 -0.108478 0)
(-0.0715785 -0.109656 0)
(-0.074511 -0.108909 0)
(-0.0736365 -0.101399 0)
(-0.0679993 -0.0804953 0)
(-0.0757206 -0.0487831 0)
(-0.150581 -0.0389796 0)
(0.388205 0.00161887 0)
(-0.850195 -0.0640696 0)
(0.212059 0.197957 0)
(0.106279 0.579036 0)
(0.0604109 0.501442 0)
(0.0532069 0.420882 0)
(0.0434037 0.388827 0)
(0.0238307 0.378321 0)
(-0.00419352 0.368735 0)
(-0.0272888 0.362871 0)
(-0.0468572 0.360093 0)
(-0.0639473 0.359094 0)
(-0.0782134 0.359584 0)
(-0.0898597 0.361452 0)
(-0.0990933 0.364592 0)
(-0.106139 0.368564 0)
(-0.111253 0.372224 0)
(-0.114614 0.373597 0)
(-0.116576 0.374726 0)
(-0.117392 0.376104 0)
(-0.117163 0.377503 0)
(-0.115937 0.378404 0)
(-0.113716 0.378416 0)
(-0.11048 0.377474 0)
(-0.106254 0.375848 0)
(-0.101249 0.37405 0)
(-0.0959368 0.372588 0)
(-0.0909907 0.37176 0)
(-0.087102 0.371594 0)
(-0.0847487 0.371927 0)
(-0.0840516 0.372558 0)
(-0.0848165 0.373369 0)
(-0.0867152 0.374333 0)
(-0.0893334 0.37549 0)
(-0.0919538 0.377436 0)
(-0.0926011 0.378432 0)
(-0.0888749 0.373143 0)
(-0.0873006 0.357984 0)
(-0.1143 0.341209 0)
(-0.166718 0.345358 0)
(0.473363 0.388501 0)
)
;

boundaryField
{
    floor
    {
        type            noSlip;
    }
    ceiling
    {
        type            noSlip;
    }
    sWall
    {
        type            noSlip;
    }
    nWall
    {
        type            noSlip;
    }
    sideWalls
    {
        type            empty;
    }
    glass1
    {
        type            noSlip;
    }
    glass2
    {
        type            noSlip;
    }
    sun
    {
        type            noSlip;
    }
    heatsource1
    {
        type            noSlip;
    }
    heatsource2
    {
        type            noSlip;
    }
    Table_master
    {
        type            noSlip;
    }
    Table_slave
    {
        type            noSlip;
    }
    inlet
    {
        type            fixedValue;
        value           uniform (0.2 0 0);
    }
    outlet
    {
        type            zeroGradient;
    }
}


// ************************************************************************* //
