/*--------------------------------*- C++ -*----------------------------------*\
  =========                 |
  \\      /  F ield         | OpenFOAM: The Open Source CFD Toolbox
   \\    /   O peration     | Website:  https://openfoam.org
    \\  /    A nd           | Version:  6
     \\/     M anipulation  |
\*---------------------------------------------------------------------------*/
FoamFile
{
    version     2.0;
    format      ascii;
    class       surfaceScalarField;
    location    "1300";
    object      phi;
}
// * * * * * * * * * * * * * * * * * * * * * * * * * * * * * * * * * * * * * //

dimensions      [1 0 -1 0 0 0 0];

internalField   nonuniform List<scalar> 
852
(
-0.000779645
0.000819003
0.00355687
-0.00433639
0.00603766
-0.00248066
0.00665259
-0.000614794
0.00622067
0.00043206
0.00514916
0.00107166
0.00356416
0.00158518
0.00148206
0.00208237
-0.000503768
0.00198751
-0.00084896
0.000345432
-0.000515526
-0.000333386
-0.000169591
-0.000345927
9.02e-05
-0.000259788
0.000165879
-7.56692e-05
0.000168901
-0.000368436
0.000371327
-0.000123999
-0.000244406
0.000198441
-0.000322415
0.000407412
-0.000208949
0.000495522
-8.80869e-05
0.000422107
7.34407e-05
0.000251121
0.000171015
8.01046e-05
0.000171045
-8.19009e-05
0.000162022
-0.00018434
0.000102445
-0.00023581
5.14773e-05
-0.000253442
1.76403e-05
-0.000238202
-1.52309e-05
-0.000176194
-6.19991e-05
-7.20966e-05
-0.000104084
0.000147885
-0.000219938
0.000482869
-0.000334939
0.000647003
-0.000164092
0.000650279
0.00585586
-0.00493579
0.00716913
-0.00564955
0.00763521
-0.00294662
0.00747976
-0.000459236
0.00667529
0.00123665
0.00532533
0.00242175
0.0036398
0.00327086
0.00192331
0.00379912
0.000479003
0.0034329
-0.000353153
0.00117852
-0.000434637
-0.000251766
-0.000347618
-0.000432927
-0.000211216
-0.000396187
-1.27786e-05
-0.000274102
0.000273921
-0.000117784
0.000274708
-8.24609e-07
0.000274668
0.0004915
-0.000112382
0.000264513
-1.73849e-05
2.63328e-05
-8.42145e-05
5.02053e-07
-0.000183099
8.33907e-05
-0.000170957
8.70281e-05
6.98245e-05
2.4433e-05
0.000233637
3.30268e-05
0.000162476
4.9774e-05
0.000145294
5.73513e-05
9.48809e-05
6.00761e-05
4.87622e-05
5.92105e-05
1.8514e-05
5.81522e-05
-1.41645e-05
6.63578e-05
-7.0194e-05
7.51817e-05
-0.000112888
0.000178689
-0.000323379
0.000299663
-0.000455865
0.000244271
-0.00010866
0.000903348
0.00535574
-0.0101329
0.00639912
-0.00669283
0.00620163
-0.00274902
0.00578977
-4.72685e-05
0.00502095
0.00200558
0.00386148
0.00358133
0.00250297
0.00462951
0.00119753
0.0051048
0.000309009
0.00432234
-0.000179866
0.0016682
-0.000503227
7.17413e-05
-0.000642084
-0.000294047
-0.000666648
-0.000371617
-0.00057062
-0.00037012
-0.000363414
-0.000324974
-0.000153359
-0.000210862
0.000121321
-0.000432608
0.000330704
-0.000638359
0.000188398
-0.000755403
3.28583e-05
-0.000817456
-0.000121012
-0.000761003
-0.000227368
-0.000381546
-0.000309585
-0.000147733
1.49158e-05
0.000160377
0.000255426
0.000304356
0.000323037
0.00030904
0.000239013
0.000126302
5.34078e-05
-0.000250406
-0.000629357
0.000226952
-0.00104104
0.000303074
-0.000124396
0.00309117
-0.0130078
0.00353443
-0.00713596
0.00326298
-0.00247745
0.0030089
0.000206935
0.00248399
0.0025306
0.00166481
0.00440062
0.000765147
0.00552931
1.14125e-05
0.00585881
-0.000296746
0.00463141
-0.000502253
0.00187433
-0.000884461
0.00045406
-0.00117591
-2.58453e-06
-0.00137756
-0.000169956
-0.00150873
-0.00023893
-0.00160361
-0.000230064
-0.00169557
-0.000118857
-0.00171107
0.000136869
-0.00184365
0.000144126
-0.0017579
0.00024502
-0.00184352
0.000274082
-0.00195472
0.000144132
-0.00207147
-4.17536e-06
-0.00217002
-0.000128717
-0.00228831
-0.000191192
-0.00211005
-0.000178294
-0.00188369
-0.0002264
-0.00156774
-0.000315984
-0.0011363
-0.00043148
-0.000572523
-0.000563818
0.000116913
-0.000689481
0.000854822
-0.000737959
0.00151598
-0.000661214
0.00200073
-0.000484805
0.00190019
-0.000149778
0.00172436
0.000402861
0.00124863
0.000778863
0.00113811
0.00115333
-0.0138873
0.00125406
-0.00723657
0.00110517
-0.0023284
0.000632716
0.000679526
7.3846e-05
0.0030896
-0.000458178
0.00493278
-0.00087894
0.00595026
-0.00103491
0.00601514
-0.00089806
0.00449539
-0.000957203
0.00193389
-0.00124223
0.000739149
-0.00152472
0.000279917
-0.0017447
5.0035e-05
-0.00191073
-7.28891e-05
-0.00202915
-0.00011161
-0.00208637
-6.15922e-05
-0.0020116
6.21538e-05
-0.00202581
0.000158415
-0.00199201
0.000211305
-0.00193995
0.000222108
-0.00193416
0.00013843
-0.00195692
1.86801e-05
-0.00198621
-9.9328e-05
-0.00198944
-0.000187863
-0.0018996
-0.000268021
-0.00174262
-0.00038328
-0.00151481
-0.000543691
-0.0012048
-0.000741395
-0.000814565
-0.000953962
-0.000360262
-0.00114369
0.000149046
-0.00124718
0.000681406
-0.00119349
0.00115862
-0.000961932
0.00148575
-0.000476832
0.00168154
0.00020715
0.001682
0.000778475
0.00186003
0.000960157
0.000777915
0.00108201
-0.000449438
0.00122722
-0.000402798
4.89785e-06
-0.0135614
1.83987e-05
-0.00724992
-0.000441319
-0.00186851
-0.00143312
0.00167151
-0.00189994
0.00355657
-0.00205998
0.00509299
-0.00202737
0.00591789
-0.00173415
0.00572235
-0.00130506
0.00406697
-0.00120306
0.00183215
-0.0012957
0.000831831
-0.00142187
0.000406076
-0.00154379
0.000171949
-0.00164678
3.01012e-05
-0.00172224
-3.61464e-05
-0.0017541
-2.97116e-05
-0.00172031
2.8399e-05
-0.00166374
0.0001019
-0.00160666
0.000154293
-0.00154839
0.000163894
-0.00152305
0.000113164
-0.00153105
2.67527e-05
-0.00155758
-7.2724e-05
-0.00157452
-0.000170847
-0.00156025
-0.000282206
-0.00151046
-0.000432989
-0.00141905
-0.00063503
-0.00128011
-0.000880259
-0.00109768
-0.00113632
-0.000882814
-0.00135848
-0.00063524
-0.00149466
-0.000332368
-0.00149627
3.5729e-05
-0.00132994
0.000491652
-0.000932668
0.00101372
-0.000314838
0.00151669
0.00027559
0.00197308
0.00050387
0.00235203
0.000703157
0.00236122
0.00121813
0.00201309
-0.00059093
-0.0125849
-0.000984749
-0.00685595
-0.00184949
-0.00100359
-0.00298786
0.00281006
-0.00325639
0.00382527
-0.0030762
0.004913
-0.00265918
0.00550115
-0.00205112
0.0051147
-0.00145404
0.00347043
-0.00121747
0.00159574
-0.00114858
0.000762958
-0.00113154
0.00038903
-0.0011376
0.000177988
-0.00115425
4.67324e-05
-0.00116711
-2.33045e-05
-0.00116057
-3.62526e-05
-0.00112426
-7.90788e-06
-0.00106054
3.81931e-05
-0.000986558
8.03304e-05
-0.000919246
9.66076e-05
-0.000882758
7.67017e-05
-0.000885892
2.99155e-05
-0.000922971
-3.56105e-05
-0.000979785
-0.000113992
-0.00104838
-0.000213569
-0.0011262
-0.000355123
-0.00120774
-0.000553444
-0.00128565
-0.000802295
-0.00135989
-0.00106201
-0.00142834
-0.00128995
-0.00147599
-0.00144692
-0.00147543
-0.00149673
-0.00139586
-0.00140939
-0.00116857
-0.00115985
-0.000703914
-0.000779376
-1.79376e-05
-0.000410229
0.000884238
-0.000398139
0.00199672
-0.000409159
0.00226833
0.000946658
0.00433608
-0.0027315
-0.00941754
-0.00377838
-0.00580891
-0.0036985
-0.00108332
-0.00443449
0.00354624
-0.00413889
0.00352987
-0.00353428
0.00430861
-0.00278953
0.00475669
-0.00198092
0.00430647
-0.0013048
0.00279469
-0.000979053
0.0012701
-0.000805232
0.000589148
-0.000692712
0.000276502
-0.000614152
9.94142e-05
-0.000557427
-1.00089e-05
-0.000514165
-6.65864e-05
-0.000473533
-7.69048e-05
-0.000424944
-5.65163e-05
-0.000362965
-2.37985e-05
-0.000289484
6.8383e-06
-0.000217911
2.5024e-05
-0.000166977
2.57556e-05
-0.000148968
1.18938e-05
-0.000170528
-1.40606e-05
-0.000233546
-5.09784e-05
-0.000344008
-0.000103108
-0.000514188
-0.000184938
-0.000751259
-0.000316363
-0.00104799
-0.000505534
-0.00139983
-0.000710113
-0.00179613
-0.000893557
-0.0022159
-0.00102703
-0.00262999
-0.00108252
-0.00300021
-0.00103903
-0.00328362
-0.000876285
-0.00347316
-0.000589681
-0.0036503
-0.000232911
-0.00409434
4.60922e-05
-0.00463093
0.000127623
-0.00384758
0.000163464
0.000761874
-0.00894794
-0.0147608
-0.0096853
-0.00615866
-0.00622187
8.29808e-05
-0.00456092
0.00186911
-0.00344076
0.00318866
-0.00242381
0.00374001
-0.00149422
0.00337719
-0.00078162
0.00208235
-0.000420667
0.000909217
-0.000211652
0.000380149
-6.13047e-05
0.00012616
5.97062e-05
-2.15937e-05
0.000150979
-0.00010128
0.000215069
-0.000130683
0.000267244
-0.000129094
0.00031903
-0.000108323
0.000374652
-7.94457e-05
0.000433239
-5.17737e-05
0.000489981
-3.17463e-05
0.000536844
-2.11384e-05
0.000565808
-1.7106e-05
0.000568833
-1.71251e-05
0.000538192
-2.03756e-05
0.000461733
-2.66851e-05
0.000314187
-3.74269e-05
5.56862e-05
-5.78905e-05
-0.000340381
-0.000109472
-0.000866312
-0.000184144
-0.00150543
-0.000254346
-0.00224415
-0.000288167
-0.00306589
-0.000260606
-0.0039287
-0.00017602
-0.0047567
-4.80683e-05
-0.00548043
0.000134296
-0.00609913
0.000386064
-0.00672838
0.000675647
-0.00732089
0.000720459
-0.00598524
-0.00117184
-0.0049482
-0.00789446
0.00205583
-0.00577564
-0.00203571
-0.00395521
4.88214e-05
-0.00264954
0.00188317
-0.00153585
0.00262653
-0.000498414
0.00234
0.000239029
0.00134509
0.000572446
0.000575853
0.000749104
0.000203518
0.000873762
1.5247e-06
0.000961128
-0.000108935
0.00101449
-0.000154614
0.00104728
-0.000163454
0.00107101
-0.000152818
0.00109454
-0.000131855
0.00112212
-0.000107043
0.00115375
-8.34266e-05
0.00118613
-6.41629e-05
0.00121464
-4.96923e-05
0.00123562
-3.81236e-05
0.0012459
-2.7462e-05
0.00124203
-1.65527e-05
0.00121944
-4.15202e-06
0.00116829
1.36629e-05
0.00107499
3.53531e-05
0.000912588
5.2884e-05
0.000666667
6.17525e-05
0.000348582
6.3764e-05
-3.36396e-06
6.38868e-05
-0.000330232
6.64222e-05
-0.000600773
9.47126e-05
-0.000834286
0.000185657
-0.00104201
0.000342249
-0.00115093
0.000495221
-0.000869177
0.000394154
0.000219013
-0.000367464
0.00102843
-0.00198098
-0.00385941
-0.00139814
0.00345008
-0.00196826
-0.0014655
-0.00202361
0.000104255
-0.00129256
0.00115224
-0.000156707
0.00149082
0.00100433
0.00117914
0.00169552
0.000653995
0.00198905
0.000282383
0.00211051
8.21069e-05
0.00214242
-3.03423e-05
0.00211509
-8.15571e-05
0.00206503
-0.000104501
0.0020103
-0.00010868
0.00196047
-0.00010295
0.00192098
-9.2348e-05
0.00189366
-7.9711e-05
0.00187722
-6.70015e-05
0.00186844
-5.53961e-05
0.00186375
-4.50409e-05
0.00186079
-3.5203e-05
0.00185822
-2.49402e-05
0.00185506
-1.34461e-05
0.00185064
2.02903e-07
0.00184466
1.95782e-05
0.00183612
4.38269e-05
0.0018185
7.04358e-05
0.00178375
9.64343e-05
0.00172832
0.000119142
0.00165662
0.000135574
0.00157687
0.000146206
0.00150892
0.000162746
0.0014924
0.000202317
0.00157473
0.000260106
0.00179794
0.000272228
0.00211367
7.86572e-05
0.00214516
-0.000398707
0.00128204
-0.00111762
-0.00250799
0.00346559
-0.00327228
0.000172252
-0.00130528
-0.00121774
-8.24458e-05
0.00139199
0.00255552
0.00319419
0.00346122
0.00352787
0.00348198
0.0033849
0.00326498
0.00314104
0.003023
0.00291575
0.00282132
0.00273975
0.00266991
0.00261053
0.00256104
0.00252185
0.00249419
0.00248018
0.00248562
0.00251541
0.00257201
0.00265496
0.00276116
0.00288459
0.00301962
0.00317228
0.00336568
0.00361802
0.00388338
0.00395558
0.00355057
0.00242683
)
;

boundaryField
{
    floor
    {
        type            calculated;
        value           nonuniform List<scalar> 
29
(
0
0
0
0
0
0
0
0
0
0
0
0
0
0
0
0
0
0
0
0
-3.23931e-06
-8.76065e-06
-1.32674e-05
-1.38125e-05
-3.00134e-06
-2.85673e-06
-7.75092e-06
-1.04384e-05
-1.14812e-05
)
;
    }
    ceiling
    {
        type            calculated;
        value           nonuniform List<scalar> 
43
(
2.49149e-05
1.28039e-05
5.66524e-06
1.21284e-05
1.68138e-05
1.70319e-05
1.64961e-05
1.57083e-05
1.54055e-05
1.54212e-05
1.55335e-05
1.56268e-05
1.56065e-05
1.55051e-05
1.53486e-05
1.51599e-05
1.49592e-05
1.47643e-05
1.45895e-05
1.44448e-05
1.43343e-05
1.42568e-05
1.42067e-05
1.41754e-05
1.41489e-05
1.40829e-05
1.39643e-05
1.37593e-05
1.34118e-05
1.28605e-05
1.20825e-05
1.11241e-05
1.00566e-05
8.9255e-06
7.8284e-06
6.9707e-06
6.60031e-06
6.46931e-06
6.3273e-06
6.8715e-06
5.90343e-06
4.10323e-06
4.00473e-06
)
;
    }
    sWall
    {
        type            calculated;
        value           uniform -0.000161678;
    }
    nWall
    {
        type            calculated;
        value           nonuniform List<scalar> 6(-4.67365e-05 -5.45775e-05 -5.45523e-05 -6.00674e-05 -6.91058e-05 -8.77786e-05);
    }
    sideWalls
    {
        type            empty;
        value           nonuniform 0();
    }
    glass1
    {
        type            calculated;
        value           nonuniform List<scalar> 9(-3.91716e-05 -0.000100963 -0.000158498 -0.000216189 -0.000273678 -0.000330665 -0.00038549 -0.000435702 -0.000475359);
    }
    glass2
    {
        type            calculated;
        value           nonuniform List<scalar> 2(-0.000273263 -0.000274804);
    }
    sun
    {
        type            calculated;
        value           uniform 0;
    }
    heatsource1
    {
        type            calculated;
        value           nonuniform List<scalar> 3(2.03963e-07 2.04263e-07 2.0458e-07);
    }
    heatsource2
    {
        type            calculated;
        value           nonuniform List<scalar> 4(5.11676e-08 5.11829e-08 0 0);
    }
    Table_master
    {
        type            calculated;
        value           nonuniform List<scalar> 9(-1.53617e-07 -1.53724e-07 -1.53745e-07 -1.53733e-07 -1.53733e-07 -1.5374e-07 -1.53752e-07 -1.53769e-07 -1.53783e-07);
    }
    Table_slave
    {
        type            calculated;
        value           nonuniform List<scalar> 9(1.52723e-07 1.52774e-07 1.52837e-07 1.52929e-07 1.53062e-07 1.53204e-07 1.53152e-07 1.52944e-07 1.52797e-07);
    }
    inlet
    {
        type            calculated;
        value           uniform -0.000319889;
    }
    outlet
    {
        type            calculated;
        value           nonuniform List<scalar> 2(-0.00332869 0.00672521);
    }
}


// ************************************************************************* //
