/*--------------------------------*- C++ -*----------------------------------*\
  =========                 |
  \\      /  F ield         | OpenFOAM: The Open Source CFD Toolbox
   \\    /   O peration     | Website:  https://openfoam.org
    \\  /    A nd           | Version:  6
     \\/     M anipulation  |
\*---------------------------------------------------------------------------*/
FoamFile
{
    version     2.0;
    format      ascii;
    class       volScalarField;
    location    "70";
    object      epsilon;
}
// * * * * * * * * * * * * * * * * * * * * * * * * * * * * * * * * * * * * * //

dimensions      [0 2 -3 0 0 0 0];

internalField   nonuniform List<scalar> 
459
(
0.000358624
0.000480086
0.000526142
0.000613947
0.00070608
0.000806007
0.000918108
0.00101125
0.00106583
0.00106434
0.00100044
0.000875695
0.00066398
0.000414091
0.000240056
9.4551e-05
0.000146736
0.000127024
0.000104555
8.39285e-05
6.6491e-05
5.04383e-05
3.77177e-05
2.83408e-05
2.13126e-05
1.59842e-05
1.19895e-05
9.06861e-06
7.00231e-06
5.60633e-06
4.82677e-06
5.56346e-06
1.56711e-05
4.31492e-05
0.000824842
0.00110172
0.000445525
0.000443296
0.000474966
0.00053057
0.00061259
0.00069603
0.000752809
0.000760925
0.000715688
0.000628334
0.000507544
0.000396365
0.000281143
0.000454176
0.000210259
0.00028185
0.000543967
0.000210877
0.000127184
8.65165e-05
6.27517e-05
5.13409e-05
3.76629e-05
2.73467e-05
1.99174e-05
1.45396e-05
1.06581e-05
7.89733e-06
6.00752e-06
4.90463e-06
5.00009e-06
1.3643e-05
5.06622e-05
7.38828e-05
0.00142813
0.00246081
0.00051149
0.000418124
0.000457004
0.000540455
0.000657047
0.000767682
0.000836142
0.000846088
0.000798595
0.000707357
0.000587757
0.000478452
0.000376195
0.000338319
0.000416649
0.000351542
0.000639015
0.000289361
0.000169558
0.000110235
8.04095e-05
0.000131727
7.5616e-05
4.61142e-05
2.98056e-05
2.01897e-05
1.42282e-05
1.04523e-05
8.11041e-06
6.92012e-06
7.5605e-06
1.56417e-05
6.84451e-05
9.87175e-05
0.00222685
0.00491699
0.000744592
0.000424189
0.000463136
0.000588264
0.000762881
0.000896253
0.000962515
0.000964675
0.000907518
0.000803524
0.000679497
0.000559528
0.000457723
0.000384864
0.000345899
0.000602112
0.000550846
0.000362481
0.000244717
0.000169786
0.000119567
9.12567e-05
0.000163704
9.81141e-05
7.05677e-05
6.65634e-05
7.5126e-05
8.6848e-05
9.65725e-05
0.000100195
9.32102e-05
5.71825e-05
4.39053e-05
0.000106417
0.000141282
0.00330905
0.00868287
0.00138273
0.000502977
0.000514912
0.000742375
0.000993555
0.00111874
0.00115728
0.00113439
0.00105511
0.000927185
0.000770944
0.000614913
0.000482888
0.0003854
0.000322911
0.000305368
0.000268265
0.000233159
0.000192948
0.000152536
0.00011633
8.83761e-05
7.61816e-05
6.28865e-05
5.68718e-05
5.97485e-05
6.74615e-05
7.59477e-05
8.25224e-05
8.5286e-05
8.32208e-05
7.59254e-05
6.745e-05
0.000102982
0.000128388
0.000197352
0.000170476
0.000128025
0.00480948
0.0129895
0.00304142
0.000925499
0.000806696
0.00124821
0.0014403
0.0014771
0.00145093
0.00138297
0.00126186
0.00108621
0.000877157
0.000669777
0.000495886
0.000371467
0.000298144
0.000262113
0.000235443
0.000208452
0.000176623
0.00014239
0.00011101
8.76324e-05
7.55999e-05
7.23598e-05
7.77696e-05
9.00217e-05
0.000103705
0.000115491
0.000123502
0.000126709
0.000125069
0.000118438
0.00010531
0.000106102
0.000120524
0.000135656
0.000200656
0.000186872
0.00653471
0.0157118
0.00640487
0.00288171
0.00239873
0.00235178
0.00219273
0.00202353
0.00187771
0.00172893
0.00153623
0.001287
0.00100579
0.000736045
0.000518243
0.00037001
0.00028866
0.000250914
0.00022526
0.000197979
0.000167406
0.000137935
0.000115068
0.000102169
0.000100486
0.000108861
0.000127573
0.000150422
0.000170281
0.000183998
0.000190909
0.000191744
0.000189034
0.000186523
0.000177857
0.000163367
0.000159205
0.000162936
0.000291935
0.000270304
0.00696499
0.0178976
0.00994258
0.00678273
0.00512295
0.00393675
0.00317942
0.00272107
0.00242993
0.00217939
0.0018825
0.00152489
0.00114634
0.000801281
0.000541796
0.000378227
0.000296166
0.000259284
0.000233925
0.000208042
0.000184603
0.000167726
0.000160474
0.000164074
0.000178527
0.0002028
0.00023619
0.000269488
0.000292317
0.000301774
0.000298869
0.000287756
0.000277686
0.000282113
0.000310094
0.00033427
0.000364675
0.000429508
0.00128439
0.000367803
0.00649061
0.0109289
0.00914552
0.00698568
0.00542046
0.00439238
0.00374378
0.00335352
0.00306662
0.00272463
0.00226275
0.00173881
0.00124425
0.000828919
0.000578409
0.000450443
0.000386923
0.000355022
0.000335052
0.000321249
0.000315749
0.00032148
0.000340018
0.000370862
0.000411363
0.000456977
0.000503028
0.000543458
0.000560985
0.000551163
0.000514554
0.000457501
0.000398397
0.000364957
0.000377314
0.000427815
0.000510836
0.000636998
0.000787499
0.000510616
0.00400079
0.00576034
0.00507331
0.00460578
0.00436256
0.00416365
0.00378099
0.00313977
0.00234215
0.00167116
0.00129237
0.00107206
0.000945819
0.000877205
0.000841924
0.000827886
0.000829664
0.000846942
0.00088153
0.000934508
0.00100477
0.00108796
0.00117587
0.00125667
0.00131591
0.00135395
0.00135729
0.00131335
0.00121657
0.00106795
0.000893213
0.000752913
0.000651812
0.00061928
0.00065458
0.000745035
0.000911067
0.00108761
0.00232792
0.00381994
0.00505351
0.00572045
0.00615522
0.00619898
0.00562969
0.00471028
0.00381589
0.00315054
0.00274787
0.00252211
0.00240451
0.0023488
0.00233604
0.00236142
0.00242012
0.00250867
0.00262742
0.00277869
0.0029628
0.00317382
0.00339774
0.00361387
0.00379832
0.00392415
0.0039888
0.00398951
0.00390699
0.00370826
0.00335917
0.00284189
0.00225478
0.00171245
0.00131491
0.00112953
0.00232506
0.00180394
0.0010001
0.00125556
0.00160599
0.00188894
0.00220597
0.00266341
0.00299799
0.00312975
0.00302606
0.0028252
0.00256293
0.00230928
0.00211845
0.00199176
0.00191518
0.00187585
0.00186362
0.00187135
0.00189443
0.00193039
0.00197769
0.00203437
0.00209707
0.00216073
0.00221907
0.00226522
0.0022928
0.00230083
0.00228845
0.00225235
0.00218854
0.00209249
0.00196265
0.00180886
0.00164239
0.00147268
0.00129598
0.00112189
0.00116324
0.00099165
)
;

boundaryField
{
    floor
    {
        Cmu             0.09;
        kappa           0.41;
        E               9.8;
        type            epsilonWallFunction;
        value           nonuniform List<scalar> 
29
(
0.000240056
9.4551e-05
0.000146736
0.000127024
0.000104555
8.39285e-05
6.6491e-05
5.04383e-05
3.77177e-05
2.83408e-05
2.13126e-05
1.59842e-05
1.19895e-05
9.06861e-06
7.00231e-06
5.60633e-06
4.82677e-06
5.56346e-06
1.56711e-05
4.31492e-05
4.31492e-05
7.38828e-05
9.87175e-05
0.000141282
0.000240056
9.4551e-05
0.00028185
0.000351542
0.000602112
)
;
    }
    ceiling
    {
        Cmu             0.09;
        kappa           0.41;
        E               9.8;
        type            epsilonWallFunction;
        value           nonuniform List<scalar> 
43
(
0.0010001
0.00125556
0.00160599
0.00188894
0.00220597
0.00266341
0.00299799
0.00312975
0.00302606
0.0028252
0.00256293
0.00230928
0.00211845
0.00199176
0.00191518
0.00187585
0.00186362
0.00187135
0.00189443
0.00193039
0.00197769
0.00203437
0.00209707
0.00216073
0.00221907
0.00226522
0.0022928
0.00230083
0.00228845
0.00225235
0.00218854
0.00209249
0.00196265
0.00180886
0.00164239
0.00147268
0.00129598
0.00112189
0.00116324
0.00099165
0.00649061
0.0109289
0.00232792
)
;
    }
    sWall
    {
        Cmu             0.09;
        kappa           0.41;
        E               9.8;
        type            epsilonWallFunction;
        value           uniform 0.0010001;
    }
    nWall
    {
        Cmu             0.09;
        kappa           0.41;
        E               9.8;
        type            epsilonWallFunction;
        value           nonuniform List<scalar> 6(0.000128025 0.000186872 0.000270304 0.00108761 0.00180394 0.00099165);
    }
    sideWalls
    {
        type            empty;
    }
    glass1
    {
        Cmu             0.09;
        kappa           0.41;
        E               9.8;
        type            epsilonWallFunction;
        value           nonuniform List<scalar> 9(0.000358624 0.000824842 0.00142813 0.00222685 0.00330905 0.00480948 0.00653471 0.00696499 0.00649061);
    }
    glass2
    {
        Cmu             0.09;
        kappa           0.41;
        E               9.8;
        type            epsilonWallFunction;
        value           nonuniform List<scalar> 2(0.000367803 0.000510616);
    }
    sun
    {
        Cmu             0.09;
        kappa           0.41;
        E               9.8;
        type            epsilonWallFunction;
        value           nonuniform List<scalar> 
14
(
0.000358624
0.000480086
0.000526142
0.000613947
0.00070608
0.000806007
0.000918108
0.00101125
0.00106583
0.00106434
0.00100044
0.000875695
0.00066398
0.000414091
)
;
    }
    heatsource1
    {
        Cmu             0.09;
        kappa           0.41;
        E               9.8;
        type            epsilonWallFunction;
        value           nonuniform List<scalar> 3(0.000197352 0.000170476 0.000128025);
    }
    heatsource2
    {
        Cmu             0.09;
        kappa           0.41;
        E               9.8;
        type            epsilonWallFunction;
        value           nonuniform List<scalar> 4(0.000454176 0.000210259 0.000210259 0.000416649);
    }
    Table_master
    {
        Cmu             0.09;
        kappa           0.41;
        E               9.8;
        type            epsilonWallFunction;
        value           nonuniform List<scalar> 9(0.000131727 7.5616e-05 4.61142e-05 2.98056e-05 2.01897e-05 1.42282e-05 1.04523e-05 8.11041e-06 6.92012e-06);
    }
    Table_slave
    {
        Cmu             0.09;
        kappa           0.41;
        E               9.8;
        type            epsilonWallFunction;
        value           nonuniform List<scalar> 9(0.000163704 9.81141e-05 7.05677e-05 6.65634e-05 7.5126e-05 8.6848e-05 9.65725e-05 0.000100195 9.32102e-05);
    }
    inlet
    {
        type            turbulentMixingLengthDissipationRateInlet;
        mixingLength    0.01;
        phi             phi;
        k               k;
        value           uniform 3.01869e-05;
    }
    outlet
    {
        type            zeroGradient;
    }
}


// ************************************************************************* //
