/*--------------------------------*- C++ -*----------------------------------*\
  =========                 |
  \\      /  F ield         | OpenFOAM: The Open Source CFD Toolbox
   \\    /   O peration     | Website:  https://openfoam.org
    \\  /    A nd           | Version:  6
     \\/     M anipulation  |
\*---------------------------------------------------------------------------*/
FoamFile
{
    version     2.0;
    format      ascii;
    class       volScalarField;
    location    "600";
    object      epsilon;
}
// * * * * * * * * * * * * * * * * * * * * * * * * * * * * * * * * * * * * * //

dimensions      [0 2 -3 0 0 0 0];

internalField   nonuniform List<scalar> 
459
(
9.88776e-05
0.000108855
8.07484e-05
8.74591e-05
9.60005e-05
0.000104772
0.000113803
0.000123421
0.000134248
0.000144725
0.000154294
0.000162441
0.000168658
0.000172297
0.000170857
6.99231e-06
6.16354e-06
5.18906e-06
4.10455e-06
3.65453e-06
3.5731e-06
3.77747e-06
4.33811e-06
4.97694e-06
5.54952e-06
5.89288e-06
5.79945e-06
5.67203e-06
5.90302e-06
6.70945e-06
8.3538e-06
1.02114e-05
1.71051e-05
1.14061e-05
0.000495057
0.0010534
0.000116152
6.60112e-05
6.56856e-05
6.93535e-05
7.38585e-05
7.91809e-05
8.58238e-05
9.33355e-05
0.000101808
0.000111685
0.000123513
0.000137854
0.000158801
0.000223222
5.03255e-05
1.81142e-05
1.65717e-05
1.3008e-05
1.0231e-05
9.076e-06
8.69728e-06
8.71247e-06
1.04293e-05
1.23308e-05
1.39335e-05
1.51538e-05
1.63138e-05
1.78819e-05
2.055e-05
2.45829e-05
2.82691e-05
3.69785e-05
8.10524e-05
4.15586e-05
0.00132108
0.00368925
0.000350698
9.25582e-05
7.57625e-05
7.87542e-05
8.47065e-05
9.16598e-05
9.94444e-05
0.000107604
0.000115892
0.000124739
0.000134734
0.000146191
0.000160041
0.000184767
0.000256518
6.05445e-05
3.42921e-05
2.02485e-05
1.6038e-05
1.45278e-05
1.33095e-05
9.32639e-06
1.09536e-05
1.3122e-05
1.57987e-05
1.9353e-05
2.44974e-05
3.24787e-05
4.62216e-05
7.27405e-05
5.45887e-05
8.02636e-05
0.000187397
8.94585e-05
0.00272876
0.00834974
0.00104165
0.000189144
0.000113621
0.000108926
0.000114617
0.000122958
0.000132475
0.000141227
0.000148644
0.000155684
0.000163462
0.000171996
0.000179439
0.000183266
0.000185939
0.000210258
5.79976e-05
3.94383e-05
3.24536e-05
3.34341e-05
3.80599e-05
4.6701e-05
6.29984e-05
6.09781e-05
5.99993e-05
5.99126e-05
6.1059e-05
6.39517e-05
6.95375e-05
7.99219e-05
0.00010051
6.00618e-05
8.08264e-05
0.000147198
0.000104217
0.00475171
0.0143664
0.00266409
0.0005471
0.000256836
0.000202861
0.000191852
0.000193241
0.000200416
0.000204993
0.000206739
0.000208289
0.000212289
0.00021925
0.000225809
0.000224495
0.000205736
0.000160649
0.000102576
7.0386e-05
5.82357e-05
5.43381e-05
5.33487e-05
5.30643e-05
5.23887e-05
5.06067e-05
4.92008e-05
4.83217e-05
4.81052e-05
4.87629e-05
5.06131e-05
5.4103e-05
5.95111e-05
6.56e-05
7.74276e-05
9.71693e-05
0.000132886
0.00012892
0.000124693
6.58409e-05
0.00735191
0.0195457
0.00575567
0.0017957
0.000875526
0.000567045
0.000443181
0.000385007
0.000357991
0.000333009
0.000309001
0.0002895
0.000278276
0.000276664
0.000281047
0.000281543
0.000264405
0.000222238
0.000171366
0.000133161
0.000110569
9.78394e-05
9.08304e-05
8.66553e-05
8.34011e-05
8.04421e-05
7.80108e-05
7.61273e-05
7.48058e-05
7.41664e-05
7.44772e-05
7.62415e-05
8.01863e-05
8.67176e-05
9.56053e-05
0.00010735
0.000126931
0.000160554
0.000206358
0.00021009
0.00999267
0.0211548
0.010624
0.00542311
0.00315431
0.00193212
0.00130342
0.000958517
0.000747104
0.000605728
0.000502634
0.000427014
0.000375545
0.000346924
0.000337647
0.000336494
0.000325244
0.000293847
0.000251014
0.000211906
0.00018303
0.000163508
0.000151074
0.000143199
0.000137731
0.00013357
0.000130361
0.000127865
0.000125915
0.000124554
0.000124067
0.000125034
0.000128309
0.000134583
0.000143887
0.000157406
0.000184914
0.000253212
0.000385118
0.000490964
0.0100238
0.0216466
0.0168762
0.012943
0.00857807
0.00538578
0.00347068
0.00232575
0.00160595
0.00114346
0.000847788
0.000653435
0.000526653
0.000449228
0.000409215
0.000393646
0.000384866
0.000367728
0.000339893
0.000309167
0.000282255
0.000261467
0.000246837
0.000237175
0.000230849
0.000226667
0.000223937
0.000222068
0.000220516
0.000219171
0.000218342
0.000218634
0.000220814
0.000225438
0.000232261
0.000240905
0.00025768
0.00033612
0.000599009
0.000731838
0.0087201
0.013003
0.0413069
0.0311186
0.018615
0.0109781
0.00660902
0.00411064
0.00266024
0.00179508
0.00126073
0.000927137
0.000721635
0.000600008
0.000534082
0.000504392
0.000494002
0.000488195
0.000479035
0.000466215
0.000452447
0.00044019
0.000431014
0.000425416
0.000422813
0.000422469
0.000423708
0.000425547
0.000426754
0.000427147
0.00042724
0.000427757
0.000429249
0.000431629
0.000433747
0.000433296
0.000427358
0.000434036
0.000652906
0.000982494
0.126861
0.102123
0.0246832
0.0113185
0.00637719
0.00395959
0.00263865
0.00187684
0.00142649
0.00116091
0.00100717
0.000922749
0.000881881
0.000868249
0.000871049
0.000882061
0.000894905
0.000905965
0.00091436
0.000920805
0.000927387
0.000935943
0.000946048
0.000957477
0.000969874
0.00098142
0.000989116
0.000993357
0.00099569
0.00099757
0.000999737
0.00100167
0.00100091
0.000992045
0.000964942
0.000915072
0.000956417
0.00139973
0.0792104
0.0422292
0.0155193
0.00782213
0.00483487
0.00345069
0.00274588
0.00238251
0.00221191
0.00215392
0.00215877
0.00219339
0.00223745
0.00228013
0.00231577
0.0023418
0.0023592
0.00237164
0.00238306
0.00239655
0.00241335
0.00243324
0.00245641
0.0024826
0.00251112
0.00253748
0.00255388
0.00256148
0.0025638
0.00256347
0.00256057
0.00255182
0.00252969
0.00248184
0.00239613
0.00228317
0.00248841
0.00235189
0.00146185
0.00375064
0.025372
0.0141468
0.00632306
0.0040002
0.00306293
0.00246454
0.00208446
0.00184666
0.00170224
0.00162001
0.00157837
0.00156211
0.0015605
0.00156634
0.00157508
0.00158366
0.00159
0.00159305
0.0015929
0.00159035
0.0015865
0.00158224
0.00157791
0.00157366
0.00156932
0.00156551
0.0015627
0.00155697
0.00154723
0.00153334
0.00151487
0.00149028
0.00145627
0.0014073
0.00133537
0.00123316
0.00113652
0.000846505
)
;

boundaryField
{
    floor
    {
        Cmu             0.09;
        kappa           0.41;
        E               9.8;
        type            epsilonWallFunction;
        value           nonuniform List<scalar> 
29
(
0.000170857
6.99231e-06
6.16354e-06
5.18906e-06
4.10455e-06
3.65453e-06
3.5731e-06
3.77747e-06
4.33811e-06
4.97694e-06
5.54952e-06
5.89288e-06
5.79945e-06
5.67203e-06
5.90302e-06
6.70945e-06
8.3538e-06
1.02114e-05
1.71051e-05
1.14061e-05
1.14061e-05
4.15586e-05
8.94585e-05
0.000104217
0.000170857
6.99231e-06
1.81142e-05
6.05445e-05
0.000210258
)
;
    }
    ceiling
    {
        Cmu             0.09;
        kappa           0.41;
        E               9.8;
        type            epsilonWallFunction;
        value           nonuniform List<scalar> 
43
(
0.00146185
0.00375064
0.025372
0.0141468
0.00632306
0.0040002
0.00306293
0.00246454
0.00208446
0.00184666
0.00170224
0.00162001
0.00157837
0.00156211
0.0015605
0.00156634
0.00157508
0.00158366
0.00159
0.00159305
0.0015929
0.00159035
0.0015865
0.00158224
0.00157791
0.00157366
0.00156932
0.00156551
0.0015627
0.00155697
0.00154723
0.00153334
0.00151487
0.00149028
0.00145627
0.0014073
0.00133537
0.00123316
0.00113652
0.000846505
0.0087201
0.013003
0.0792104
)
;
    }
    sWall
    {
        Cmu             0.09;
        kappa           0.41;
        E               9.8;
        type            epsilonWallFunction;
        value           uniform 0.00146185;
    }
    nWall
    {
        Cmu             0.09;
        kappa           0.41;
        E               9.8;
        type            epsilonWallFunction;
        value           nonuniform List<scalar> 6(6.58409e-05 0.00021009 0.000490964 0.00139973 0.00235189 0.000846505);
    }
    sideWalls
    {
        type            empty;
    }
    glass1
    {
        Cmu             0.09;
        kappa           0.41;
        E               9.8;
        type            epsilonWallFunction;
        value           nonuniform List<scalar> 9(9.88776e-05 0.000495057 0.00132108 0.00272876 0.00475171 0.00735191 0.00999267 0.0100238 0.0087201);
    }
    glass2
    {
        Cmu             0.09;
        kappa           0.41;
        E               9.8;
        type            epsilonWallFunction;
        value           nonuniform List<scalar> 2(0.000731838 0.000982494);
    }
    sun
    {
        Cmu             0.09;
        kappa           0.41;
        E               9.8;
        type            epsilonWallFunction;
        value           nonuniform List<scalar> 
14
(
9.88776e-05
0.000108855
8.07484e-05
8.74591e-05
9.60005e-05
0.000104772
0.000113803
0.000123421
0.000134248
0.000144725
0.000154294
0.000162441
0.000168658
0.000172297
)
;
    }
    heatsource1
    {
        Cmu             0.09;
        kappa           0.41;
        E               9.8;
        type            epsilonWallFunction;
        value           nonuniform List<scalar> 3(0.00012892 0.000124693 6.58409e-05);
    }
    heatsource2
    {
        Cmu             0.09;
        kappa           0.41;
        E               9.8;
        type            epsilonWallFunction;
        value           nonuniform List<scalar> 4(0.000223222 5.03255e-05 5.03255e-05 0.000256518);
    }
    Table_master
    {
        Cmu             0.09;
        kappa           0.41;
        E               9.8;
        type            epsilonWallFunction;
        value           nonuniform List<scalar> 9(9.32639e-06 1.09536e-05 1.3122e-05 1.57987e-05 1.9353e-05 2.44974e-05 3.24787e-05 4.62216e-05 7.27405e-05);
    }
    Table_slave
    {
        Cmu             0.09;
        kappa           0.41;
        E               9.8;
        type            epsilonWallFunction;
        value           nonuniform List<scalar> 9(6.29984e-05 6.09781e-05 5.99993e-05 5.99126e-05 6.1059e-05 6.39517e-05 6.95375e-05 7.99219e-05 0.00010051);
    }
    inlet
    {
        type            turbulentMixingLengthDissipationRateInlet;
        mixingLength    0.01;
        phi             phi;
        k               k;
        value           uniform 3.77337e-06;
    }
    outlet
    {
        type            zeroGradient;
    }
}


// ************************************************************************* //
