/*--------------------------------*- C++ -*----------------------------------*\
  =========                 |
  \\      /  F ield         | OpenFOAM: The Open Source CFD Toolbox
   \\    /   O peration     | Website:  https://openfoam.org
    \\  /    A nd           | Version:  6
     \\/     M anipulation  |
\*---------------------------------------------------------------------------*/
FoamFile
{
    version     2.0;
    format      ascii;
    class       volScalarField;
    location    "100";
    object      nut;
}
// * * * * * * * * * * * * * * * * * * * * * * * * * * * * * * * * * * * * * //

dimensions      [0 2 -1 0 0 0 0];

internalField   nonuniform List<scalar> 
459
(
0.0010629
0.00114926
0.00115355
0.00120793
0.00125948
0.00130774
0.00135439
0.00140169
0.00144573
0.00147778
0.00149145
0.00147974
0.00143831
0.00137067
0.00129027
0.000537697
0.000647638
0.000698566
0.000686342
0.00066776
0.000645543
0.000616142
0.000585632
0.000557164
0.000531405
0.000508258
0.000487446
0.000468557
0.000451163
0.000434927
0.000419045
0.000402345
0.000391433
0.000361935
0.00150987
0.00347374
0.0032171
0.00374993
0.00422473
0.00471839
0.0051988
0.005611
0.00596291
0.00629093
0.00655036
0.00667039
0.00654139
0.00593911
0.00426532
0.00130508
0.00082777
0.000688659
0.00115698
0.00152123
0.0018284
0.00202128
0.00205414
0.00170457
0.0015135
0.0013705
0.00125308
0.00115306
0.00106643
0.000992152
0.000926335
0.000859036
0.000794643
0.000735192
0.000869612
0.000460573
0.00188701
0.00482636
0.00386632
0.00515994
0.00571955
0.00611711
0.00642529
0.00667231
0.00690865
0.00718359
0.00747777
0.00774266
0.00790225
0.00784447
0.00734784
0.00585978
0.0012503
0.00112311
0.00161693
0.00204305
0.00245598
0.00276898
0.00269173
0.000841159
0.000754632
0.000685352
0.000629194
0.000582735
0.000543431
0.000509545
0.000480279
0.000456056
0.000497989
0.000583957
0.00100716
0.000535053
0.0022522
0.00642538
0.00388589
0.00552378
0.00619497
0.00639394
0.00644889
0.00648655
0.00658908
0.0068033
0.00711423
0.0074802
0.00783245
0.00808017
0.00808858
0.00756438
0.00570464
0.00143784
0.00195134
0.00258829
0.00316475
0.00362571
0.0039096
0.00357552
0.000922719
0.000853952
0.000810803
0.000779611
0.000751047
0.000719034
0.000687225
0.000652136
0.000609441
0.000585442
0.00061536
0.00122123
0.000590986
0.00262048
0.00846145
0.00454694
0.00523581
0.00620938
0.00638705
0.00628667
0.00615068
0.00615439
0.00634557
0.0066712
0.00709361
0.00753562
0.00787887
0.00797125
0.00774026
0.00702478
0.00562626
0.0051566
0.00502868
0.00503168
0.00508422
0.00510702
0.00493607
0.00417668
0.00391239
0.00378348
0.00367094
0.00352571
0.00331509
0.00295181
0.00249502
0.00198589
0.00148116
0.00108868
0.00117672
0.000756745
0.000719662
0.000852589
0.000952234
0.00300293
0.010628
0.0067545
0.00529921
0.00574664
0.0061105
0.00620983
0.00600804
0.00596099
0.00613827
0.00646219
0.00690925
0.00738873
0.00774651
0.00783518
0.00761269
0.00716659
0.00662766
0.0062726
0.00601655
0.00581509
0.00567001
0.00555175
0.00541078
0.00519758
0.00504216
0.00489885
0.00473582
0.00454326
0.00431934
0.00400811
0.00356505
0.00299725
0.00234716
0.00175117
0.00128629
0.00100409
0.00090206
0.00131294
0.00100307
0.0033441
0.012155
0.00985445
0.00739981
0.00645009
0.0061424
0.00621076
0.0061641
0.00610547
0.00618722
0.00646688
0.0069175
0.00742701
0.00781407
0.0078939
0.00761357
0.00714247
0.00671083
0.00636135
0.0060236
0.00572047
0.00549226
0.00532665
0.00519399
0.00507143
0.00494952
0.00479827
0.00461887
0.00442421
0.00423814
0.00407383
0.00381188
0.00337333
0.00280033
0.00224599
0.00172298
0.00139486
0.00135507
0.00145251
0.00117753
0.00340041
0.0107951
0.00980269
0.00930159
0.0085077
0.00768195
0.00718604
0.00669969
0.00635403
0.00633
0.00661449
0.00710309
0.00764815
0.00804942
0.00809414
0.00771166
0.00709723
0.00647117
0.00590318
0.00545944
0.00514682
0.00493791
0.00479161
0.00467262
0.00455457
0.00441657
0.00424854
0.00406409
0.00389437
0.00377443
0.00372802
0.00372835
0.0035157
0.00310723
0.00274865
0.00260372
0.00283709
0.00368706
0.00483791
0.00176026
0.00329992
0.00388693
0.0041657
0.00448376
0.00486074
0.0050896
0.00518814
0.0053402
0.00568854
0.00622757
0.00684736
0.00747898
0.00804716
0.00839884
0.0083259
0.00773632
0.00680104
0.00586975
0.00520892
0.00481602
0.00458438
0.00443272
0.0043121
0.00419153
0.00404882
0.00386892
0.00364898
0.00340291
0.0031582
0.00294361
0.00277437
0.00264732
0.00256106
0.00251324
0.00252437
0.00258232
0.00260276
0.0025023
0.00231443
0.00160476
0.00105357
0.00259814
0.00388543
0.00486464
0.00572191
0.00656189
0.0072503
0.0077099
0.00798721
0.00826459
0.00852594
0.00863723
0.0083354
0.00739313
0.00622905
0.00533645
0.00484197
0.00459267
0.00445107
0.00435014
0.00425717
0.00415068
0.00401353
0.00383338
0.00360716
0.00334676
0.00308131
0.00285245
0.00270024
0.00262654
0.00260822
0.00262517
0.00265375
0.00265047
0.00255495
0.00233251
0.00200008
0.00131775
0.00248336
0.00536446
0.00616428
0.0067044
0.00727732
0.00772872
0.00800016
0.00782845
0.00750149
0.00747439
0.00732282
0.0070686
0.00660712
0.00594846
0.00526889
0.00479144
0.0045216
0.00436981
0.00427068
0.0041939
0.00412359
0.00404741
0.00395559
0.00384255
0.00370802
0.00355639
0.00339429
0.00322623
0.00308852
0.00300812
0.00298485
0.00300383
0.00303943
0.00307592
0.00307391
0.00305262
0.00252933
0.00133977
0.00216131
0.00228309
0.00237492
0.00249526
0.00249519
0.00244059
0.0023154
0.00210772
0.00186083
0.0016609
0.00154554
0.00146173
0.00140275
0.00133969
0.00127213
0.00120637
0.00116047
0.00113138
0.00111409
0.00110332
0.00109546
0.00108869
0.0010822
0.00107577
0.00106984
0.0010655
0.00106443
0.00106875
0.001081
0.00110441
0.00113778
0.0011815
0.00123524
0.00129913
0.00137263
0.00147179
0.00150289
0.00147071
0.00137277
0.0012685
)
;

boundaryField
{
    floor
    {
        type            nutkWallFunction;
        Cmu             0.09;
        kappa           0.41;
        E               9.8;
        value           nonuniform List<scalar> 
29
(
0.000154328
6.45334e-05
7.82916e-05
8.45703e-05
8.30713e-05
8.07846e-05
7.80396e-05
7.43889e-05
7.05781e-05
6.70003e-05
6.37436e-05
6.08005e-05
5.81399e-05
5.57128e-05
5.34669e-05
5.13606e-05
4.92904e-05
4.71028e-05
4.56653e-05
4.17578e-05
4.17577e-05
5.46715e-05
6.41889e-05
7.12292e-05
0.000154328
6.45333e-05
8.33368e-05
0.000135098
0.000171097
)
;
    }
    ceiling
    {
        type            nutkWallFunction;
        Cmu             0.09;
        kappa           0.41;
        E               9.8;
        value           nonuniform List<scalar> 
43
(
0.000250663
0.00026376
0.000273589
0.000286485
0.000286511
0.000280726
0.000267367
0.000245014
0.000218125
0.000196064
0.000183203
0.000173788
0.000167126
0.000159966
0.000152257
0.000144709
0.000139413
0.000136045
0.00013404
0.000132789
0.000131874
0.000131087
0.000130331
0.000129582
0.00012889
0.000128383
0.000128258
0.000128763
0.000130192
0.000132917
0.000136791
0.000141846
0.000148031
0.000155344
0.000163709
0.000174915
0.000178415
0.000174796
0.000163727
0.000151844
0.000371153
0.000431322
0.000284986
)
;
    }
    sWall
    {
        type            nutkWallFunction;
        Cmu             0.09;
        kappa           0.41;
        E               9.8;
        value           uniform 0.000250733;
    }
    nWall
    {
        type            nutkWallFunction;
        Cmu             0.09;
        kappa           0.41;
        E               9.8;
        value           nonuniform List<scalar> 6(0.000115078 0.00012107 0.000141388 0.000157485 0.000159992 0.000151858);
    }
    sideWalls
    {
        type            empty;
    }
    glass1
    {
        type            nutkWallFunction;
        Cmu             0.09;
        kappa           0.41;
        E               9.8;
        value           nonuniform List<scalar> 9(0.000128194 0.000179462 0.00022138 0.000261102 0.000300469 0.000340738 0.000376213 0.000382044 0.000371676);
    }
    glass2
    {
        type            nutkWallFunction;
        Cmu             0.09;
        kappa           0.41;
        E               9.8;
        value           nonuniform List<scalar> 2(0.000207203 0.000189937);
    }
    sun
    {
        type            nutkWallFunction;
        Cmu             0.09;
        kappa           0.41;
        E               9.8;
        value           nonuniform List<scalar> 
14
(
0.000128082
0.000138118
0.000138613
0.000144889
0.000150807
0.000156324
0.000161635
0.000167
0.000171976
0.000175588
0.000177125
0.000175807
0.000171137
0.000163482
)
;
    }
    heatsource1
    {
        type            nutkWallFunction;
        Cmu             0.09;
        kappa           0.41;
        E               9.8;
        value           nonuniform List<scalar> 3(8.71383e-05 0.000103214 0.00011507);
    }
    heatsource2
    {
        type            nutkWallFunction;
        Cmu             0.09;
        kappa           0.41;
        E               9.8;
        value           nonuniform List<scalar> 4(0.000156011 0.000100239 0.000100239 0.000149747);
    }
    Table_master
    {
        type            nutkWallFunction;
        Cmu             0.09;
        kappa           0.41;
        E               9.8;
        value           nonuniform List<scalar> 9(0.000101863 9.14177e-05 8.29517e-05 7.60139e-05 7.02176e-05 6.52698e-05 6.09688e-05 5.72257e-05 5.41065e-05);
    }
    Table_slave
    {
        type            nutkWallFunction;
        Cmu             0.09;
        kappa           0.41;
        E               9.8;
        value           nonuniform List<scalar> 9(0.000111592 0.000103393 9.82082e-05 9.444e-05 9.09738e-05 8.70713e-05 8.31731e-05 7.8848e-05 7.35473e-05);
    }
    inlet
    {
        type            calculated;
        value           uniform 0.000234787;
    }
    outlet
    {
        type            calculated;
        value           nonuniform List<scalar> 2(0.00216131 0.00228309);
    }
}


// ************************************************************************* //
