/*--------------------------------*- C++ -*----------------------------------*\
  =========                 |
  \\      /  F ield         | OpenFOAM: The Open Source CFD Toolbox
   \\    /   O peration     | Website:  https://openfoam.org
    \\  /    A nd           | Version:  6
     \\/     M anipulation  |
\*---------------------------------------------------------------------------*/
FoamFile
{
    version     2.0;
    format      ascii;
    class       surfaceScalarField;
    location    "500";
    object      phi;
}
// * * * * * * * * * * * * * * * * * * * * * * * * * * * * * * * * * * * * * //

dimensions      [1 0 -1 0 0 0 0];

internalField   nonuniform List<scalar> 
852
(
-0.00177164
0.00179225
-0.00213315
0.000361672
-0.00214351
1.0525e-05
-0.00221505
7.17193e-05
-0.00222742
1.25623e-05
-0.00212541
-0.000101821
-0.00190281
-0.000222413
-0.00163758
-0.000265034
-0.00137817
-0.000259218
-0.00114479
-0.000233181
-0.000942623
-0.000201971
-0.000753855
-0.000188566
-0.000490117
-0.000263534
-3.06111e-07
-0.000489605
-7.34231e-06
0.000126815
-0.000132068
-0.00011756
0.000244485
-0.000199819
8.23652e-05
-0.000209605
9.89258e-06
-0.000190685
-1.88049e-05
-0.000138944
-5.16171e-05
-7.0382e-05
-6.8439e-05
5.67411e-05
-0.000127015
0.000196294
-0.000139416
0.000298164
-0.000101727
0.000381789
-8.34804e-05
0.000461521
-7.95875e-05
0.000548407
-8.67405e-05
0.000606962
-5.8404e-05
0.000590475
1.6632e-05
0.000472812
0.000117809
0.000265964
0.000206993
-0.000122529
0.000388643
-0.000127775
0.000786052
0.00106195
0.000746537
0.000401313
0.000254712
0.000502502
-0.000529479
0.000856137
-0.00126667
0.000749944
-0.00164068
0.000272373
-0.0015831
-0.000279801
-0.0014333
-0.000414624
-0.00127321
-0.000419101
-0.00113609
-0.000370091
-0.00102769
-0.000310156
-0.000937628
-0.000278411
-0.000892796
-0.000308148
-0.00103551
-0.000346673
-0.000770623
-0.000272002
-0.000404547
-0.000365892
-0.000404363
-0.000136519
-8.96347e-06
8.20373e-05
2.60611e-05
6.1043e-05
0.000103494
-3.52718e-05
0.000106345
-0.000155443
0.000101499
-0.00035832
0.000151395
-0.000339889
-8.67225e-05
-5.65193e-05
-0.000410227
5.7517e-05
-0.00025329
9.86129e-05
-0.000142662
0.000109944
-9.46498e-05
9.27592e-05
-6.22404e-05
3.59491e-05
-2.97711e-05
-5.46392e-05
3.23311e-05
-0.000137492
9.96466e-05
-0.00017868
0.000159166
-0.000163902
0.000192386
3.89303e-05
0.000185981
-0.000102064
0.00330801
-0.00220125
0.00393401
-0.00022411
0.00322377
0.00121315
0.00210689
0.0019733
0.000847646
0.00200936
-0.000305917
0.00142604
-0.000965878
0.000380335
-0.0010494
-0.000330894
-0.00100186
-0.000466417
-0.000953503
-0.000418225
-0.000941135
-0.000322303
-0.000974307
-0.000245016
-0.00106771
-0.000214517
-0.00119863
-0.000215519
-0.00119762
-0.000272786
-0.000985203
-0.000578072
-0.00138933
-0.000556683
0.000525005
-0.000454776
-7.56767e-05
-0.000299632
-5.14814e-05
-0.000158334
-3.47829e-05
-2.74665e-05
-2.91954e-05
0.000190423
-6.6313e-05
0.000104007
-0.000305919
-0.000558909
-0.00070127
-0.000795612
-0.000857534
-0.000886976
-0.000854302
-0.000754311
-0.000353457
-0.000241477
-2.56262e-05
-0.000135235
0.000168091
-7.52913e-06
4.55737e-05
0.0022282
-0.00439571
0.00324166
-0.00123729
0.00311053
0.00134453
0.00240519
0.00267883
0.00149496
0.00291973
0.000607337
0.00231375
-0.000194335
0.00118212
-0.000579711
5.46828e-05
-0.000638668
-0.000407228
-0.000658869
-0.00039779
-0.000699094
-0.000281847
-0.000774416
-0.000169463
-0.000894974
-9.37245e-05
-0.00104181
-6.84439e-05
-0.00117306
-0.000141294
-0.00136426
-0.000386637
-0.00198837
-0.000764992
-0.00173523
-0.000283447
-0.00119388
-1.6127e-05
-0.0011367
-0.000132624
-0.00113887
-4.90697e-05
-0.0011861
1.2698e-05
-0.00127089
5.58369e-05
-0.00140665
6.97077e-05
-0.00147869
7.21443e-05
-0.00151912
4.0547e-05
-0.00153185
1.28322e-05
-0.00151877
-1.29634e-05
-0.00147667
-4.19844e-05
-0.00139904
-7.75232e-05
-0.00127596
-0.000122966
-0.00109175
-0.000184092
-0.000815266
-0.00027637
-0.000630966
-0.00042552
-0.000261936
-0.000504004
0.000302611
-0.000571815
0.000317822
0.00151007
-0.0058666
0.00242998
-0.00215693
0.00242658
0.00134816
0.00193884
0.00316676
0.00131635
0.00354236
0.000765065
0.00286514
0.000321728
0.00162558
-6.32525e-05
0.000439852
-0.000256496
-0.000213744
-0.000361795
-0.000292246
-0.000455494
-0.000187905
-0.000548885
-7.58271e-05
-0.000644322
1.9618e-06
-0.000741665
2.91523e-05
-0.000855106
-2.75979e-05
-0.00105337
-0.000188121
-0.00148352
-0.00033458
-0.00151697
-0.000249746
-0.0014268
-0.000106035
-0.00146852
-9.06479e-05
-0.00148824
-2.90847e-05
-0.00149679
2.15101e-05
-0.0014967
5.60069e-05
-0.00149603
6.92989e-05
-0.00148453
6.09091e-05
-0.00147749
3.37767e-05
-0.00146593
1.54144e-06
-0.00144465
-3.39829e-05
-0.00141179
-7.45726e-05
-0.00136605
-0.000122987
-0.00130642
-0.00018232
-0.00123408
-0.000256157
-0.00116367
-0.000346503
-0.00115627
-0.000432644
-0.00120116
-0.000458826
-0.00147415
-0.000298541
-0.00128306
0.00012703
-0.00153003
0.000247076
-0.00154677
1.68498e-05
-0.00158392
0.000799677
-0.00662127
0.00157796
-0.00293492
0.00160563
0.00132075
0.00117305
0.00359955
0.000761894
0.00395368
0.000542813
0.00308435
0.000437323
0.00173122
0.00028705
0.000590335
6.58529e-05
7.69728e-06
-0.000122509
-0.000103622
-0.000283216
-2.69403e-05
-0.000412486
5.37058e-05
-0.000515758
0.000105496
-0.00060862
0.000122279
-0.000722505
8.65556e-05
-0.000900594
-9.76239e-06
-0.0011376
-9.73022e-05
-0.0012856
-0.000101473
-0.00133194
-5.94228e-05
-0.00137999
-4.23252e-05
-0.00139715
-1.1657e-05
-0.00139021
1.48399e-05
-0.00136695
3.30162e-05
-0.00133616
3.87898e-05
-0.00130456
2.9579e-05
-0.00127707
6.55725e-06
-0.00125105
-2.41978e-05
-0.00122437
-6.03875e-05
-0.00119665
-0.000102005
-0.00116931
-0.000150049
-0.00114613
-0.000205222
-0.00113536
-0.000266635
-0.00115397
-0.000327611
-0.00122265
-0.000363671
-0.00135686
-0.000324333
-0.00150519
-0.000149918
-0.00144169
6.38283e-05
-0.0011856
-8.71266e-06
-0.000853987
-0.000314461
-0.0024752
0.000103335
-0.00667456
0.000745478
-0.00357677
0.000904023
0.00116248
0.000239123
0.00426468
5.04892e-05
0.00414249
0.000171921
0.00296308
0.000353719
0.00154961
0.00038184
0.000562463
0.000228463
0.000161359
3.1604e-05
9.3526e-05
-0.000136985
0.000141933
-0.000259583
0.000176575
-0.000342288
0.000188471
-0.000405292
0.000185556
-0.000479248
0.00016079
-0.000595844
0.000107115
-0.000739352
4.64883e-05
-0.000857534
1.69926e-05
-0.000926018
9.34419e-06
-0.000972231
4.17085e-06
-0.000991113
7.50786e-06
-0.000987776
1.17845e-05
-0.000967906
1.34283e-05
-0.000938242
9.40786e-06
-0.000905173
-3.20833e-06
-0.000873615
-2.47162e-05
-0.000844546
-5.29818e-05
-0.000817462
-8.71851e-05
-0.000792507
-0.000126672
-0.000770608
-0.000171657
-0.000753166
-0.000222373
-0.000741805
-0.000277704
-0.00073677
-0.000332352
-0.000729733
-0.000370414
-0.000693221
-0.000360549
-0.000561794
-0.000281048
-0.000313181
-0.000184486
-0.00011347
-0.000208124
6.61798e-05
-0.000493809
-0.0024471
-0.00120763
-0.00541312
-0.000754237
-0.00402987
-0.000256212
0.000664759
-0.000988044
0.00499676
-0.00075318
0.00390782
-0.000268992
0.00247907
0.000124671
0.00115619
0.000261145
0.000426295
0.000217203
0.000205628
0.000127071
0.000183973
5.8603e-05
0.0002107
1.35053e-05
0.000221961
-1.28821e-05
0.000215145
-2.68397e-05
0.0001998
-4.34874e-05
0.000177726
-8.15076e-05
0.000145427
-0.000142413
0.000107686
-0.000203364
7.82371e-05
-0.000250478
5.67509e-05
-0.000285214
3.92001e-05
-0.000304002
2.65887e-05
-0.000307761
1.5835e-05
-0.000298845
4.80378e-06
-0.000281393
-7.75265e-06
-0.000260781
-2.35289e-05
-0.000240208
-4.49968e-05
-0.000220708
-7.21872e-05
-0.000203041
-0.000104558
-0.000188619
-0.000140796
-0.000178127
-0.000181852
-0.000170986
-0.000229214
-0.00016458
-0.000283809
-0.000151464
-0.000345166
-0.00011152
-0.000410055
2.97217e-06
-0.000474739
0.000269099
-0.000546872
0.000754656
-0.00066974
0.00141628
-0.000869444
0.0018707
-0.000947921
-0.000855653
-0.00540285
-0.00946895
-0.00564083
-0.00316307
-0.00297153
0.00232771
-0.00166209
0.00259859
-0.000727733
0.00154495
-0.000106841
0.00053562
0.000193313
0.000126509
0.000336537
6.27646e-05
0.000420436
0.000100412
0.000483902
0.000147551
0.000534027
0.000172146
0.000574071
0.000175406
0.000608087
0.000166088
0.0006354
0.000150716
0.000650012
0.000131117
0.000649019
0.000108982
0.000639324
8.82343e-05
0.00062676
6.96174e-05
0.000613803
5.24599e-05
0.000603579
3.71149e-05
0.000597052
2.26631e-05
0.00059391
8.24753e-06
0.000593178
-6.71966e-06
0.000593554
-2.36035e-05
0.00059428
-4.54204e-05
0.000594279
-7.18835e-05
0.000592539
-0.000102514
0.000586003
-0.000133954
0.000573945
-0.000169487
0.000557369
-0.000212329
0.000538996
-0.000265128
0.000524928
-0.000330789
0.000528501
-0.000413317
0.000574536
-0.000520464
0.00069863
-0.000670656
0.0009414
-0.0009122
0.00139759
-0.00132532
0.0020904
-0.00164043
0.000918207
-0.00554099
0.00177417
-0.00421105
0.000998012
-0.00199834
0.000386113
-0.000380163
-7.2905e-05
0.000440849
-0.00028499
0.000804329
-0.000236581
0.00100689
-0.000139432
0.00114939
-4.1734e-05
0.00126329
3.39794e-05
0.00135342
8.23345e-05
0.00142525
0.000103896
0.00148397
0.000107684
0.00153225
0.000102744
0.00156974
9.39397e-05
0.00159541
8.36245e-05
0.00161066
7.32946e-05
0.00161739
6.31968e-05
0.0016171
5.30593e-05
0.00161165
4.28773e-05
0.00160216
3.2462e-05
0.00158897
2.1748e-05
0.0015726
9.95846e-06
0.00155394
-4.63242e-06
0.00153244
-2.36108e-05
0.00150705
-4.61818e-05
0.00147736
-7.25199e-05
0.00144028
-9.65543e-05
0.00139573
-0.000124621
0.00134372
-0.000160005
0.00128408
-0.000205175
0.00121664
-0.000263026
0.00114098
-0.000337342
0.00105421
-0.000433375
0.00094105
-0.000557176
0.000740559
-0.000711394
0.000355013
-0.000939466
-0.000220638
-0.00106447
0.00063786
-0.000207594
0.00193641
0.00144159
-0.000651014
0.00220809
-0.000380212
0.0024524
-0.000317005
0.00245719
-0.000289508
0.0024229
-0.000201998
0.00238407
-0.000100296
0.00236973
-2.70832e-05
0.00238284
2.11892e-05
0.00241623
4.9251e-05
0.00245994
6.05016e-05
0.00250343
6.45089e-05
0.00254069
6.57953e-05
0.00256873
6.62154e-05
0.00258647
6.6196e-05
0.00259441
6.56646e-05
0.00259362
6.43035e-05
0.00258511
6.18809e-05
0.00256989
5.84148e-05
0.00254873
5.39357e-05
0.00252234
4.84538e-05
0.00249096
4.16503e-05
0.00245326
3.33867e-05
0.00240589
2.40764e-05
0.0023477
1.23232e-05
0.00227672
-1.2191e-06
0.00219694
-1.64559e-05
0.00210793
-3.52843e-05
0.00200652
-5.82765e-05
0.00188832
-8.66518e-05
0.00174769
-0.000122071
0.0015774
-0.000166727
0.00136741
-0.000223061
0.00110435
-0.000293795
0.000792645
-0.000399367
0.000490724
-0.000637231
-0.000333912
-0.00023953
0.000231307
0.000146804
0.00549844
0.00732849
0.00656911
0.00607468
0.00563729
0.00522265
0.00489334
0.00466623
0.00451443
0.00441357
0.00434321
0.00428589
0.0042339
0.00418423
0.00413589
0.00408841
0.00404128
0.00399368
0.00394452
0.00389275
0.00383732
0.0037772
0.00371103
0.00363732
0.00355499
0.00346158
0.00335526
0.00323438
0.0030953
0.00293379
0.00274441
0.00252008
0.00225156
0.00192717
0.00153262
0.00103338
0.000298529
-3.80846e-05
)
;

boundaryField
{
    floor
    {
        type            calculated;
        value           nonuniform List<scalar> 
29
(
0
0
0
0
0
0
0
0
0
0
0
0
0
0
0
0
0
0
0
0
5.39465e-06
1.33947e-05
2.06539e-05
3.06233e-05
7.18769e-06
5.36524e-06
1.35485e-05
2.2887e-05
3.05277e-05
)
;
    }
    ceiling
    {
        type            calculated;
        value           nonuniform List<scalar> 
43
(
0.000194335
0.000185567
0.000106482
0.000108497
0.000114358
0.000120539
0.000125314
0.000127516
0.000127044
0.000124959
0.000122312
0.000119897
0.000118101
0.000116795
0.000115769
0.000114861
0.000113984
0.000113105
0.000112223
0.000111351
0.000110501
0.00010968
0.000108893
0.00010814
0.000107419
0.000106725
0.000106062
0.000105427
0.000104751
0.000104122
0.000103561
0.000103058
0.000102591
0.000102133
0.000101654
0.000101089
0.000100199
9.79396e-05
9.73916e-05
0.000105948
4.50517e-05
3.65248e-05
4.56313e-05
)
;
    }
    sWall
    {
        type            calculated;
        value           uniform 8.28625e-05;
    }
    nWall
    {
        type            calculated;
        value           nonuniform List<scalar> 6(3.72625e-05 3.75953e-05 3.83872e-05 6.00185e-05 7.29449e-05 8.75746e-05);
    }
    sideWalls
    {
        type            empty;
        value           nonuniform 0();
    }
    glass1
    {
        type            calculated;
        value           nonuniform List<scalar> 9(-2.0463e-05 -5.55598e-05 -4.40447e-05 -3.34509e-05 -3.88988e-05 -4.47284e-05 -4.97639e-05 -5.35335e-05 -5.50346e-05);
    }
    glass2
    {
        type            calculated;
        value           nonuniform List<scalar> 2(0.00027957 0.000316863);
    }
    sun
    {
        type            calculated;
        value           uniform 0;
    }
    heatsource1
    {
        type            calculated;
        value           nonuniform List<scalar> 3(1.9151e-07 1.91373e-07 1.91437e-07);
    }
    heatsource2
    {
        type            calculated;
        value           nonuniform List<scalar> 4(4.84529e-08 4.85015e-08 0 0);
    }
    Table_master
    {
        type            calculated;
        value           nonuniform List<scalar> 9(-1.46715e-07 -1.46881e-07 -1.46779e-07 -1.46638e-07 -1.46518e-07 -1.46406e-07 -1.46294e-07 -1.46174e-07 -1.45986e-07);
    }
    Table_slave
    {
        type            calculated;
        value           nonuniform List<scalar> 9(1.44513e-07 1.44477e-07 1.44451e-07 1.44432e-07 1.4442e-07 1.44424e-07 1.44446e-07 1.44496e-07 1.44558e-07);
    }
    inlet
    {
        type            calculated;
        value           uniform 0.000604088;
    }
    outlet
    {
        type            calculated;
        value           nonuniform List<scalar> 2(-0.000423987 -0.00553717);
    }
}


// ************************************************************************* //
