/*--------------------------------*- C++ -*----------------------------------*\
  =========                 |
  \\      /  F ield         | OpenFOAM: The Open Source CFD Toolbox
   \\    /   O peration     | Website:  https://openfoam.org
    \\  /    A nd           | Version:  6
     \\/     M anipulation  |
\*---------------------------------------------------------------------------*/
FoamFile
{
    version     2.0;
    format      ascii;
    class       surfaceScalarField;
    location    "800";
    object      phi;
}
// * * * * * * * * * * * * * * * * * * * * * * * * * * * * * * * * * * * * * //

dimensions      [1 0 -1 0 0 0 0];

internalField   nonuniform List<scalar> 
852
(
-0.00293214
0.00298829
-0.00396694
0.0010348
-0.0047553
0.00078836
-0.0053746
0.000619294
-0.00579625
0.000421647
-0.00599833
0.000202073
-0.00595933
-3.90031e-05
-0.00566071
-0.000298622
-0.00511156
-0.00054915
-0.00435988
-0.000751684
-0.00348319
-0.000876694
-0.00256879
-0.000914411
-0.00169025
-0.000878543
-0.000866932
-0.000823316
-0.000865524
-0.000662459
0.000665102
-0.000320041
-0.00034242
0.000291094
-0.000611137
0.000761294
-0.000470202
0.00107053
-0.000309234
0.00126089
-0.000190368
0.00136376
-0.000102873
0.00141512
-5.13594e-05
0.0014442
-2.90786e-05
0.00146191
-1.77088e-05
0.00147166
-9.75704e-06
0.00147449
-2.83157e-06
0.00146833
6.15517e-06
0.00144463
2.37075e-05
0.00138065
6.39721e-05
0.00123823
0.000142417
0.00100209
0.000236145
0.000705739
0.000296346
0.000709299
-0.00209061
0.00523008
-0.00309181
0.00203599
-0.00389613
0.00159268
-0.00450116
0.00122432
-0.00491197
0.000832454
-0.0051159
0.000406001
-0.00508809
-6.68102e-05
-0.00481245
-0.000574269
-0.00430858
-0.00105302
-0.00363437
-0.0014259
-0.00286988
-0.00164119
-0.00209569
-0.0016886
-0.00138477
-0.00158947
-0.000828977
-0.00137912
-0.000627043
-0.00106746
-0.000101856
-0.000525242
-0.00010191
0.000396759
0.000275849
0.00082436
-0.000770024
0.00107159
-0.000858368
0.00127869
-0.0006773
0.00143081
-0.000461364
0.00151794
-0.000277493
0.00153087
-0.000115804
0.0015345
-5.49966e-05
0.00153885
-3.34287e-05
0.00154248
-2.13375e-05
0.00154491
-1.21873e-05
0.00154607
-3.99945e-06
0.00154507
7.15922e-06
0.00153825
3.05193e-05
0.00149666
0.000105569
0.00132056
0.00031851
0.00101578
0.000540923
0.000630033
0.000682095
0.00134851
-0.00146272
0.00692399
-0.00232241
0.00289568
-0.00302866
0.00229892
-0.00353962
0.00173527
-0.00389242
0.00118525
-0.00407054
0.000584121
-0.00403041
-0.000106948
-0.00374652
-0.00085816
-0.00325866
-0.00154089
-0.00263997
-0.0020446
-0.0019712
-0.00230996
-0.00131827
-0.00234153
-0.000733335
-0.00217441
-0.000271832
-0.00184062
3.63196e-05
-0.00137562
0.000249027
-0.000737952
0.000147114
0.00148631
-0.00120261
0.00169998
-0.0009837
0.00168197
-0.000840362
0.00168422
-0.000679548
0.00170556
-0.000482701
0.00171198
-0.000283923
0.00159633
0.00154149
0.00150821
0.00148702
0.00147499
0.00147114
0.00147845
0.00150912
0.00161484
0.00133459
0.000598765
0.000992476
0.000883032
0.000554408
0.00112016
0.00191692
-0.00102171
0.00824499
-0.00170117
0.00357513
-0.00215986
0.0027576
-0.00248588
0.00206129
-0.00271146
0.00141083
-0.00280732
0.000679971
-0.00270033
-0.000213942
-0.00237027
-0.00118822
-0.00189486
-0.0020163
-0.00135739
-0.00258208
-0.000825694
-0.00284166
-0.000338467
-0.00282876
8.54816e-05
-0.00259836
0.000439653
-0.0021948
0.000749119
-0.00168509
0.00112289
-0.00111173
0.00187428
-0.000604281
0.00243708
-0.000555646
0.00202904
-0.000794577
0.00190466
-0.000859328
0.00179867
-0.00073437
0.00170934
-0.00059022
0.00166302
-0.000436385
0.00165006
-0.000270965
0.00176119
-0.000111277
0.00183254
-7.15039e-05
0.00189043
-5.8042e-05
0.00193489
-4.46213e-05
0.00195214
-1.7402e-05
0.00192143
3.0557e-05
0.00181843
0.000102849
0.00161115
0.000207128
0.00124574
0.000365253
0.00111863
0.000725877
0.000834988
0.00116668
0.000399541
0.00155561
0.00233485
-0.000716832
0.00931892
-0.00123217
0.00409047
-0.00131707
0.0028425
-0.00136762
0.00211184
-0.00139021
0.00143341
-0.00131249
0.000602255
-0.00104991
-0.000476527
-0.000651797
-0.00158634
-0.000222431
-0.00244567
0.000169364
-0.00297388
0.00049336
-0.00316566
0.00074486
-0.00308027
0.000934751
-0.00278826
0.00109172
-0.00235177
0.00124589
-0.00183925
0.0014502
-0.00131604
0.00173318
-0.000887265
0.00187771
-0.000700178
0.00178041
-0.000697274
0.00160739
-0.000686311
0.00146377
-0.000590756
0.00134811
-0.000474562
0.00127094
-0.000359213
0.00124487
-0.000244893
0.00128835
-0.000154762
0.00133698
-0.000120138
0.00139013
-0.000111184
0.00144422
-9.87111e-05
0.00148871
-6.18945e-05
0.00150438
1.4887e-05
0.00147122
0.00013601
0.00137758
0.000300763
0.00122388
0.000518956
0.00109107
0.000858692
0.000949159
0.00130858
0.000634535
0.00187023
0.000566123
0.00240327
-0.000967578
0.0015335
-0.0014316
0.000463815
-0.00138477
-0.000626345
0.0103511
-0.000980337
0.00444445
-0.000553902
0.00241606
-0.000190042
0.00174797
8.84977e-05
0.00115487
0.000460132
0.000230619
0.000944154
-0.000960553
0.00136523
-0.00200742
0.00165862
-0.00273907
0.00181519
-0.00313045
0.0018607
-0.00321118
0.00182402
-0.00304359
0.00173412
-0.00269837
0.001627
-0.00224466
0.00153585
-0.00174811
0.00148748
-0.00126767
0.00147654
-0.000876328
0.00142167
-0.000645304
0.00127721
-0.000552816
0.00108732
-0.00049643
0.000921918
-0.000425351
0.000797728
-0.000350373
0.000720241
-0.000281726
0.000696201
-0.000220854
0.000721352
-0.000179913
0.00077131
-0.000170095
0.000835611
-0.000175484
0.000909731
-0.000172831
0.000988147
-0.000140309
0.00105884
-5.58071e-05
0.00110461
9.02421e-05
0.00112198
0.000283398
0.00111878
0.00052215
0.00114276
0.000834713
0.00124158
0.00120977
0.00142816
0.00168364
0.00186956
0.00196186
0.00212794
0.00127512
0.00173693
0.000854833
0.00040856
-0.000682705
0.0114838
-0.000564195
0.00432594
0.000566056
0.00128581
0.00135131
0.000962716
0.00201347
0.000492713
0.002698
-0.000453916
0.00325173
-0.00151428
0.00355421
-0.00230991
0.00360523
-0.00279009
0.00344791
-0.00297314
0.00314234
-0.00290562
0.00274936
-0.00265061
0.00232223
-0.00227124
0.00190774
-0.00183018
0.0015418
-0.00138216
0.001242
-0.000967879
0.00100743
-0.000641759
0.000804559
-0.000442432
0.000601362
-0.000349621
0.000409674
-0.000304742
0.000254905
-0.000270582
0.000146406
-0.000241875
8.44683e-05
-0.000219788
6.84979e-05
-0.000204884
9.09815e-05
-0.000202396
0.000136787
-0.0002159
0.000196764
-0.00023546
0.000270056
-0.000246122
0.000360838
-0.00023109
0.000473926
-0.000168894
0.000596512
-3.23434e-05
0.000718793
0.000161119
0.000852509
0.000388434
0.00103565
0.000651572
0.00131666
0.000928765
0.0017563
0.001244
0.0024214
0.00129677
0.00296034
0.000736172
0.00298434
0.000830831
0.00345412
0.00258617
0.009401
0.00328664
0.00362546
0.00368043
0.00089202
0.0043427
0.000300442
0.00513394
-0.000298526
0.00577497
-0.00109495
0.00601909
-0.00175841
0.0058857
-0.00217653
0.00544745
-0.00235184
0.00479432
-0.00232002
0.00402045
-0.00213176
0.00321015
-0.00184032
0.00242603
-0.00148712
0.00171724
-0.00112139
0.00111711
-0.00078203
0.000634019
-0.000484791
0.000273411
-0.000281151
9.67001e-06
-0.00017869
-0.000192257
-0.000147694
-0.000348813
-0.000148186
-0.000465285
-0.000154109
-0.000545057
-0.000162103
-0.000592534
-0.00017231
-0.000611897
-0.00018552
-0.000610233
-0.000204059
-0.000597572
-0.00022856
-0.000579532
-0.000253499
-0.000555065
-0.000270588
-0.000515789
-0.000270365
-0.00044298
-0.000241701
-0.00030804
-0.000167283
-0.000128683
-1.82373e-05
8.1438e-05
0.000178315
0.000348306
0.000384705
0.00068451
0.000592562
0.00113184
0.000796674
0.00162959
0.00079902
0.00184671
0.000519048
0.00110413
0.00157342
0.00480666
0.00995296
0.0135702
0.0124371
0.00202516
0.0117251
0.00101239
0.0110782
0.000348365
0.0102204
-0.00023718
0.00909673
-0.000634702
0.00780932
-0.000889138
0.00645174
-0.00099427
0.00509687
-0.000965163
0.00381096
-0.000845847
0.00264734
-0.000676698
0.00162848
-0.000468256
0.000778131
-0.000271045
0.000105084
-0.000108983
-0.000375893
-3.81365e-06
-0.000678455
2.14118e-05
-0.0008669
9.75567e-06
-0.000999141
-1.54524e-05
-0.00110366
-4.36647e-05
-0.00118777
-7.0005e-05
-0.00125507
-9.47957e-05
-0.00130961
-0.00011777
-0.00135587
-0.000139263
-0.00140055
-0.00015938
-0.00145178
-0.000177324
-0.00151704
-0.000188242
-0.00160343
-0.000184189
-0.00171959
-0.000154204
-0.00187581
-8.54796e-05
-0.00207746
3.43654e-05
-0.00231093
0.000215236
-0.0026038
0.00047118
-0.00303817
0.000819074
-0.00370401
0.00125841
-0.0046692
0.00176186
-0.00605114
0.00218097
-0.00773469
0.00220259
-0.00727651
0.00111524
-0.00219508
0.00468277
0.00351641
0.00382852
0.00186661
0.00423641
-5.95575e-05
0.00425172
-0.000252512
0.00385593
-0.000238916
0.00323259
-0.000265797
0.00248601
-0.000247689
0.00168406
-0.000163215
0.000871067
-3.28471e-05
9.42221e-05
0.000100151
-0.000561894
0.000187864
-0.00103659
0.000203655
-0.00134325
0.000197672
-0.00152083
0.000173766
-0.00163002
0.000130609
-0.00170716
8.68901e-05
-0.00177089
4.82869e-05
-0.00183151
1.69555e-05
-0.00189331
-8.2047e-06
-0.00195763
-3.04716e-05
-0.00202531
-5.00893e-05
-0.00209824
-6.63393e-05
-0.00217976
-7.78532e-05
-0.00227211
-8.4979e-05
-0.00237633
-8.40176e-05
-0.00249146
-6.90561e-05
-0.00261366
-3.19998e-05
-0.00273524
3.60984e-05
-0.00284413
0.00014326
-0.00293729
0.000308396
-0.00302243
0.000556322
-0.00310491
0.000901549
-0.00318047
0.00133397
-0.00320507
0.00178647
-0.00312889
0.00210478
-0.00277676
0.00185047
-0.00151387
-0.000147645
-0.00363718
-0.000537348
0.00411822
0.000304529
0.00102472
-5.14101e-05
0.00029637
-0.000397603
9.36787e-05
-0.000706276
6.97601e-05
-0.00105599
8.3921e-05
-0.00142284
0.000119166
-0.00175279
0.000166738
-0.00199736
0.000211726
-0.00214226
0.000245055
-0.00221156
0.000257164
-0.00224402
0.000236122
-0.00224865
0.000202298
-0.0022411
0.000166224
-0.00224114
0.000130651
-0.00225428
0.000100026
-0.00228062
7.46348e-05
-0.00231759
5.39246e-05
-0.00236326
3.74671e-05
-0.00241812
2.43927e-05
-0.00248079
1.2574e-05
-0.00254879
1.66314e-06
-0.00261928
-7.35467e-06
-0.00269023
-1.40314e-05
-0.0027575
-1.67473e-05
-0.00281409
-1.24595e-05
-0.00284916
3.06302e-06
-0.0028529
3.98464e-05
-0.00281553
0.000105889
-0.00271568
0.000208542
-0.00252235
0.000362995
-0.00220867
0.000587875
-0.00175482
0.000880115
-0.00113237
0.00116402
-0.000171223
0.00114363
0.00113566
0.000543587
0.00158815
-0.000600132
-0.00197042
-0.00721131
-0.0101055
-0.00594455
-0.00489989
-0.00459232
-0.00449173
-0.00441772
-0.00433155
-0.00421178
-0.00404583
-0.00383614
-0.0035943
-0.00334149
-0.00311079
-0.00291484
-0.0027557
-0.00263271
-0.00254078
-0.00247459
-0.00242936
-0.0024008
-0.00238545
-0.00238201
-0.00238953
-0.00240606
-0.00242919
-0.00245494
-0.00247624
-0.00248181
-0.00245036
-0.00235259
-0.00215188
-0.00179643
-0.00121581
-0.000342691
0.00081456
0.0019514
0.00248795
0.00188039
)
;

boundaryField
{
    floor
    {
        type            calculated;
        value           nonuniform List<scalar> 
29
(
0
0
0
0
0
0
0
0
0
0
0
0
0
0
0
0
0
0
0
0
-3.56146e-06
-9.17749e-06
-1.40085e-05
-1.83902e-05
-1.41079e-06
-2.64514e-06
-7.50724e-06
-7.84746e-06
-7.15188e-06
)
;
    }
    ceiling
    {
        type            calculated;
        value           nonuniform List<scalar> 
43
(
-4.5376e-05
-4.40578e-05
-4.27473e-05
-1.99444e-05
-1.11851e-05
-6.90848e-06
-4.2522e-06
-2.24017e-06
-6.03062e-07
7.91527e-07
2.04045e-06
3.21351e-06
4.35493e-06
5.42464e-06
6.34652e-06
7.08679e-06
7.66072e-06
8.10216e-06
8.44226e-06
8.70352e-06
8.90134e-06
9.04588e-06
9.14126e-06
9.18437e-06
9.17033e-06
9.1073e-06
8.99711e-06
8.84075e-06
8.63908e-06
8.39332e-06
8.12235e-06
7.8367e-06
7.54473e-06
7.25732e-06
6.99429e-06
6.76927e-06
6.7926e-06
7.03146e-06
7.43397e-06
8.67607e-06
1.1275e-05
8.20106e-06
-6.44764e-05
)
;
    }
    sWall
    {
        type            calculated;
        value           uniform -0.000275011;
    }
    nWall
    {
        type            calculated;
        value           nonuniform List<scalar> 6(-4.70284e-05 -5.6406e-05 -6.12193e-05 -7.17767e-05 -7.86058e-05 -9.87076e-05);
    }
    sideWalls
    {
        type            empty;
        value           nonuniform 0();
    }
    glass1
    {
        type            calculated;
        value           nonuniform List<scalar> 9(-5.61525e-05 -0.000151184 -0.000231191 -0.000299292 -0.000357097 -0.000405841 -0.000449952 -0.000503417 -0.000563245);
    }
    glass2
    {
        type            calculated;
        value           nonuniform List<scalar> 2(-0.000248416 -0.000274767);
    }
    sun
    {
        type            calculated;
        value           uniform 0;
    }
    heatsource1
    {
        type            calculated;
        value           nonuniform List<scalar> 3(2.03923e-07 2.03886e-07 2.03902e-07);
    }
    heatsource2
    {
        type            calculated;
        value           nonuniform List<scalar> 4(5.10828e-08 5.12068e-08 0 0);
    }
    Table_master
    {
        type            calculated;
        value           nonuniform List<scalar> 9(-1.52943e-07 -1.53023e-07 -1.53051e-07 -1.5307e-07 -1.53083e-07 -1.53092e-07 -1.53096e-07 -1.53089e-07 -1.53056e-07);
    }
    Table_slave
    {
        type            calculated;
        value           nonuniform List<scalar> 9(1.52823e-07 1.52848e-07 1.52832e-07 1.52819e-07 1.52815e-07 1.52819e-07 1.52835e-07 1.52877e-07 1.52957e-07);
    }
    inlet
    {
        type            calculated;
        value           uniform -0.00617403;
    }
    outlet
    {
        type            calculated;
        value           nonuniform List<scalar> 2(0.00753169 0.00293827);
    }
}


// ************************************************************************* //
