// -*- C++ -*-
// File generated by PyFoam - sorry for the ugliness

FoamFile
{
 version 2.0;
 format ascii;
 class volScalarField;
 location "800";
 object T;
}

dimensions [ 0 0 0 1 0 0 0 ];

internalField nonuniform List<scalar> 459
(
  303.594
  303.336
  303.323
  303.319
  303.315
  303.311
  303.306
  303.301
  303.292
  303.281
  303.269
  303.258
  303.249
  303.244
  303.245
  303.335
  303.314
  303.305
  303.308
  303.311
  303.315
  303.319
  303.323
  303.327
  303.33
  303.334
  303.338
  303.342
  303.345
  303.349
  303.353
  303.357
  303.362
  303.38
  303.769
  303.379
  303.356
  303.358
  303.361
  303.362
  303.359
  303.353
  303.339
  303.316
  303.29
  303.266
  303.246
  303.234
  303.229
  303.227
  303.227
  303.335
  303.298
  303.291
  303.294
  303.298
  303.302
  303.304
  303.306
  303.307
  303.309
  303.31
  303.312
  303.313
  303.315
  303.318
  303.322
  303.328
  303.336
  303.365
  303.95
  303.43
  303.391
  303.401
  303.415
  303.425
  303.43
  303.426
  303.404
  303.366
  303.321
  303.28
  303.249
  303.23
  303.224
  303.224
  303.226
  303.276
  303.275
  303.282
  303.291
  303.301
  303.308
  303.308
  303.308
  303.309
  303.309
  303.31
  303.31
  303.311
  303.311
  303.312
  303.315
  303.319
  303.327
  303.358
  304.134
  303.492
  303.427
  303.443
  303.47
  303.497
  303.515
  303.515
  303.483
  303.423
  303.353
  303.292
  303.248
  303.224
  303.218
  303.221
  303.227
  303.238
  303.251
  303.268
  303.287
  303.305
  303.319
  303.331
  303.34
  303.348
  303.356
  303.362
  303.367
  303.372
  303.375
  303.378
  303.379
  303.358
  303.34
  303.333
  303.357
  304.312
  303.571
  303.469
  303.479
  303.517
  303.561
  303.6
  303.602
  303.553
  303.466
  303.371
  303.293
  303.241
  303.215
  303.21
  303.218
  303.232
  303.249
  303.269
  303.293
  303.316
  303.337
  303.354
  303.368
  303.38
  303.39
  303.399
  303.405
  303.41
  303.411
  303.411
  303.407
  303.401
  303.385
  303.362
  303.344
  303.354
  303.423
  303.469
  303.475
  304.473
  303.674
  303.542
  303.53
  303.565
  303.619
  303.672
  303.658
  303.583
  303.476
  303.366
  303.277
  303.221
  303.198
  303.2
  303.219
  303.244
  303.271
  303.3
  303.329
  303.356
  303.378
  303.396
  303.41
  303.421
  303.43
  303.437
  303.442
  303.444
  303.443
  303.439
  303.431
  303.421
  303.404
  303.382
  303.359
  303.356
  303.386
  303.402
  303.436
  304.62
  303.837
  303.705
  303.674
  303.689
  303.734
  303.743
  303.681
  303.566
  303.431
  303.31
  303.222
  303.178
  303.171
  303.191
  303.228
  303.269
  303.309
  303.346
  303.378
  303.404
  303.424
  303.44
  303.451
  303.46
  303.467
  303.471
  303.474
  303.474
  303.47
  303.463
  303.452
  303.439
  303.422
  303.401
  303.379
  303.369
  303.377
  303.387
  303.415
  304.834
  304.248
  304.103
  304.015
  303.97
  303.917
  303.799
  303.631
  303.448
  303.289
  303.177
  303.12
  303.115
  303.146
  303.198
  303.26
  303.318
  303.366
  303.406
  303.433
  303.454
  303.469
  303.48
  303.488
  303.493
  303.497
  303.499
  303.499
  303.497
  303.493
  303.485
  303.474
  303.461
  303.446
  303.43
  303.414
  303.408
  303.42
  303.439
  303.561
  305.14
  304.864
  304.607
  304.372
  304.148
  303.869
  303.546
  303.263
  303.066
  302.965
  302.947
  302.988
  303.069
  303.159
  303.249
  303.336
  303.395
  303.434
  303.462
  303.481
  303.495
  303.505
  303.513
  303.517
  303.52
  303.522
  303.522
  303.521
  303.518
  303.516
  303.514
  303.514
  303.516
  303.523
  303.536
  303.559
  303.59
  303.621
  303.643
  303.695
  296.381
  298.311
  299.529
  300.324
  301.007
  301.595
  302.081
  302.463
  302.754
  302.983
  303.177
  303.298
  303.377
  303.432
  303.467
  303.491
  303.508
  303.52
  303.528
  303.534
  303.538
  303.541
  303.543
  303.544
  303.545
  303.545
  303.546
  303.547
  303.548
  303.551
  303.555
  303.563
  303.576
  303.594
  303.617
  303.64
  303.658
  303.678
  297.037
  298.896
  300.312
  301.261
  301.862
  302.308
  302.653
  302.914
  303.105
  303.243
  303.346
  303.416
  303.462
  303.493
  303.514
  303.528
  303.538
  303.545
  303.55
  303.554
  303.556
  303.558
  303.56
  303.562
  303.563
  303.564
  303.566
  303.567
  303.568
  303.57
  303.574
  303.58
  303.589
  303.601
  303.616
  303.634
  303.632
  303.661
  299.722
  299.644
  299.639
  301.468
  302.276
  302.668
  302.899
  303.069
  303.2
  303.3
  303.375
  303.43
  303.47
  303.497
  303.515
  303.527
  303.535
  303.541
  303.544
  303.547
  303.55
  303.552
  303.555
  303.557
  303.56
  303.562
  303.564
  303.566
  303.569
  303.571
  303.573
  303.576
  303.579
  303.582
  303.588
  303.597
  303.606
  303.612
  303.614
  303.653
)
;

boundaryField
{
  floor
  {
    type wallHeatTransfer;
    Tinf uniform 305.2;
    alphaWall uniform 0.24;
    value nonuniform List<scalar> 29
(
  303.434
  303.689
  303.626
  303.595
  303.598
  303.609
  303.622
  303.639
  303.657
  303.675
  303.693
  303.709
  303.726
  303.741
  303.756
  303.771
  303.786
  303.803
  303.818
  303.857
  303.857
  303.775
  303.734
  303.71
  303.434
  303.689
  303.67
  303.486
  303.401
)
;
  }
  ceiling
  {
    type wallHeatTransfer;
    Tinf uniform 303.2;
    alphaWall uniform 0.24;
    value nonuniform List<scalar> 43
(
  299.969
  299.885
  299.873
  301.575
  302.335
  302.703
  302.919
  303.078
  303.2
  303.292
  303.36
  303.408
  303.442
  303.464
  303.477
  303.484
  303.489
  303.492
  303.494
  303.495
  303.497
  303.498
  303.5
  303.502
  303.505
  303.508
  303.51
  303.514
  303.517
  303.521
  303.524
  303.528
  303.533
  303.539
  303.545
  303.556
  303.565
  303.569
  303.569
  303.601
  305.05
  304.797
  297.434
)
;
  }
  sWall
  {
    type wallHeatTransfer;
    Tinf uniform 315.2;
    alphaWall uniform 0.36;
    value uniform 301.32;
  }
  nWall
  {
    type wallHeatTransfer;
    Tinf uniform 307.2;
    alphaWall uniform 0.36;
    value nonuniform List<scalar> 6
(
  304.177
  304.126
  304.051
  304.189
  304.167
  304.23
)
;
  }
  sideWalls
  {
    type empty;
  }
  glass1
  {
    type wallHeatTransfer;
    Tinf uniform 315.2;
    alphaWall uniform 4.3;
    value nonuniform List<scalar> 9
(
  311.538
  310.909
  310.511
  310.208
  309.956
  309.727
  309.557
  309.628
  309.853
)
;
  }
  glass2
  {
    type wallHeatTransfer;
    Tinf uniform 307.2;
    alphaWall uniform 4.3;
    value nonuniform List<scalar> 2
(
  305.83
  305.922
)
;
  }
  sun
  {
    type wallHeatTransfer;
    Tinf uniform 305.2;
    alphaWall uniform 0.24;
    value nonuniform List<scalar> 14
(
  303.765
  303.521
  303.506
  303.496
  303.487
  303.479
  303.47
  303.46
  303.45
  303.438
  303.428
  303.421
  303.418
  303.423
)
;
  }
  heatsource1
  {
    type fixedGradient;
    gradient uniform 0;
  }
  heatsource2
  {
    type fixedGradient;
    gradient uniform 0;
  }
  Table_master
  {
    type zeroGradient;
  }
  Table_slave
  {
    type zeroGradient;
  }
  inlet
  {
    type fixedValue;
    value uniform 293.15;
  }
  outlet
  {
    type zeroGradient;
  }
} 	// ************************************************************************* //

