/*--------------------------------*- C++ -*----------------------------------*\
  =========                 |
  \\      /  F ield         | OpenFOAM: The Open Source CFD Toolbox
   \\    /   O peration     | Website:  https://openfoam.org
    \\  /    A nd           | Version:  6
     \\/     M anipulation  |
\*---------------------------------------------------------------------------*/
FoamFile
{
    version     2.0;
    format      ascii;
    class       volScalarField;
    location    "200";
    object      alphat;
}
// * * * * * * * * * * * * * * * * * * * * * * * * * * * * * * * * * * * * * //

dimensions      [1 -1 -1 0 0 0 0];

internalField   nonuniform List<scalar> 
459
(
0.00141114
0.00155643
0.00160111
0.00168626
0.00177001
0.00185674
0.00193298
0.00198185
0.00199378
0.00196386
0.00188775
0.00169654
0.00150738
0.0012897
0.00109443
0.000635085
0.000745626
0.000870393
0.00093822
0.000942525
0.000917426
0.000860433
0.000799769
0.000745041
0.000697313
0.000655826
0.000619666
0.000587852
0.000559674
0.000534112
0.000509781
0.000484743
0.000461058
0.000418543
0.00186962
0.00480543
0.00470274
0.00546433
0.00621366
0.00682293
0.00731474
0.00773264
0.00803978
0.00820458
0.00819005
0.00792289
0.00731768
0.00617909
0.00414351
0.00135767
0.00107345
0.000624197
0.0015739
0.00248261
0.00323326
0.00368279
0.00362403
0.00256016
0.0021165
0.0018288
0.00162093
0.00146319
0.0013394
0.00124079
0.00115153
0.00105777
0.000967572
0.00088769
0.000961197
0.000491626
0.00224361
0.00653137
0.00582727
0.00681969
0.00730207
0.00766679
0.00800071
0.00835609
0.00872851
0.00908251
0.00933426
0.00936861
0.00911487
0.00848677
0.00707657
0.00463769
0.00134114
0.000873045
0.00169168
0.00272567
0.00383
0.00461101
0.00440638
0.00118066
0.0010265
0.000902815
0.000804144
0.000724921
0.000660674
0.000608084
0.000565641
0.000533755
0.000599542
0.000719658
0.00111222
0.000543301
0.00259615
0.00815032
0.00600022
0.00708024
0.00728387
0.00743226
0.00762903
0.00791946
0.00832738
0.00880332
0.00919665
0.00939354
0.00937687
0.0091132
0.00840545
0.00689595
0.0037779
0.00152502
0.00186305
0.00274139
0.00400036
0.00524389
0.00606012
0.00561947
0.00134304
0.00121511
0.00111716
0.00103739
0.000968104
0.000903199
0.00083871
0.000771412
0.000695865
0.000641727
0.000705252
0.00129017
0.000582228
0.00295191
0.0101885
0.00667287
0.00724837
0.00739112
0.00735774
0.00740571
0.00762427
0.00804633
0.00855254
0.00897883
0.00920342
0.00921216
0.00905975
0.00873349
0.00805352
0.00675506
0.00596676
0.00631524
0.00697317
0.00769407
0.00824136
0.00846693
0.00814412
0.00659247
0.00576649
0.00521615
0.00472331
0.00419082
0.00361436
0.00300128
0.0023715
0.00175801
0.00123988
0.000978194
0.00122787
0.000733016
0.000688398
0.000827026
0.000929689
0.00332713
0.0124422
0.00894007
0.00803225
0.00797816
0.00764629
0.00746307
0.0075791
0.0079966
0.00854244
0.00899076
0.00918702
0.00913839
0.00899176
0.00890073
0.00890127
0.00886739
0.00911283
0.00969255
0.0101627
0.0104115
0.0104096
0.0101637
0.00965762
0.00882652
0.0080366
0.00731647
0.00659989
0.00586251
0.00509133
0.00428582
0.00345805
0.00264456
0.00192473
0.00146711
0.0013032
0.00100298
0.000885806
0.00127603
0.000975216
0.00365239
0.0139359
0.0119882
0.0100252
0.00890846
0.00797437
0.00755153
0.00765891
0.00815933
0.0087901
0.00926668
0.00942391
0.00933081
0.00927911
0.00958736
0.0101917
0.0107829
0.0113506
0.0118007
0.0119147
0.0117395
0.0113325
0.0107507
0.0100298
0.00919475
0.00837753
0.00759952
0.00684639
0.0061031
0.00537221
0.00465367
0.00393845
0.00322442
0.00254304
0.00205033
0.00172821
0.0014621
0.00142896
0.00149583
0.0011422
0.0037047
0.0118753
0.0108595
0.00943742
0.00814644
0.00739239
0.00729662
0.00776827
0.00856353
0.00933993
0.00980364
0.00986433
0.00977103
0.0100737
0.0109726
0.0116228
0.0120697
0.0123683
0.0124412
0.012193
0.0116675
0.0109395
0.0100761
0.00912998
0.00816334
0.00725646
0.00642221
0.00567195
0.00503173
0.00453327
0.0041638
0.00384847
0.00348801
0.0030862
0.0028481
0.00282073
0.003074
0.00369597
0.0045571
0.00173973
0.00359943
0.004233
0.00454578
0.00464748
0.00499296
0.00580788
0.00701269
0.0083824
0.00959655
0.0103209
0.0104376
0.0102242
0.0105288
0.0111009
0.0116349
0.0119252
0.0120194
0.0119324
0.0116084
0.0110188
0.0102018
0.00922228
0.00814375
0.00704149
0.00599976
0.00507831
0.004312
0.0037074
0.00326369
0.00296315
0.00277358
0.00266358
0.0026063
0.00258652
0.00259961
0.00262455
0.00260203
0.00248369
0.00231178
0.00161299
0.0014607
0.00364157
0.00725663
0.00965048
0.0110518
0.0117001
0.0117168
0.011213
0.0104928
0.010109
0.0103238
0.0106262
0.0107372
0.0106655
0.0104381
0.0100222
0.00938328
0.00853624
0.0075481
0.00651111
0.00551751
0.0046422
0.00392654
0.003378
0.00298553
0.00272651
0.00257372
0.00250089
0.00248649
0.00251427
0.00257113
0.00264459
0.00271635
0.00275533
0.00272649
0.00263366
0.00242553
0.00135197
0.00243806
0.00823679
0.0107618
0.0111678
0.0108674
0.0101761
0.00934836
0.00865954
0.00819377
0.00796513
0.0078617
0.00773029
0.00755803
0.00734046
0.00703794
0.00660891
0.00604866
0.00540392
0.00475456
0.0041751
0.00370554
0.00334886
0.00308605
0.00289265
0.0027482
0.00263981
0.00256311
0.00252049
0.00251702
0.00255568
0.00263313
0.00273574
0.00283855
0.00291541
0.00289413
0.00294989
0.00292036
0.00137704
0.00216066
0.00229232
0.00238774
0.00255326
0.00235868
0.00219284
0.00205799
0.00190446
0.00173999
0.00158373
0.00145476
0.00136214
0.00129838
0.001252
0.00121392
0.00117736
0.00113784
0.00109379
0.0010468
0.00100051
0.000958612
0.000923396
0.000895369
0.000873948
0.000858418
0.000848704
0.000845678
0.000850981
0.000866489
0.000893695
0.000933357
0.000985646
0.00105047
0.00112738
0.00121667
0.00131105
0.00133211
0.00128176
0.00120905
0.00112489
)
;

boundaryField
{
    floor
    {
        type            compressible::alphatWallFunction;
        Prt             0.85;
        value           nonuniform List<scalar> 
29
(
0.000155505
8.96001e-05
0.000105869
0.00012389
0.000133559
0.000134172
0.000130609
0.000122471
0.000113739
0.000105793
9.88058e-05
9.26856e-05
8.73129e-05
8.2554e-05
7.83126e-05
7.44421e-05
7.07364e-05
6.69e-05
6.32476e-05
5.66313e-05
5.66306e-05
6.79544e-05
7.58316e-05
8.17045e-05
0.000155504
8.9599e-05
8.79783e-05
0.000124248
0.000214315
)
;
    }
    ceiling
    {
        type            compressible::alphatWallFunction;
        Prt             0.85;
        value           nonuniform List<scalar> 
43
(
0.000297901
0.000314852
0.000327076
0.000348283
0.000323526
0.000302233
0.000284787
0.00026477
0.000243128
0.00022236
0.000205051
0.000192515
0.000183831
0.000177482
0.000172251
0.00016721
0.000161739
0.000155614
0.000149048
0.000142545
0.000136629
0.000131633
0.00012764
0.000124577
0.00012235
0.000120954
0.000120516
0.000121274
0.000123493
0.000127378
0.000133019
0.000140415
0.000149524
0.000160247
0.000172591
0.000185531
0.000188402
0.000181527
0.000171543
0.000159906
0.000478734
0.000555654
0.000333275
)
;
    }
    sWall
    {
        type            compressible::alphatWallFunction;
        Prt             0.85;
        value           uniform 0.000296703;
    }
    nWall
    {
        type            compressible::alphatWallFunction;
        Prt             0.85;
        value           nonuniform List<scalar> 6(0.000132154 0.000138594 0.000161942 0.000190794 0.0001942 0.000159586);
    }
    sideWalls
    {
        type            empty;
    }
    glass1
    {
        type            compressible::alphatWallFunction;
        Prt             0.85;
        value           nonuniform List<scalar> 9(0.000194105 0.000254366 0.000302447 0.00034707 0.000391518 0.000437839 0.000477606 0.00048411 0.000471553);
    }
    glass2
    {
        type            compressible::alphatWallFunction;
        Prt             0.85;
        value           nonuniform List<scalar> 2(0.000241305 0.000224647);
    }
    sun
    {
        type            compressible::alphatWallFunction;
        Prt             0.85;
        value           nonuniform List<scalar> 
14
(
0.000198995
0.000218543
0.000224517
0.000235853
0.000246941
0.000258363
0.000268354
0.000274735
0.000276288
0.000272382
0.000262423
0.000237195
0.000211951
0.000182454
)
;
    }
    heatsource1
    {
        type            compressible::alphatWallFunction;
        Prt             0.85;
        value           nonuniform List<scalar> 3(9.76064e-05 0.000117787 0.000132469);
    }
    heatsource2
    {
        type            compressible::alphatWallFunction;
        Prt             0.85;
        value           nonuniform List<scalar> 4(0.000191877 0.000152732 0.00015273 0.00018962);
    }
    Table_master
    {
        type            compressible::alphatWallFunction;
        Prt             0.85;
        value           nonuniform List<scalar> 9(0.000167625 0.000146156 0.000128659 0.000114498 0.000102978 9.3524e-05 8.57018e-05 7.93282e-05 7.45011e-05);
    }
    Table_slave
    {
        type            compressible::alphatWallFunction;
        Prt             0.85;
        value           nonuniform List<scalar> 9(0.000189899 0.000172382 0.000158826 0.000147686 0.000137929 0.000128714 0.00011948 0.000109754 9.87136e-05);
    }
    inlet
    {
        type            fixedValue;
        value           uniform 1.94e-05;
    }
    outlet
    {
        type            zeroGradient;
    }
}


// ************************************************************************* //
