// -*- C++ -*-
// File generated by PyFoam - sorry for the ugliness

FoamFile
{
 version 2.0;
 format ascii;
 class volScalarField;
 location "600";
 object T;
}

dimensions [ 0 0 0 1 0 0 0 ];

internalField nonuniform List<scalar> 459
(
  306.105
  305.35
  305.285
  305.252
  305.23
  305.215
  305.205
  305.198
  305.191
  305.184
  305.177
  305.169
  305.161
  305.153
  305.14
  303.723
  303.724
  303.713
  303.654
  303.575
  303.511
  303.471
  303.449
  303.436
  303.426
  303.418
  303.414
  303.412
  303.405
  303.405
  303.437
  303.482
  303.488
  303.489
  305.583
  305.333
  305.19
  305.115
  305.071
  305.045
  305.031
  305.025
  305.023
  305.025
  305.031
  305.042
  305.056
  305.077
  305.099
  305.089
  305.068
  303.744
  303.744
  303.75
  303.746
  303.727
  303.684
  303.625
  303.575
  303.53
  303.496
  303.486
  303.477
  303.461
  303.446
  303.472
  303.574
  303.582
  303.54
  303.5
  305.453
  305.089
  304.933
  304.856
  304.813
  304.789
  304.777
  304.78
  304.796
  304.822
  304.857
  304.898
  304.943
  304.991
  305.037
  305.053
  305.049
  303.826
  303.804
  303.809
  303.826
  303.85
  303.858
  303.757
  303.706
  303.679
  303.661
  303.639
  303.604
  303.543
  303.513
  303.612
  303.753
  303.65
  303.593
  303.56
  305.369
  304.871
  304.732
  304.681
  304.654
  304.636
  304.624
  304.625
  304.644
  304.681
  304.731
  304.791
  304.857
  304.923
  304.987
  305.022
  305.024
  304.564
  303.934
  303.885
  303.895
  303.911
  303.921
  303.924
  303.925
  303.923
  303.922
  303.921
  303.92
  303.92
  303.92
  303.921
  303.919
  303.905
  303.865
  303.814
  303.806
  305.285
  304.712
  304.635
  304.621
  304.609
  304.593
  304.577
  304.567
  304.579
  304.612
  304.666
  304.733
  304.808
  304.885
  304.957
  305.001
  304.998
  304.546
  304.003
  303.939
  303.938
  303.944
  303.945
  303.945
  303.942
  303.939
  303.937
  303.934
  303.933
  303.933
  303.935
  303.936
  303.935
  303.928
  303.909
  303.877
  303.848
  303.844
  303.852
  303.901
  305.189
  304.626
  304.614
  304.626
  304.618
  304.601
  304.58
  304.563
  304.567
  304.598
  304.652
  304.72
  304.797
  304.875
  304.946
  304.985
  304.941
  304.479
  304.031
  303.97
  303.967
  303.969
  303.969
  303.967
  303.964
  303.959
  303.953
  303.949
  303.946
  303.945
  303.947
  303.95
  303.95
  303.944
  303.93
  303.905
  303.879
  303.863
  303.856
  303.869
  305.072
  304.604
  304.62
  304.65
  304.648
  304.634
  304.618
  304.608
  304.613
  304.639
  304.684
  304.743
  304.811
  304.88
  304.937
  304.951
  304.85
  304.402
  304.05
  303.999
  303.997
  304
  304.002
  304
  303.994
  303.986
  303.975
  303.966
  303.959
  303.957
  303.959
  303.962
  303.963
  303.96
  303.948
  303.921
  303.898
  303.881
  303.871
  303.879
  304.951
  304.586
  304.616
  304.689
  304.693
  304.687
  304.681
  304.678
  304.684
  304.704
  304.737
  304.782
  304.834
  304.883
  304.916
  304.895
  304.746
  304.338
  304.071
  304.032
  304.034
  304.043
  304.049
  304.048
  304.039
  304.024
  304.007
  303.989
  303.975
  303.968
  303.969
  303.973
  303.977
  303.977
  303.97
  303.955
  303.934
  303.919
  303.929
  304.008
  304.836
  304.548
  304.543
  304.716
  304.73
  304.734
  304.737
  304.742
  304.749
  304.763
  304.785
  304.814
  304.845
  304.871
  304.875
  304.823
  304.653
  304.303
  304.105
  304.077
  304.083
  304.096
  304.108
  304.108
  304.098
  304.079
  304.053
  304.025
  304
  303.983
  303.978
  303.982
  303.992
  304.002
  304.013
  304.022
  304.031
  304.04
  304.052
  304.086
  304.348
  304.711
  304.74
  304.753
  304.764
  304.773
  304.782
  304.792
  304.805
  304.819
  304.832
  304.837
  304.819
  304.753
  304.594
  304.315
  304.166
  304.147
  304.151
  304.164
  304.17
  304.169
  304.159
  304.142
  304.118
  304.086
  304.049
  304.013
  303.99
  303.979
  303.976
  303.979
  303.986
  303.994
  304.002
  304.006
  303.988
  303.998
  304.544
  304.705
  304.728
  304.743
  304.755
  304.765
  304.774
  304.78
  304.786
  304.791
  304.791
  304.784
  304.759
  304.701
  304.579
  304.368
  304.295
  304.267
  304.256
  304.25
  304.243
  304.234
  304.221
  304.203
  304.179
  304.148
  304.111
  304.071
  304.035
  304.006
  303.986
  303.973
  303.968
  303.969
  303.969
  303.96
  303.961
  303.979
  306.662
  305.877
  304.689
  304.69
  304.699
  304.706
  304.712
  304.717
  304.722
  304.727
  304.73
  304.73
  304.728
  304.72
  304.704
  304.674
  304.564
  304.484
  304.443
  304.414
  304.391
  304.367
  304.344
  304.321
  304.297
  304.273
  304.246
  304.217
  304.184
  304.147
  304.109
  304.071
  304.036
  304.005
  303.98
  303.962
  303.948
  303.938
  303.962
  304.037
)
;

boundaryField
{
  floor
  {
    type wallHeatTransfer;
    Tinf uniform 305.2;
    alphaWall uniform 0.24;
    value nonuniform List<scalar> 29
(
  305.145
  304.076
  304.063
  304.074
  304.068
  304.025
  303.988
  303.961
  303.945
  303.937
  303.94
  303.956
  303.971
  303.977
  303.954
  303.938
  303.905
  303.862
  303.849
  303.881
  303.881
  303.844
  303.858
  303.988
  305.145
  304.076
  304.046
  304.05
  304.629
)
;
  }
  ceiling
  {
    type wallHeatTransfer;
    Tinf uniform 303.2;
    alphaWall uniform 0.24;
    value nonuniform List<scalar> 43
(
  306.392
  305.657
  304.566
  304.535
  304.546
  304.554
  304.561
  304.567
  304.573
  304.578
  304.581
  304.582
  304.58
  304.573
  304.559
  304.53
  304.426
  304.348
  304.306
  304.277
  304.254
  304.234
  304.214
  304.195
  304.175
  304.154
  304.131
  304.105
  304.077
  304.045
  304.012
  303.98
  303.95
  303.924
  303.902
  303.885
  303.87
  303.856
  303.874
  303.953
  304.769
  304.497
  304.471
)
;
  }
  sWall
  {
    type wallHeatTransfer;
    Tinf uniform 315.2;
    alphaWall uniform 0.36;
    value uniform 307.625;
  }
  nWall
  {
    type wallHeatTransfer;
    Tinf uniform 307.2;
    alphaWall uniform 0.36;
    value nonuniform List<scalar> 6
(
  304.498
  304.442
  304.38
  304.425
  304.423
  304.493
)
;
  }
  sideWalls
  {
    type empty;
  }
  glass1
  {
    type wallHeatTransfer;
    Tinf uniform 315.2;
    alphaWall uniform 4.3;
    value nonuniform List<scalar> 9
(
  311.573
  310.427
  310.193
  310.069
  309.966
  309.862
  309.736
  309.583
  309.365
)
;
  }
  glass2
  {
    type wallHeatTransfer;
    Tinf uniform 307.2;
    alphaWall uniform 4.3;
    value nonuniform List<scalar> 2
(
  306.134
  306.13
)
;
  }
  sun
  {
    type wallHeatTransfer;
    Tinf uniform 305.2;
    alphaWall uniform 0.24;
    value nonuniform List<scalar> 14
(
  306.035
  305.341
  305.28
  305.248
  305.228
  305.214
  305.205
  305.198
  305.191
  305.185
  305.178
  305.171
  305.164
  305.156
)
;
  }
  heatsource1
  {
    type fixedGradient;
    gradient uniform 0;
  }
  heatsource2
  {
    type fixedGradient;
    gradient uniform 0;
  }
  Table_master
  {
    type zeroGradient;
  }
  Table_slave
  {
    type zeroGradient;
  }
  inlet
  {
    type fixedValue;
    value uniform 290.15;
  }
  outlet
  {
    type zeroGradient;
  }
} 	// ************************************************************************* //

