/*--------------------------------*- C++ -*----------------------------------*\
  =========                 |
  \\      /  F ield         | OpenFOAM: The Open Source CFD Toolbox
   \\    /   O peration     | Website:  https://openfoam.org
    \\  /    A nd           | Version:  6
     \\/     M anipulation  |
\*---------------------------------------------------------------------------*/
FoamFile
{
    version     2.0;
    format      ascii;
    class       volScalarField;
    location    "600";
    object      nut;
}
// * * * * * * * * * * * * * * * * * * * * * * * * * * * * * * * * * * * * * //

dimensions      [0 2 -1 0 0 0 0];

internalField   nonuniform List<scalar> 
459
(
0.000704428
0.000731377
0.000717069
0.000740614
0.000760878
0.000777893
0.000792349
0.000804983
0.000816546
0.000827937
0.000836591
0.000841405
0.000842125
0.000839898
0.000834827
0.000616473
0.000589147
0.00056542
0.000549465
0.000537042
0.000522374
0.000501258
0.000479853
0.000459264
0.000439561
0.000420861
0.000403185
0.000386456
0.000370489
0.00035495
0.000339289
0.000322526
0.000312638
0.000288455
0.00109188
0.00166625
0.001374
0.00161145
0.0017172
0.00183087
0.00194514
0.00205046
0.00213312
0.00217488
0.00218477
0.00213874
0.002004
0.00173538
0.00129899
0.000854435
0.000790001
0.000731243
0.0013524
0.00177857
0.00201594
0.00209798
0.00200911
0.00163769
0.00142505
0.00126117
0.0011302
0.00102152
0.000928939
0.000847463
0.000771899
0.000698394
0.000635403
0.000578611
0.000694129
0.000384927
0.00145201
0.00256601
0.00147276
0.00226488
0.00243419
0.00255217
0.00264483
0.0027159
0.00276818
0.00279855
0.00280554
0.00276562
0.00264823
0.00241511
0.00203394
0.0015282
0.000934337
0.000837889
0.0022762
0.00276473
0.00284879
0.00279273
0.00238222
0.000639806
0.000563192
0.000505998
0.000462325
0.000428077
0.000400529
0.000378001
0.000359709
0.000346062
0.000393565
0.000458186
0.000784151
0.000454946
0.00182501
0.00395424
0.00145226
0.00255029
0.00285368
0.0029596
0.00302036
0.00305769
0.00308368
0.00310198
0.00311302
0.00310295
0.00305025
0.00292276
0.00266846
0.00221375
0.00153864
0.000952044
0.00249226
0.00269216
0.00289746
0.00294815
0.00287536
0.00245969
0.000636338
0.000603659
0.000593825
0.000590759
0.000586088
0.000574439
0.000555394
0.000534651
0.000508541
0.000483733
0.000484997
0.000938539
0.000510321
0.00220411
0.00578242
0.00182355
0.00242977
0.00304649
0.00317319
0.00321742
0.00323151
0.00323625
0.00324572
0.00325994
0.00328152
0.00329114
0.00326554
0.00318056
0.00302179
0.00280618
0.0025486
0.00238774
0.00245608
0.00271677
0.00279893
0.00280365
0.00272479
0.00244014
0.00241952
0.00243963
0.00244657
0.00241889
0.00234326
0.00218029
0.00190125
0.00155496
0.00118966
0.000880753
0.000903755
0.000664659
0.000653078
0.000776007
0.000865358
0.00258804
0.00772027
0.00316035
0.00211088
0.00289833
0.00319554
0.0033029
0.00333467
0.00331526
0.00328561
0.00328669
0.00332894
0.00337041
0.00338297
0.00333303
0.00317498
0.00287294
0.00245337
0.00209368
0.00216816
0.00258616
0.00268687
0.00271059
0.0027222
0.0027403
0.00279508
0.00284413
0.00286642
0.00285474
0.00280724
0.00271993
0.00251851
0.00220342
0.00178854
0.00136878
0.000997593
0.00083958
0.000774419
0.00115228
0.000905019
0.00297583
0.00931363
0.00590967
0.00297126
0.00227019
0.00251035
0.00291172
0.00322212
0.00340581
0.0032766
0.00327546
0.00332312
0.00337017
0.00339727
0.00337434
0.0032449
0.0029474
0.00245762
0.0019338
0.00195876
0.00255423
0.00267237
0.00267699
0.00268371
0.00271959
0.00277456
0.00282315
0.00285043
0.00285618
0.00284572
0.0028258
0.00275548
0.00252058
0.00215016
0.0017596
0.00136808
0.0011507
0.00113505
0.00123786
0.00102671
0.00308139
0.00949637
0.00758826
0.00581504
0.00417278
0.00318215
0.00287753
0.00298742
0.00325463
0.00329153
0.0032872
0.00329853
0.0033202
0.00333242
0.00330719
0.00320556
0.00297129
0.00251351
0.00185195
0.00178959
0.00257342
0.00272466
0.00270036
0.00267332
0.00267277
0.00268578
0.00269811
0.00270604
0.00271634
0.00274236
0.00279842
0.00287927
0.00283766
0.00253526
0.00227842
0.00219452
0.00242699
0.00310404
0.00404748
0.00160717
0.00302598
0.00368321
0.004114
0.00425623
0.00410314
0.0037572
0.00343734
0.00324217
0.00317053
0.00314221
0.00315485
0.00318631
0.0032135
0.0032148
0.00317113
0.00306367
0.0028603
0.0024527
0.00176959
0.00163408
0.00259837
0.00281214
0.00275164
0.00267592
0.00262273
0.00257729
0.00252921
0.00247673
0.00242237
0.00236935
0.00231928
0.00227215
0.00223117
0.00220609
0.00223358
0.0023003
0.00233039
0.00225118
0.00209657
0.00147866
0.00215637
0.0036075
0.00392303
0.0038746
0.00372545
0.00358005
0.00347279
0.00339034
0.00332266
0.00325736
0.00317965
0.0030779
0.0029458
0.00278127
0.00257084
0.00219998
0.00154142
0.00147025
0.00257815
0.00290356
0.0028096
0.00269535
0.0026083
0.00252868
0.00245115
0.00237789
0.00231272
0.00226144
0.00223246
0.00223435
0.0022587
0.00229522
0.00233707
0.00235274
0.00229143
0.00213055
0.00187906
0.00119952
0.00229224
0.00411647
0.00432766
0.00418498
0.00401594
0.00383503
0.00365411
0.0034785
0.00327524
0.00303548
0.00278152
0.00252712
0.00228161
0.00205179
0.00183629
0.00158332
0.00117284
0.001258
0.00219519
0.00245456
0.00238079
0.0022888
0.00222065
0.0021706
0.00214378
0.00214475
0.00217128
0.00221429
0.00225797
0.00232361
0.00240659
0.00249681
0.0025792
0.00264328
0.0026442
0.00266286
0.00237284
0.00121432
0.0020046
0.00211055
0.0022006
0.00233949
0.00221578
0.00204068
0.00189533
0.00176387
0.00164033
0.00152396
0.00141951
0.00132717
0.00124082
0.00115727
0.00107503
0.000993858
0.000914597
0.000838271
0.000758533
0.000683981
0.000711795
0.000722362
0.000725436
0.000731709
0.000743132
0.000759619
0.000781153
0.000807769
0.000839761
0.00087809
0.000925062
0.000978491
0.00103875
0.00110545
0.00117814
0.0012751
0.00130367
0.00127348
0.00118938
0.00109821
)
;

boundaryField
{
    floor
    {
        type            nutkWallFunction;
        Cmu             0.09;
        kappa           0.41;
        E               9.8;
        value           nonuniform List<scalar> 
29
(
0.00010109
7.44024e-05
7.09902e-05
6.8011e-05
6.59992e-05
6.4428e-05
6.25672e-05
5.98766e-05
5.71348e-05
5.44832e-05
5.19317e-05
4.94969e-05
4.71827e-05
4.49804e-05
4.28671e-05
4.07991e-05
3.8703e-05
3.64453e-05
3.51066e-05
3.18081e-05
3.1808e-05
4.47793e-05
5.39273e-05
6.10358e-05
0.00010109
7.44024e-05
8.85495e-05
0.000101458
0.000115067
)
;
    }
    ceiling
    {
        type            nutkWallFunction;
        Cmu             0.09;
        kappa           0.41;
        E               9.8;
        value           nonuniform List<scalar> 
43
(
0.000233781
0.000245277
0.000255
0.000270002
0.000256745
0.000237816
0.000221961
0.000207504
0.000193809
0.000180807
0.000169043
0.000158563
0.000148688
0.000139061
0.000129507
0.000119996
0.000110622
0.000101506
9.18833e-05
8.27633e-05
8.61766e-05
8.74702e-05
8.78459e-05
8.86113e-05
9.00033e-05
9.20081e-05
9.46191e-05
9.7835e-05
0.000101684
0.000106273
0.000111866
0.000118188
0.000125269
0.000133055
0.00014148
0.000152626
0.000155891
0.000152439
0.000142776
0.000132213
0.000342808
0.000410689
0.000264774
)
;
    }
    sWall
    {
        type            nutkWallFunction;
        Cmu             0.09;
        kappa           0.41;
        E               9.8;
        value           uniform 0.000233845;
    }
    nWall
    {
        type            nutkWallFunction;
        Cmu             0.09;
        kappa           0.41;
        E               9.8;
        value           nonuniform List<scalar> 6(0.000104753 0.000109486 0.000123866 0.000143956 0.000145661 0.000132222);
    }
    sideWalls
    {
        type            empty;
    }
    glass1
    {
        type            nutkWallFunction;
        Cmu             0.09;
        kappa           0.41;
        E               9.8;
        value           nonuniform List<scalar> 9(8.52328e-05 0.00013159 0.000172953 0.000214589 0.00025596 0.000297086 0.000337976 0.000349017 0.000343246);
    }
    glass2
    {
        type            nutkWallFunction;
        Cmu             0.09;
        kappa           0.41;
        E               9.8;
        value           nonuniform List<scalar> 2(0.000190223 0.000175811);
    }
    sun
    {
        type            nutkWallFunction;
        Cmu             0.09;
        kappa           0.41;
        E               9.8;
        value           nonuniform List<scalar> 
14
(
8.52691e-05
8.85658e-05
8.68174e-05
8.96919e-05
9.21571e-05
9.4221e-05
9.59705e-05
9.74963e-05
9.88904e-05
0.000100261
0.000101302
0.00010188
0.000101966
0.000101699
)
;
    }
    heatsource1
    {
        type            nutkWallFunction;
        Cmu             0.09;
        kappa           0.41;
        E               9.8;
        value           nonuniform List<scalar> 3(7.8952e-05 9.39941e-05 0.000104749);
    }
    heatsource2
    {
        type            nutkWallFunction;
        Cmu             0.09;
        kappa           0.41;
        E               9.8;
        value           nonuniform List<scalar> 4(0.000103442 9.56865e-05 9.56866e-05 0.000112965);
    }
    Table_master
    {
        type            nutkWallFunction;
        Cmu             0.09;
        kappa           0.41;
        E               9.8;
        value           nonuniform List<scalar> 9(7.73097e-05 6.77391e-05 6.04911e-05 5.48885e-05 5.0449e-05 4.68455e-05 4.38754e-05 4.14472e-05 3.96253e-05);
    }
    Table_slave
    {
        type            nutkWallFunction;
        Cmu             0.09;
        kappa           0.41;
        E               9.8;
        value           nonuniform List<scalar> 9(7.68787e-05 7.28119e-05 7.15833e-05 7.11999e-05 7.06153e-05 6.91541e-05 6.67573e-05 6.41352e-05 6.08168e-05);
    }
    inlet
    {
        type            calculated;
        value           uniform 0.000100623;
    }
    outlet
    {
        type            calculated;
        value           nonuniform List<scalar> 2(0.0020046 0.00211055);
    }
}


// ************************************************************************* //
