// -*- C++ -*-
// File generated by PyFoam - sorry for the ugliness

FoamFile
{
 version 2.0;
 format ascii;
 class volScalarField;
 location "600";
 object T;
}

dimensions [ 0 0 0 1 0 0 0 ];

internalField nonuniform List<scalar> 459
(
  303.486
  303.205
  303.195
  303.192
  303.19
  303.187
  303.185
  303.182
  303.179
  303.175
  303.169
  303.16
  303.149
  303.137
  303.126
  303.122
  303.115
  303.114
  303.114
  303.116
  303.118
  303.12
  303.122
  303.122
  303.121
  303.118
  303.112
  303.104
  303.093
  303.078
  303.057
  303.025
  302.974
  302.948
  303.694
  303.24
  303.221
  303.226
  303.231
  303.235
  303.237
  303.238
  303.237
  303.233
  303.222
  303.203
  303.177
  303.146
  303.116
  303.098
  303.089
  303.108
  303.103
  303.102
  303.101
  303.1
  303.1
  303.1
  303.101
  303.1
  303.098
  303.093
  303.087
  303.078
  303.066
  303.053
  303.037
  303.012
  302.973
  302.944
  303.905
  303.285
  303.252
  303.266
  303.282
  303.297
  303.31
  303.319
  303.323
  303.321
  303.305
  303.274
  303.231
  303.18
  303.133
  303.103
  303.089
  303.104
  303.105
  303.107
  303.107
  303.107
  303.106
  303.104
  303.102
  303.1
  303.096
  303.09
  303.082
  303.071
  303.058
  303.045
  303.033
  303.012
  302.979
  302.947
  304.111
  303.342
  303.281
  303.302
  303.33
  303.358
  303.383
  303.404
  303.417
  303.418
  303.398
  303.355
  303.291
  303.216
  303.149
  303.105
  303.088
  303.095
  303.101
  303.111
  303.117
  303.121
  303.123
  303.125
  303.133
  303.149
  303.17
  303.189
  303.205
  303.215
  303.221
  303.224
  303.222
  303.143
  303.073
  303.008
  302.948
  304.303
  303.416
  303.31
  303.327
  303.363
  303.401
  303.439
  303.473
  303.498
  303.504
  303.485
  303.431
  303.347
  303.248
  303.16
  303.104
  303.085
  303.093
  303.107
  303.122
  303.133
  303.14
  303.147
  303.156
  303.173
  303.193
  303.212
  303.227
  303.237
  303.242
  303.243
  303.241
  303.232
  303.192
  303.124
  303.047
  302.97
  303.041
  303.091
  303.104
  304.47
  303.511
  303.359
  303.347
  303.379
  303.419
  303.462
  303.505
  303.543
  303.563
  303.545
  303.483
  303.383
  303.265
  303.162
  303.099
  303.081
  303.094
  303.117
  303.138
  303.152
  303.164
  303.176
  303.19
  303.208
  303.227
  303.241
  303.251
  303.255
  303.256
  303.254
  303.249
  303.238
  303.211
  303.16
  303.09
  303.022
  303.027
  303.038
  303.068
  304.6
  303.669
  303.501
  303.425
  303.417
  303.438
  303.472
  303.511
  303.561
  303.591
  303.569
  303.496
  303.386
  303.259
  303.152
  303.089
  303.075
  303.096
  303.129
  303.157
  303.176
  303.191
  303.206
  303.222
  303.238
  303.251
  303.259
  303.264
  303.265
  303.263
  303.258
  303.251
  303.239
  303.218
  303.181
  303.129
  303.082
  303.07
  303.068
  303.087
  304.815
  304.123
  303.928
  303.755
  303.641
  303.584
  303.57
  303.582
  303.619
  303.621
  303.569
  303.472
  303.347
  303.215
  303.114
  303.065
  303.067
  303.103
  303.148
  303.179
  303.199
  303.216
  303.232
  303.246
  303.257
  303.265
  303.269
  303.27
  303.269
  303.265
  303.26
  303.253
  303.242
  303.225
  303.197
  303.166
  303.146
  303.15
  303.153
  303.257
  305.115
  304.815
  304.548
  304.299
  304.095
  303.947
  303.851
  303.795
  303.739
  303.639
  303.513
  303.377
  303.241
  303.117
  303.045
  303.031
  303.063
  303.121
  303.172
  303.199
  303.219
  303.236
  303.25
  303.261
  303.268
  303.273
  303.275
  303.275
  303.273
  303.271
  303.268
  303.266
  303.266
  303.267
  303.273
  303.288
  303.312
  303.337
  303.354
  303.403
  297.925
  300.921
  302.358
  302.895
  303.113
  303.193
  303.202
  303.188
  303.149
  303.093
  303.026
  302.963
  302.965
  303.011
  303.082
  303.159
  303.194
  303.217
  303.234
  303.248
  303.259
  303.268
  303.273
  303.277
  303.279
  303.28
  303.28
  303.281
  303.281
  303.282
  303.284
  303.289
  303.297
  303.31
  303.327
  303.343
  303.355
  303.375
  298.414
  300.872
  301.852
  302.377
  302.649
  302.775
  302.822
  302.844
  302.854
  302.852
  302.841
  302.843
  302.949
  303.055
  303.153
  303.192
  303.213
  303.228
  303.241
  303.251
  303.261
  303.268
  303.274
  303.278
  303.281
  303.283
  303.284
  303.285
  303.287
  303.288
  303.29
  303.294
  303.3
  303.309
  303.321
  303.332
  303.329
  303.357
  299.958
  299.895
  299.891
  301.407
  301.988
  302.359
  302.548
  302.626
  302.663
  302.683
  302.702
  302.72
  302.739
  302.817
  303.122
  303.185
  303.204
  303.215
  303.224
  303.233
  303.241
  303.248
  303.255
  303.26
  303.265
  303.27
  303.275
  303.28
  303.283
  303.285
  303.286
  303.288
  303.289
  303.292
  303.296
  303.303
  303.309
  303.312
  303.313
  303.348
)
;

boundaryField
{
  floor
  {
    type wallHeatTransfer;
    Tinf uniform 305.2;
    alphaWall uniform 0.24;
    value nonuniform List<scalar> 29
(
  303.371
  303.466
  303.471
  303.481
  303.492
  303.505
  303.518
  303.532
  303.546
  303.56
  303.574
  303.587
  303.6
  303.613
  303.624
  303.635
  303.646
  303.659
  303.63
  303.618
  303.618
  303.452
  303.399
  303.368
  303.371
  303.466
  303.414
  303.386
  303.348
)
;
  }
  ceiling
  {
    type wallHeatTransfer;
    Tinf uniform 303.2;
    alphaWall uniform 0.24;
    value nonuniform List<scalar> 43
(
  300.174
  300.106
  300.094
  301.512
  302.062
  302.413
  302.593
  302.668
  302.705
  302.727
  302.748
  302.767
  302.788
  302.864
  303.136
  303.188
  303.203
  303.212
  303.22
  303.227
  303.233
  303.239
  303.245
  303.249
  303.254
  303.258
  303.263
  303.267
  303.27
  303.273
  303.275
  303.277
  303.279
  303.282
  303.286
  303.293
  303.299
  303.301
  303.302
  303.332
  305.023
  304.75
  298.698
)
;
  }
  sWall
  {
    type wallHeatTransfer;
    Tinf uniform 315.2;
    alphaWall uniform 0.36;
    value uniform 301.439;
  }
  nWall
  {
    type wallHeatTransfer;
    Tinf uniform 307.2;
    alphaWall uniform 0.36;
    value nonuniform List<scalar> 6
(
  303.826
  303.766
  303.678
  303.903
  303.881
  303.937
)
;
  }
  sideWalls
  {
    type empty;
  }
  glass1
  {
    type wallHeatTransfer;
    Tinf uniform 315.2;
    alphaWall uniform 4.3;
    value nonuniform List<scalar> 9
(
  312.177
  311.48
  311.003
  310.607
  310.271
  309.973
  309.708
  309.739
  309.932
)
;
  }
  glass2
  {
    type wallHeatTransfer;
    Tinf uniform 307.2;
    alphaWall uniform 4.3;
    value nonuniform List<scalar> 2
(
  305.632
  305.759
)
;
  }
  sun
  {
    type wallHeatTransfer;
    Tinf uniform 305.2;
    alphaWall uniform 0.24;
    value nonuniform List<scalar> 14
(
  303.718
  303.465
  303.456
  303.447
  303.44
  303.434
  303.428
  303.423
  303.418
  303.412
  303.405
  303.397
  303.388
  303.379
)
;
  }
  heatsource1
  {
    type fixedGradient;
    gradient uniform 0;
  }
  heatsource2
  {
    type fixedGradient;
    gradient uniform 0;
  }
  Table_master
  {
    type zeroGradient;
  }
  Table_slave
  {
    type zeroGradient;
  }
  inlet
  {
    type fixedValue;
    value uniform 293.15;
  }
  outlet
  {
    type zeroGradient;
  }
} 	// ************************************************************************* //

