/*--------------------------------*- C++ -*----------------------------------*\
  =========                 |
  \\      /  F ield         | OpenFOAM: The Open Source CFD Toolbox
   \\    /   O peration     | Website:  https://openfoam.org
    \\  /    A nd           | Version:  6
     \\/     M anipulation  |
\*---------------------------------------------------------------------------*/
FoamFile
{
    version     2.0;
    format      ascii;
    class       surfaceScalarField;
    location    "100";
    object      phi;
}
// * * * * * * * * * * * * * * * * * * * * * * * * * * * * * * * * * * * * * //

dimensions      [1 0 -1 0 0 0 0];

internalField   nonuniform List<scalar> 
852
(
-0.00371343
0.00376443
-0.00333078
-0.000382559
-0.00219084
-0.00113987
-0.00175681
-0.000433995
-0.00216155
0.000404813
-0.00278076
0.000619283
-0.00308443
0.00030376
-0.00297192
-0.000112419
-0.00259922
-0.000372621
-0.0020967
-0.000502441
-0.00158816
-0.000508465
-0.00113045
-0.000457634
-0.000736138
-0.000394237
-0.000376962
-0.000359101
-0.000372957
-0.000496314
0.000500468
-0.000271069
-0.000225169
5.51465e-05
-0.000326145
0.000332125
-0.000276922
0.000539675
-0.000207501
0.00054718
-7.45395e-06
0.000390322
0.000156911
0.000281372
0.000109002
0.00020203
7.9389e-05
0.000148288
5.37822e-05
0.00012372
2.46043e-05
0.000124255
-5.03818e-07
0.000140078
-1.57951e-05
0.00015258
-1.24752e-05
0.00013085
2.1759e-05
0.00017275
-4.18777e-05
0.000416953
-0.00024418
0.000648412
-0.000231427
0.000653563
-0.000132546
0.00404443
0.00173707
-0.00225192
0.00280352
-0.00220609
0.00267939
-0.000309633
0.00184291
0.0012415
0.000513351
0.00194901
-0.000967215
0.00178436
-0.00202443
0.000944858
-0.00220456
-0.000192414
-0.0019584
-0.000748547
-0.0016535
-0.000813305
-0.00132451
-0.000786552
-0.000952696
-0.00076599
-0.000544624
-0.00076711
-0.000172724
-0.000744795
0.000290203
-0.000462917
0.000290218
0.000226356
0.000285265
-5.76368e-05
5.88837e-05
-0.000255879
-0.000127854
-0.00022432
-0.000308447
-4.48588e-05
-0.000386942
5.47812e-05
-0.000107082
-1.43346e-07
0.000211859
1.6984e-05
9.18972e-05
2.58998e-05
7.0496e-05
3.56597e-05
4.40424e-05
4.74468e-05
1.28328e-05
5.78566e-05
-1.0904e-05
6.59669e-05
-2.38964e-05
6.22812e-05
-8.77816e-06
-1.90339e-05
0.000103093
-2.49691e-05
-3.58894e-05
0.00020066
-0.000469707
0.000297969
-0.00032866
0.000963824
0.0060403
-0.00178822
0.00807626
-0.00428764
0.0080503
-0.00217988
0.00712837
0.000612543
0.0057398
0.00263032
0.0040508
0.00363824
0.0021737
0.00366165
0.000219324
0.00289937
-0.00120219
0.00122905
-0.00159099
-0.000359713
-0.00163636
-0.000767878
-0.00156968
-0.000853174
-0.00143084
-0.000904775
-0.00123844
-0.000959456
-0.00102021
-0.000962968
-0.000685053
-0.00079801
-0.00039477
-0.000512604
0.000812725
-0.000833191
0.000379525
-0.00101438
5.33758e-05
-0.00108208
-0.000240728
-0.00100367
-0.000465337
-0.000463471
-0.00064728
-0.000251436
-0.000159359
-8.86839e-05
-4.44659e-05
-3.14639e-05
-4.22027e-05
-6.59353e-05
-7.45461e-05
2.87373e-05
0.000222915
-0.000229926
-0.000239433
-7.27029e-06
-0.000583565
1.553e-05
0.000398631
0.00781245
-0.00935955
0.00945083
-0.00592579
0.00883094
-0.00155975
0.00773863
0.00170509
0.00637781
0.00399138
0.0047662
0.00525008
0.003027
0.00540107
0.00135015
0.00457638
-0.000244023
0.00282324
-0.00115797
0.000554233
-0.00159017
-0.000335644
-0.00181491
-0.000628377
-0.00196057
-0.00075906
-0.00208375
-0.000836218
-0.00220948
-0.000837177
-0.00230949
-0.000697944
-0.00239546
-0.00030873
-0.00233334
-4.60222e-05
-0.0019246
0.000404053
-0.00196724
0.000422224
-0.0020669
0.000153083
-0.00218031
-0.000127271
-0.00229134
-0.000354256
-0.00249396
-0.000444601
-0.00212666
-0.000367377
-0.00170799
-0.000418733
-0.00115646
-0.00055159
-0.000433607
-0.000722905
0.000416868
-0.000850498
0.00124361
-0.000826771
0.00196938
-0.000725805
0.00252499
-0.000555643
0.00280669
-0.000281729
0.00250676
7.0125e-05
0.00194067
0.000558947
0.00092155
0.00103478
0.00134046
0.00417323
-0.0132316
0.00507021
-0.00682254
0.00491599
-0.0014053
0.00459304
0.00202828
0.00401001
0.00457465
0.00313946
0.00612087
0.00208847
0.00645227
0.00100509
0.00565991
-1.78604e-05
0.00384621
-0.000895811
0.00143216
-0.00145982
0.000228401
-0.00180913
-0.000279014
-0.00206478
-0.000503354
-0.00228506
-0.000615876
-0.00248358
-0.000638601
-0.00263478
-0.000546685
-0.00262173
-0.000321725
-0.00261478
-5.29092e-05
-0.00240118
0.000190508
-0.00220293
0.000224035
-0.00211813
6.83306e-05
-0.00210318
-0.000142163
-0.00212238
-0.000334999
-0.00210755
-0.000459365
-0.0019149
-0.00055995
-0.00160781
-0.00072573
-0.00119071
-0.000968586
-0.000655303
-0.00125819
2.20401e-06
-0.00150786
0.000716486
-0.00154092
0.00136902
-0.00137821
0.00192938
-0.00111589
0.00230618
-0.000658395
0.00236643
1.00014e-05
0.00217844
0.000747065
0.0017812
0.00143217
0.00144171
0.00168011
-0.000189713
0.00163134
-0.00102582
0.000835988
-0.0009699
0.00109706
-0.0139659
0.00153063
-0.00725588
0.00201017
-0.00188461
0.00166263
0.00237606
0.00139638
0.00484114
0.00108415
0.00643333
0.000684423
0.00685221
0.000230409
0.00611407
-0.000218568
0.00429518
-0.000773947
0.00198751
-0.00122121
0.000675701
-0.00153222
3.20628e-05
-0.00175334
-0.000282172
-0.00193477
-0.000434373
-0.0020912
-0.000482113
-0.00220645
-0.000431377
-0.0022342
-0.000293913
-0.00217705
-0.000110011
-0.00202454
3.80464e-05
-0.0018649
6.44466e-05
-0.00176871
-2.78065e-05
-0.00173791
-0.000172914
-0.00174418
-0.00032867
-0.00172599
-0.000477494
-0.00163537
-0.000650488
-0.00146572
-0.000895289
-0.00120877
-0.00122542
-0.000853787
-0.00161304
-0.000405154
-0.00195634
0.000122838
-0.00206877
0.000656575
-0.00191183
0.00117484
-0.00163403
0.00164657
-0.00112999
0.00198129
-0.000324578
0.00214344
0.000585041
0.00227354
0.00130221
0.00240245
0.00155135
0.0026024
0.00143152
0.00217035
0.00126816
0.00126522
-0.000557699
-0.0129847
-0.000322172
-0.00749118
-0.00034248
-0.00186408
-0.00108354
0.00311736
-0.000982603
0.00474043
-0.000713615
0.00616457
-0.000516018
0.00665481
-0.000419067
0.00601723
-0.000438675
0.00431477
-0.00065704
0.00220586
-0.000892591
0.000911297
-0.00109216
0.000231704
-0.00124416
-0.00013008
-0.00136216
-0.000316288
-0.00145411
-0.000390093
-0.00151013
-0.000375282
-0.00151145
-0.000292532
-0.00144548
-0.000175924
-0.00132829
-7.90871e-05
-0.00121226
-5.15379e-05
-0.00114517
-9.48478e-05
-0.00113602
-0.00018201
-0.00116768
-0.000296959
-0.00120885
-0.000436261
-0.00123476
-0.000624503
-0.0012285
-0.000901444
-0.0011688
-0.001285
-0.00102873
-0.00175295
-0.000797383
-0.00218752
-0.000505058
-0.00236094
-0.000212513
-0.00220425
0.000123571
-0.00196999
0.000540485
-0.00154678
0.00103947
-0.000823427
0.001508
0.000116645
0.00192908
0.000881266
0.00243117
0.0010494
0.00302217
0.000840646
0.00299066
0.00129978
0.00432177
-0.00288947
-0.00961477
-0.00426622
-0.00611421
-0.00389372
-0.00223634
-0.00366929
0.00289315
-0.00287867
0.00395004
-0.00202003
0.00530615
-0.00129665
0.00593159
-0.00075925
0.00547993
-0.000436564
0.00399207
-0.000354697
0.00212399
-0.000401824
0.00095848
-0.000485157
0.000315128
-0.000566101
-4.90324e-05
-0.00063274
-0.000249545
-0.000683099
-0.000339634
-0.000707464
-0.000350826
-0.000692959
-0.000306954
-0.000632604
-0.000236206
-0.000539619
-0.000172007
-0.000448976
-0.000142123
-0.000392365
-0.000151405
-0.000383293
-0.000191031
-0.000424671
-0.000255527
-0.000512599
-0.000348272
-0.000644658
-0.00049237
-0.000809194
-0.000736812
-0.000977309
-0.00111676
-0.0010969
-0.0016332
-0.0011208
-0.00216343
-0.00108797
-0.00239358
-0.00116051
-0.00213159
-0.00125442
-0.00187597
-0.00122633
-0.00157474
-0.000949585
-0.00110004
-0.00041065
-0.000422135
0.000133571
0.000337183
0.000546891
0.000636197
0.000881914
0.000505731
0.00043249
0.00174931
0.00507429
-0.00908816
-0.0152024
-0.0100302
-0.00740838
-0.00611596
-0.00102083
-0.00416254
0.00199684
-0.00275037
0.00389419
-0.00160021
0.00478159
-0.000715273
0.00459507
-5.95071e-05
0.00333631
0.000261094
0.00180341
0.000359818
0.000859829
0.00036198
0.00031307
0.000326047
-1.29787e-05
0.0002796
-0.00020297
0.00023583
-0.000295737
0.000206945
-0.00032182
0.000204929
-0.000304826
0.000234882
-0.000266059
0.000288979
-0.000226015
0.000347362
-0.000200426
0.000390243
-0.000194214
0.000404363
-0.000205086
0.000378942
-0.000230045
0.000299346
-0.000268613
0.00013727
-0.000330225
-0.000137776
-0.000461677
-0.000517413
-0.000737011
-0.000912453
-0.001238
-0.00119925
-0.00187641
-0.00139141
-0.00220117
-0.00193174
-0.00159114
-0.00279081
-0.00101681
-0.00377155
-0.000593892
-0.00477529
-9.61793e-05
-0.00574193
0.000544626
-0.00671276
0.00130813
-0.00803655
0.00196008
-0.00966604
0.00213531
-0.00876138
0.000844738
-0.00333036
-0.00809792
0.00117321
-0.00609312
-0.00302542
-0.00430066
0.000204585
-0.00276642
0.00236014
-0.00140071
0.00341603
-0.000223955
0.00341841
0.000722148
0.00239024
0.00120831
0.00131732
0.00142099
0.000647245
0.00148632
0.000247871
0.00147031
3.16675e-06
0.00141396
-0.000146471
0.00134467
-0.000226299
0.00128049
-0.000257487
0.00123381
-0.000258
0.00121019
-0.00024231
0.00120648
-0.000222183
0.00121216
-0.000205995
0.00121523
-0.000197178
0.0012056
-0.000195365
0.00117395
-0.000198313
0.00110803
-0.000202611
0.000984728
-0.000206849
0.000749246
-0.000226115
0.000329585
-0.000317263
-0.000248669
-0.000659593
-0.000719315
-0.00140552
-0.00082113
-0.00209892
-0.00114117
-0.00127098
-0.00181261
-0.00034529
-0.0024146
8.17935e-06
-0.00292663
0.000415948
-0.00336651
0.000984596
-0.00359281
0.00153451
-0.00353164
0.001899
-0.00297319
0.00157693
-0.00153257
-0.000595816
-0.00477299
-0.00186409
0.00303742
-0.00349001
-0.0013993
-0.00333515
4.99191e-05
-0.00224273
0.00126791
-0.000788864
0.00196233
0.000687329
0.00194232
0.00182581
0.00125185
0.00244233
0.000700912
0.00273519
0.000354513
0.00283932
0.000143896
0.00283024
1.24028e-05
0.00275653
-7.25896e-05
0.0026527
-0.000122287
0.00254154
-0.000146146
0.00243739
-0.000153677
0.0023475
-0.000152257
0.00227261
-0.000147133
0.00220853
-0.000141761
0.0021492
-0.000137716
0.00208894
-0.000134974
0.00202277
-0.000132036
0.00194533
-0.00012506
0.00184672
-0.00010814
0.00170347
-8.27711e-05
0.00146939
-8.30951e-05
0.0010406
-0.000230723
0.000369882
-0.000734587
-0.000187222
-0.00154112
-0.000421435
-0.00103659
-0.000663535
-0.000103122
-0.000883243
0.000227949
-0.000945942
0.000478717
-0.000854208
0.000892939
-0.000407998
0.00108838
0.000393659
0.00109742
0.00144785
0.000522807
0.00157969
-0.000727598
-0.00309488
-0.00341157
-0.00485335
-0.00181581
-0.00321751
-0.00317033
-0.00190508
5.5015e-05
0.00199677
0.00324929
0.00395177
0.00430857
0.00445534
0.00447114
0.0044025
0.00428472
0.00414367
0.0039957
0.00384977
0.00370961
0.00357548
0.00344603
0.00331997
0.00319746
0.00308253
0.00298509
0.00291355
0.00284225
0.002624
0.001903
0.000378891
-0.000637601
-0.000721653
-0.00047594
1.92396e-05
0.000927048
0.00202944
0.00314048
0.00367718
0.00296424
)
;

boundaryField
{
    floor
    {
        type            calculated;
        value           nonuniform List<scalar> 
29
(
0
0
0
0
0
0
0
0
0
0
0
0
0
0
0
0
0
0
0
0
-5.12896e-06
-1.22508e-05
-1.83198e-05
-2.00785e-05
-3.93084e-06
-4.07084e-06
-1.1072e-05
-1.4779e-05
-1.60311e-05
)
;
    }
    ceiling
    {
        type            calculated;
        value           nonuniform List<scalar> 
43
(
7.92716e-07
9.62972e-08
7.17514e-08
2.60323e-06
2.94373e-06
2.86188e-06
2.43012e-06
7.0124e-07
-5.28441e-07
-1.42138e-06
-2.11526e-06
-2.69686e-06
-3.21965e-06
-3.75411e-06
-4.31147e-06
-4.8943e-06
-5.50242e-06
-6.13268e-06
-6.77934e-06
-7.43501e-06
-8.09165e-06
-8.74125e-06
-9.37575e-06
-9.98661e-06
-1.05662e-05
-1.11185e-05
-1.16869e-05
-1.2364e-05
-1.34075e-05
-1.63014e-05
-1.97148e-05
-1.90101e-05
-1.77091e-05
-1.64026e-05
-1.4799e-05
-1.39428e-05
-1.35499e-05
-1.38332e-05
-1.45936e-05
-1.50037e-05
1.73736e-06
3.18969e-07
7.94328e-08
)
;
    }
    sWall
    {
        type            calculated;
        value           uniform -0.000174489;
    }
    nWall
    {
        type            calculated;
        value           nonuniform List<scalar> 6(-5.60164e-05 -6.4661e-05 -6.57752e-05 -8.98823e-05 -9.83706e-05 -0.00011558);
    }
    sideWalls
    {
        type            empty;
        value           nonuniform 0();
    }
    glass1
    {
        type            calculated;
        value           nonuniform List<scalar> 9(-5.08271e-05 -0.000147223 -0.000207414 -0.000240921 -0.000300986 -0.000362549 -0.000423307 -0.000480228 -0.000528132);
    }
    glass2
    {
        type            calculated;
        value           nonuniform List<scalar> 2(-0.000319924 -0.00035664);
    }
    sun
    {
        type            calculated;
        value           uniform 0;
    }
    heatsource1
    {
        type            calculated;
        value           nonuniform List<scalar> 3(2.05633e-07 2.0585e-07 2.0585e-07);
    }
    heatsource2
    {
        type            calculated;
        value           nonuniform List<scalar> 4(5.15303e-08 5.15807e-08 0 0);
    }
    Table_master
    {
        type            calculated;
        value           nonuniform List<scalar> 9(-1.54709e-07 -1.54858e-07 -1.54928e-07 -1.54984e-07 -1.55026e-07 -1.55047e-07 -1.55053e-07 -1.55057e-07 -1.55024e-07);
    }
    Table_slave
    {
        type            calculated;
        value           nonuniform List<scalar> 9(1.53774e-07 1.53897e-07 1.54032e-07 1.54212e-07 1.54317e-07 1.54191e-07 1.53959e-07 1.53787e-07 1.5371e-07);
    }
    inlet
    {
        type            calculated;
        value           uniform -0.000483428;
    }
    outlet
    {
        type            calculated;
        value           nonuniform List<scalar> 2(0.00358545 0.00144187);
    }
}


// ************************************************************************* //
