/*--------------------------------*- C++ -*----------------------------------*\
  =========                 |
  \\      /  F ield         | OpenFOAM: The Open Source CFD Toolbox
   \\    /   O peration     | Website:  https://openfoam.org
    \\  /    A nd           | Version:  6
     \\/     M anipulation  |
\*---------------------------------------------------------------------------*/
FoamFile
{
    version     2.0;
    format      ascii;
    class       volScalarField;
    location    "500";
    object      epsilon;
}
// * * * * * * * * * * * * * * * * * * * * * * * * * * * * * * * * * * * * * //

dimensions      [0 2 -3 0 0 0 0];

internalField   nonuniform List<scalar> 
459
(
0.000371064
0.000474376
0.000493267
0.000563876
0.00063413
0.000703683
0.000774739
0.000851299
0.000918263
0.000959019
0.000960216
0.000913354
0.000821715
0.000705441
0.000591735
3.0288e-05
5.65919e-05
7.50274e-05
6.93357e-05
6.06426e-05
5.17598e-05
4.30819e-05
3.57626e-05
2.98952e-05
2.52273e-05
2.14938e-05
1.84923e-05
1.60541e-05
1.40319e-05
1.23058e-05
1.07616e-05
9.27994e-06
8.50662e-06
6.61644e-06
0.000982441
0.00149107
0.000448776
0.000429098
0.000444641
0.000469915
0.000506842
0.000560144
0.000620934
0.000671716
0.000693882
0.00067428
0.000611943
0.000526566
0.000477295
0.00061494
0.000172882
4.23291e-05
9.80669e-05
9.58931e-05
8.27865e-05
6.78199e-05
5.50409e-05
4.75703e-05
3.87474e-05
3.12019e-05
2.51843e-05
2.04727e-05
1.68051e-05
1.39552e-05
1.17446e-05
1.01463e-05
9.25159e-06
8.97252e-06
2.4886e-05
1.65413e-05
0.00184573
0.00383716
0.000577644
0.000410149
0.000420339
0.000459646
0.000518938
0.000600029
0.000691817
0.000767959
0.000805044
0.000791662
0.000730023
0.000638668
0.000551134
0.000504266
0.000554984
0.000358862
0.000226746
0.000157673
0.00011481
8.68428e-05
7.04296e-05
0.000121081
8.62481e-05
6.35605e-05
4.8362e-05
3.78686e-05
3.04145e-05
2.49905e-05
2.09825e-05
1.80275e-05
1.39134e-05
1.18198e-05
4.61466e-05
2.6596e-05
0.00306626
0.00814021
0.000963021
0.000418355
0.000406327
0.00045924
0.000544728
0.000668387
0.000801353
0.000897253
0.000935929
0.000914445
0.000840847
0.000733835
0.000614027
0.000520304
0.000480968
0.000860319
0.000464959
0.000266688
0.000172095
0.000120476
9.001e-05
7.59585e-05
0.000169173
0.00013274
0.000110978
9.65332e-05
8.52197e-05
7.49022e-05
6.57229e-05
5.67304e-05
4.70875e-05
2.86019e-05
1.90603e-05
7.41134e-05
3.65421e-05
0.00477595
0.0146245
0.00198226
0.00050897
0.000411193
0.000466074
0.000592076
0.000810913
0.000995932
0.00109486
0.00111622
0.00106927
0.000968146
0.000828486
0.000670951
0.00052024
0.000395658
0.000324174
0.000245707
0.000181608
0.000134445
0.000101923
8.05536e-05
6.84121e-05
6.7714e-05
6.53333e-05
6.2816e-05
5.99767e-05
5.62542e-05
5.13658e-05
4.62713e-05
4.14213e-05
3.69995e-05
3.03049e-05
2.36675e-05
5.30399e-05
4.15778e-05
7.16058e-05
0.000125892
0.000176601
0.00717163
0.0217079
0.00455593
0.00101856
0.000613501
0.000608164
0.000813959
0.00117828
0.00135542
0.00140361
0.00137323
0.0012842
0.00114324
0.00095921
0.000752928
0.000553318
0.000388307
0.000275118
0.000202217
0.000151068
0.000113825
8.87805e-05
7.37234e-05
6.65289e-05
6.55291e-05
6.71522e-05
6.90305e-05
6.98352e-05
6.84909e-05
6.39948e-05
5.61783e-05
4.78358e-05
4.02276e-05
3.35496e-05
2.92834e-05
3.9885e-05
4.21644e-05
5.3353e-05
0.000232576
0.000199575
0.0100285
0.0259131
0.00958224
0.00351274
0.00210775
0.00170839
0.00190131
0.00201405
0.00198259
0.00188
0.00174438
0.00157678
0.00136753
0.00111809
0.000850278
0.00059797
0.000394256
0.000257166
0.00017494
0.000125882
9.53826e-05
7.80275e-05
7.02723e-05
6.93596e-05
7.31237e-05
7.91325e-05
8.55335e-05
9.1326e-05
9.53966e-05
9.58992e-05
8.94094e-05
7.78827e-05
6.66255e-05
5.73001e-05
5.34411e-05
5.99549e-05
7.64399e-05
0.000123602
0.00029541
0.000283558
0.0107103
0.028865
0.0158028
0.0104605
0.00729162
0.00544421
0.00428477
0.00346986
0.00291412
0.00252746
0.00222495
0.00193772
0.00162474
0.00127921
0.000929009
0.000613394
0.000368768
0.000217143
0.000134276
9.74173e-05
7.93301e-05
7.18201e-05
7.12394e-05
7.54215e-05
8.29558e-05
9.27649e-05
0.000104267
0.000117423
0.000132326
0.00014875
0.000165458
0.00017393
0.000180136
0.000196965
0.000233895
0.000350364
0.000652024
0.0012572
0.00379437
0.00111912
0.00992453
0.0168027
0.0134961
0.0102079
0.00777272
0.00605782
0.00486867
0.00407079
0.00352602
0.00310996
0.00272392
0.00230809
0.00184598
0.00135648
0.000900097
0.000520984
0.000257031
0.000145898
9.73555e-05
7.65428e-05
6.83977e-05
6.73257e-05
7.07336e-05
7.73337e-05
8.656e-05
9.82867e-05
0.000112825
0.000130978
0.000154057
0.000183949
0.000223206
0.000275259
0.000346225
0.000454636
0.0006161
0.000837587
0.00109337
0.00131806
0.00148829
0.000927982
0.00427904
0.00647239
0.00639258
0.00594913
0.00547552
0.00493619
0.00434731
0.00371303
0.00303625
0.00233665
0.00164894
0.000975875
0.000489199
0.000242646
0.00012838
8.32998e-05
6.52505e-05
5.84815e-05
5.71457e-05
5.89294e-05
6.28288e-05
6.84504e-05
7.57676e-05
8.50213e-05
9.67353e-05
0.000111782
0.000131495
0.000157864
0.000193866
0.000244325
0.000314256
0.000410869
0.000538053
0.000684692
0.000812367
0.000868272
0.000821662
0.000523872
0.00306087
0.00631676
0.00648338
0.00541172
0.00477717
0.00429524
0.0036566
0.0028095
0.00198242
0.0012813
0.000753615
0.000402142
0.000211999
0.000121143
8.27597e-05
6.86404e-05
6.40822e-05
6.33175e-05
6.42788e-05
6.64343e-05
6.97532e-05
7.42684e-05
8.01675e-05
8.77788e-05
9.76155e-05
0.000110473
0.000127582
0.000150815
0.000182915
0.00022731
0.000288677
0.000371818
0.000477545
0.000597765
0.000689269
0.000787029
0.00074752
0.000551139
0.00203997
0.00241874
0.00271985
0.00323921
0.0027787
0.0023102
0.00195172
0.00163212
0.00135554
0.00108017
0.000803197
0.000547286
0.000346315
0.000211087
0.000132861
9.18882e-05
7.16807e-05
6.21821e-05
5.83979e-05
5.79696e-05
5.97909e-05
6.3332e-05
6.81643e-05
7.43639e-05
8.21137e-05
9.16887e-05
0.000103476
0.00011803
0.000136192
0.000159337
0.000188765
0.000225329
0.000271157
0.000328997
0.000401648
0.000501968
0.000540093
0.000502401
0.000414508
0.000333414
)
;

boundaryField
{
    floor
    {
        Cmu             0.09;
        kappa           0.41;
        E               9.8;
        type            epsilonWallFunction;
        value           nonuniform List<scalar> 
29
(
0.000591735
3.0288e-05
5.65919e-05
7.50274e-05
6.93357e-05
6.06426e-05
5.17598e-05
4.30819e-05
3.57626e-05
2.98952e-05
2.52273e-05
2.14938e-05
1.84923e-05
1.60541e-05
1.40319e-05
1.23058e-05
1.07616e-05
9.27994e-06
8.50662e-06
6.61644e-06
6.61644e-06
1.65413e-05
2.6596e-05
3.65421e-05
0.000591735
3.0288e-05
4.23291e-05
0.000358862
0.000860319
)
;
    }
    ceiling
    {
        Cmu             0.09;
        kappa           0.41;
        E               9.8;
        type            epsilonWallFunction;
        value           nonuniform List<scalar> 
43
(
0.00203997
0.00241874
0.00271985
0.00323921
0.0027787
0.0023102
0.00195172
0.00163212
0.00135554
0.00108017
0.000803197
0.000547286
0.000346315
0.000211087
0.000132861
9.18882e-05
7.16807e-05
6.21821e-05
5.83979e-05
5.79696e-05
5.97909e-05
6.3332e-05
6.81643e-05
7.43639e-05
8.21137e-05
9.16887e-05
0.000103476
0.00011803
0.000136192
0.000159337
0.000188765
0.000225329
0.000271157
0.000328997
0.000401648
0.000501968
0.000540093
0.000502401
0.000414508
0.000333414
0.00992453
0.0168027
0.00306087
)
;
    }
    sWall
    {
        Cmu             0.09;
        kappa           0.41;
        E               9.8;
        type            epsilonWallFunction;
        value           uniform 0.00203997;
    }
    nWall
    {
        Cmu             0.09;
        kappa           0.41;
        E               9.8;
        type            epsilonWallFunction;
        value           nonuniform List<scalar> 6(0.000176601 0.000199575 0.000283558 0.000523872 0.000551139 0.000333414);
    }
    sideWalls
    {
        type            empty;
    }
    glass1
    {
        Cmu             0.09;
        kappa           0.41;
        E               9.8;
        type            epsilonWallFunction;
        value           nonuniform List<scalar> 9(0.000371064 0.000982441 0.00184573 0.00306626 0.00477595 0.00717163 0.0100285 0.0107103 0.00992453);
    }
    glass2
    {
        Cmu             0.09;
        kappa           0.41;
        E               9.8;
        type            epsilonWallFunction;
        value           nonuniform List<scalar> 2(0.00111912 0.000927982);
    }
    sun
    {
        Cmu             0.09;
        kappa           0.41;
        E               9.8;
        type            epsilonWallFunction;
        value           nonuniform List<scalar> 
14
(
0.000371064
0.000474376
0.000493267
0.000563876
0.00063413
0.000703683
0.000774739
0.000851299
0.000918263
0.000959019
0.000960216
0.000913354
0.000821715
0.000705441
)
;
    }
    heatsource1
    {
        Cmu             0.09;
        kappa           0.41;
        E               9.8;
        type            epsilonWallFunction;
        value           nonuniform List<scalar> 3(7.16058e-05 0.000125892 0.000176601);
    }
    heatsource2
    {
        Cmu             0.09;
        kappa           0.41;
        E               9.8;
        type            epsilonWallFunction;
        value           nonuniform List<scalar> 4(0.00061494 0.000172882 0.000172882 0.000554984);
    }
    Table_master
    {
        Cmu             0.09;
        kappa           0.41;
        E               9.8;
        type            epsilonWallFunction;
        value           nonuniform List<scalar> 9(0.000121081 8.62481e-05 6.35605e-05 4.8362e-05 3.78686e-05 3.04145e-05 2.49905e-05 2.09825e-05 1.80275e-05);
    }
    Table_slave
    {
        Cmu             0.09;
        kappa           0.41;
        E               9.8;
        type            epsilonWallFunction;
        value           nonuniform List<scalar> 9(0.000169173 0.00013274 0.000110978 9.65332e-05 8.52197e-05 7.49022e-05 6.57229e-05 5.67304e-05 4.70875e-05);
    }
    inlet
    {
        type            turbulentMixingLengthDissipationRateInlet;
        mixingLength    0.01;
        phi             phi;
        k               k;
        value           uniform 0.000101881;
    }
    outlet
    {
        type            zeroGradient;
    }
}


// ************************************************************************* //
