/*--------------------------------*- C++ -*----------------------------------*\
  =========                 |
  \\      /  F ield         | OpenFOAM: The Open Source CFD Toolbox
   \\    /   O peration     | Website:  https://openfoam.org
    \\  /    A nd           | Version:  6
     \\/     M anipulation  |
\*---------------------------------------------------------------------------*/
FoamFile
{
    version     2.0;
    format      ascii;
    class       volScalarField;
    location    "100";
    object      epsilon;
}
// * * * * * * * * * * * * * * * * * * * * * * * * * * * * * * * * * * * * * //

dimensions      [0 2 -3 0 0 0 0];

internalField   nonuniform List<scalar> 
459
(
0.0011287
0.00160127
0.00184212
0.002246
0.0027778
0.00325799
0.00356358
0.00344856
0.00297392
0.00249298
0.00203317
0.00160524
0.00127423
0.000980692
0.000702781
0.000125188
0.000204452
0.00032925
0.000444818
0.000484897
0.000457302
0.000375423
0.000299228
0.000240633
0.000196711
0.000163498
0.000138037
0.000118129
0.000102243
8.92218e-05
7.79191e-05
6.7206e-05
5.59692e-05
4.20455e-05
0.0023344
0.0027786
0.0014844
0.0015911
0.00195021
0.00230498
0.00249288
0.00239916
0.00204651
0.00166748
0.00133589
0.00107663
0.000901504
0.000769909
0.000629955
0.000875397
0.000552052
0.000116599
0.000155294
0.00027196
0.000327074
0.000346259
0.000347146
0.000369705
0.000301437
0.000235376
0.000183771
0.000145134
0.000116465
9.49988e-05
7.86247e-05
6.60873e-05
5.8222e-05
5.45821e-05
5.6475e-05
5.13078e-05
0.00383269
0.0055215
0.00185302
0.00177247
0.00219278
0.0024651
0.00251802
0.00241123
0.0020956
0.001693
0.00132638
0.00104511
0.000844427
0.000700148
0.000581515
0.000583793
0.000697807
0.00012252
0.000242498
0.000306764
0.000351058
0.000368758
0.000394236
0.000903406
0.00058635
0.000392424
0.000272652
0.000196659
0.000146966
0.000113555
9.11803e-05
7.77748e-05
5.9222e-05
5.04907e-05
5.60838e-05
5.47445e-05
0.00576519
0.0103661
0.00290137
0.0023294
0.00275955
0.00280477
0.00271983
0.00259252
0.00225645
0.00178688
0.00135357
0.00103062
0.000807586
0.000655213
0.0005486
0.000507538
0.000548525
0.00082169
0.000553962
0.0004614
0.000443581
0.00044822
0.000446831
0.000476137
0.00135163
0.0010224
0.000804147
0.000645848
0.000519509
0.000412891
0.00032033
0.000238876
0.000165136
8.14912e-05
5.10923e-05
5.4691e-05
5.67098e-05
0.00824738
0.0173741
0.00529555
0.0037018
0.00374583
0.00336587
0.00316555
0.00297509
0.00254237
0.00193719
0.00138643
0.000996536
0.000750087
0.000604144
0.000522659
0.000495582
0.000548909
0.000666958
0.000634838
0.000616754
0.000616166
0.000605189
0.000571676
0.000530884
0.000545158
0.000517262
0.000481877
0.000437993
0.000383774
0.000322095
0.000256885
0.000192384
0.000130598
7.37764e-05
4.74667e-05
4.81927e-05
5.08089e-05
5.28159e-05
5.6812e-05
5.8862e-05
0.0113235
0.0250191
0.0103479
0.0064453
0.00505133
0.00421398
0.00384597
0.00354143
0.00294017
0.00211925
0.00139916
0.000928326
0.000673233
0.000560156
0.000525818
0.000549318
0.000640397
0.000743632
0.000802565
0.000831026
0.000821632
0.000770652
0.000689396
0.000598746
0.000526387
0.000470046
0.000422659
0.000372982
0.000317468
0.000258233
0.000199039
0.00014447
9.75001e-05
6.0944e-05
4.61179e-05
4.60596e-05
4.8632e-05
5.79852e-05
0.000254327
0.000158224
0.0135722
0.0290597
0.0165525
0.00966626
0.00661216
0.00526862
0.00472259
0.0042696
0.00340833
0.00226928
0.00134158
0.00081698
0.000612666
0.000564498
0.000587571
0.000662007
0.000784583
0.000907342
0.000983896
0.000990432
0.000934537
0.000833984
0.00071118
0.000588385
0.000483594
0.000408739
0.000351911
0.000298022
0.000244147
0.000192528
0.000146456
0.000108788
8.02899e-05
6.00964e-05
5.64481e-05
6.04143e-05
6.67118e-05
9.09795e-05
0.000338986
0.000244948
0.0135518
0.0256073
0.0161575
0.0105984
0.0076284
0.00629626
0.00572272
0.00509232
0.00381211
0.00221131
0.00113112
0.000750559
0.000644327
0.000645384
0.000701652
0.000797781
0.000922542
0.00102358
0.00105598
0.00101119
0.000900848
0.00076045
0.000618156
0.000495008
0.00040126
0.000332511
0.000277208
0.000227727
0.000183081
0.000145263
0.000116651
9.8902e-05
9.24742e-05
9.81789e-05
0.000119593
0.000156409
0.000246441
0.000498026
0.00308612
0.000397847
0.0120892
0.0175773
0.0133776
0.00972004
0.00774675
0.00707894
0.00668012
0.00570636
0.00359733
0.00169656
0.00099035
0.000781283
0.000740245
0.000766745
0.000827511
0.00090537
0.000979168
0.001012
0.000980761
0.00089234
0.000769184
0.000639345
0.000522047
0.000426248
0.000352164
0.000293677
0.000244194
0.000200475
0.000162754
0.00013334
0.000116221
0.000117789
0.000146701
0.000209815
0.000308726
0.000445676
0.00063825
0.000875183
0.00110207
0.000475949
0.00122108
0.0039519
0.0066048
0.00737369
0.00600756
0.00351582
0.00192542
0.0012125
0.000959489
0.00088874
0.000889159
0.000918832
0.00095813
0.000991754
0.00100293
0.000976
0.000910072
0.000819606
0.000723327
0.000635657
0.000562799
0.000504673
0.000457729
0.000417245
0.00037943
0.000342076
0.000304371
0.000267055
0.000233423
0.000210273
0.000207128
0.000233671
0.00029816
0.000405702
0.000551434
0.00070156
0.000761364
0.000588729
0.00524492
0.0150434
0.0102576
0.00618742
0.00348711
0.00207828
0.00144758
0.00119153
0.00110695
0.00109234
0.00110567
0.00112981
0.00115579
0.00117636
0.00118444
0.00117471
0.00114693
0.0011065
0.00106072
0.00101598
0.000976245
0.000943275
0.000917183
0.000896804
0.00087972
0.000862324
0.000840106
0.000808474
0.000764546
0.000709123
0.00064675
0.000584
0.000530901
0.000502383
0.000502212
0.00055246
0.000917884
0.000788474
0.00276029
0.0034629
0.00413987
0.00500586
0.00357804
0.00281929
0.00228652
0.00189669
0.001665
0.001547
0.00149752
0.00148621
0.00149271
0.00150161
0.00150017
0.00147809
0.0014292
0.00135424
0.00126205
0.00116534
0.00107516
0.000997559
0.000933632
0.000881381
0.000837541
0.000798777
0.000762266
0.000725808
0.000687869
0.000647822
0.000606256
0.000565007
0.000526844
0.000494921
0.00047169
0.000456496
0.000440842
0.000426478
0.000442825
0.000439555
)
;

boundaryField
{
    floor
    {
        Cmu             0.09;
        kappa           0.41;
        E               9.8;
        type            epsilonWallFunction;
        value           nonuniform List<scalar> 
29
(
0.000702781
0.000125188
0.000204452
0.00032925
0.000444818
0.000484897
0.000457302
0.000375423
0.000299228
0.000240633
0.000196711
0.000163498
0.000138037
0.000118129
0.000102243
8.92218e-05
7.79191e-05
6.7206e-05
5.59692e-05
4.20455e-05
4.20455e-05
5.13078e-05
5.47445e-05
5.67098e-05
0.000702781
0.000125188
0.000116599
0.00012252
0.00082169
)
;
    }
    ceiling
    {
        Cmu             0.09;
        kappa           0.41;
        E               9.8;
        type            epsilonWallFunction;
        value           nonuniform List<scalar> 
43
(
0.00276029
0.0034629
0.00413987
0.00500586
0.00357804
0.00281929
0.00228652
0.00189669
0.001665
0.001547
0.00149752
0.00148621
0.00149271
0.00150161
0.00150017
0.00147809
0.0014292
0.00135424
0.00126205
0.00116534
0.00107516
0.000997559
0.000933632
0.000881381
0.000837541
0.000798777
0.000762266
0.000725808
0.000687869
0.000647822
0.000606256
0.000565007
0.000526844
0.000494921
0.00047169
0.000456496
0.000440842
0.000426478
0.000442825
0.000439555
0.0120892
0.0175773
0.00524492
)
;
    }
    sWall
    {
        Cmu             0.09;
        kappa           0.41;
        E               9.8;
        type            epsilonWallFunction;
        value           uniform 0.00276029;
    }
    nWall
    {
        Cmu             0.09;
        kappa           0.41;
        E               9.8;
        type            epsilonWallFunction;
        value           nonuniform List<scalar> 6(5.8862e-05 0.000158224 0.000244948 0.000588729 0.000788474 0.000439555);
    }
    sideWalls
    {
        type            empty;
    }
    glass1
    {
        Cmu             0.09;
        kappa           0.41;
        E               9.8;
        type            epsilonWallFunction;
        value           nonuniform List<scalar> 9(0.0011287 0.0023344 0.00383269 0.00576519 0.00824738 0.0113235 0.0135722 0.0135518 0.0120892);
    }
    glass2
    {
        Cmu             0.09;
        kappa           0.41;
        E               9.8;
        type            epsilonWallFunction;
        value           nonuniform List<scalar> 2(0.000397847 0.000475949);
    }
    sun
    {
        Cmu             0.09;
        kappa           0.41;
        E               9.8;
        type            epsilonWallFunction;
        value           nonuniform List<scalar> 
14
(
0.0011287
0.00160127
0.00184212
0.002246
0.0027778
0.00325799
0.00356358
0.00344856
0.00297392
0.00249298
0.00203317
0.00160524
0.00127423
0.000980692
)
;
    }
    heatsource1
    {
        Cmu             0.09;
        kappa           0.41;
        E               9.8;
        type            epsilonWallFunction;
        value           nonuniform List<scalar> 3(5.28159e-05 5.6812e-05 5.8862e-05);
    }
    heatsource2
    {
        Cmu             0.09;
        kappa           0.41;
        E               9.8;
        type            epsilonWallFunction;
        value           nonuniform List<scalar> 4(0.000875397 0.000552052 0.000552052 0.000697807);
    }
    Table_master
    {
        Cmu             0.09;
        kappa           0.41;
        E               9.8;
        type            epsilonWallFunction;
        value           nonuniform List<scalar> 9(0.000903406 0.00058635 0.000392424 0.000272652 0.000196659 0.000146966 0.000113555 9.11803e-05 7.77748e-05);
    }
    Table_slave
    {
        Cmu             0.09;
        kappa           0.41;
        E               9.8;
        type            epsilonWallFunction;
        value           nonuniform List<scalar> 9(0.00135163 0.0010224 0.000804147 0.000645848 0.000519509 0.000412891 0.00032033 0.000238876 0.000165136);
    }
    inlet
    {
        type            turbulentMixingLengthDissipationRateInlet;
        mixingLength    0.01;
        phi             phi;
        k               k;
        value           uniform 0.000101881;
    }
    outlet
    {
        type            zeroGradient;
    }
}


// ************************************************************************* //
