// -*- C++ -*-
// File generated by PyFoam - sorry for the ugliness

FoamFile
{
 version 2.0;
 format ascii;
 class volVectorField;
 location "600";
 object U;
}

dimensions [ 0 1 -1 0 0 0 0 ];

internalField nonuniform List<vector> 459
(
  (0.0336039 0.0852753 0)
  (-0.165722 0.0254801 0)
  (-0.189983 0.0178312 0)
  (-0.220559 0.0124316 0)
  (-0.243037 0.00651963 0)
  (-0.256621 0.000320503 0)
  (-0.260029 -0.00622986 0)
  (-0.251934 -0.0131432 0)
  (-0.232922 -0.0200302 0)
  (-0.204263 -0.0258662 0)
  (-0.168785 -0.0298056 0)
  (-0.129798 -0.0315577 0)
  (-0.0904919 -0.0316729 0)
  (-0.0557147 -0.0318705 0)
  (-0.0395539 -0.0338791 0)
  (-0.00162482 0.0071834 0)
  (-0.0215248 -0.0176948 0)
  (0.0024799 -0.0261371 0)
  (0.0229793 -0.0192168 0)
  (0.0385505 -0.0128285 0)
  (0.0498904 -0.00815238 0)
  (0.056498 -0.00489884 0)
  (0.0597554 -0.00320546 0)
  (0.0612306 -0.00246624 0)
  (0.0620052 -0.00210445 0)
  (0.0624886 -0.00187062 0)
  (0.0627289 -0.00168036 0)
  (0.0626624 -0.00144381 0)
  (0.0620788 -0.000990196 0)
  (0.06041 6.31881e-05 0)
  (0.0564553 0.00225711 0)
  (0.0489003 0.00462355 0)
  (0.0412335 0.00660881 0)
  (-0.0110499 0.0202775 0)
  (0.20631 0.174263 0)
  (-0.154209 0.0666747 0)
  (-0.152109 0.0519822 0)
  (-0.183335 0.0407543 0)
  (-0.205261 0.0282018 0)
  (-0.218777 0.0143267 0)
  (-0.222608 -0.00115944 0)
  (-0.215197 -0.0179312 0)
  (-0.197639 -0.0340028 0)
  (-0.171575 -0.0468941 0)
  (-0.140091 -0.0547679 0)
  (-0.106575 -0.0570398 0)
  (-0.0742783 -0.0543633 0)
  (-0.0470726 -0.0483369 0)
  (-0.0297849 -0.0400211 0)
  (-0.0159392 -0.0199607 0)
  (-0.0076573 0.0117004 0)
  (0.0615507 0.0305735 0)
  (0.0324258 -0.0198597 0)
  (0.0391189 -0.0302708 0)
  (0.0497825 -0.025438 0)
  (0.0580712 -0.0173317 0)
  (0.0634465 -0.0100045 0)
  (0.0655134 -0.00407415 0)
  (0.0657767 -0.000812896 0)
  (0.0656802 0.000591897 0)
  (0.0657548 0.00125342 0)
  (0.0659088 0.00167358 0)
  (0.066018 0.00204182 0)
  (0.0660399 0.00252213 0)
  (0.0659225 0.00345488 0)
  (0.0651311 0.00574589 0)
  (0.0612399 0.0120706 0)
  (0.0514597 0.0174307 0)
  (0.045282 0.0211508 0)
  (-0.0446033 0.0438565 0)
  (0.364493 0.26042 0)
  (-0.170298 0.105827 0)
  (-0.113628 0.0836804 0)
  (-0.143436 0.0636452 0)
  (-0.162477 0.0430407 0)
  (-0.174594 0.0206 0)
  (-0.177761 -0.00451916 0)
  (-0.169487 -0.0313271 0)
  (-0.151865 -0.0562966 0)
  (-0.127312 -0.0753476 0)
  (-0.0992207 -0.0859682 0)
  (-0.0706402 -0.0878085 0)
  (-0.0439335 -0.0819825 0)
  (-0.0213418 -0.0699768 0)
  (-0.00497801 -0.0529679 0)
  (0.00795568 -0.0271381 0)
  (0.0149966 0.00691957 0)
  (0.105528 -0.0409732 0)
  (0.0725709 -0.0437406 0)
  (0.0686661 -0.0393351 0)
  (0.0709254 -0.0311744 0)
  (0.0724902 -0.0219084 0)
  (0.073246 -0.0141774 0)
  (0.0714716 -0.0115991 0)
  (0.067623 -0.00834446 0)
  (0.0650014 -0.00658376 0)
  (0.0638256 -0.00558213 0)
  (0.0633197 -0.00494964 0)
  (0.0630867 -0.00450819 0)
  (0.0631677 -0.00406839 0)
  (0.064032 -0.00327567 0)
  (0.06689 -0.000160768 0)
  (0.0648497 0.0170623 0)
  (0.0515375 0.0292484 0)
  (0.0511175 0.0377751 0)
  (-0.0740336 0.0689382 0)
  (0.506687 0.329529 0)
  (-0.203985 0.1404 0)
  (-0.0735058 0.110175 0)
  (-0.101136 0.082563 0)
  (-0.114297 0.0561837 0)
  (-0.122455 0.0269381 0)
  (-0.122158 -0.00738342 0)
  (-0.110615 -0.0446221 0)
  (-0.0920226 -0.0778255 0)
  (-0.0696477 -0.101536 0)
  (-0.0466235 -0.11337 0)
  (-0.025006 -0.113962 0)
  (-0.00567268 -0.105207 0)
  (0.0110429 -0.0885236 0)
  (0.0245382 -0.0670146 0)
  (0.0389317 -0.0411613 0)
  (0.0611953 -0.015102 0)
  (0.0916009 -0.00165211 0)
  (0.0996623 -0.034069 0)
  (0.0861884 -0.0386657 0)
  (0.077828 -0.0339833 0)
  (0.0739392 -0.0274692 0)
  (0.0714984 -0.0199786 0)
  (0.0705041 -0.0113687 0)
  (0.0724503 -0.0067047 0)
  (0.0766031 -0.0053861 0)
  (0.0800644 -0.00464324 0)
  (0.0824784 -0.00404197 0)
  (0.0839939 -0.00323162 0)
  (0.0840284 -0.00196894 0)
  (0.0815001 -3.97161e-05 0)
  (0.0751818 0.00283463 0)
  (0.0623022 0.00718127 0)
  (0.0513338 0.0274656 0)
  (0.0406093 0.0442821 0)
  (0.0540832 0.0577629 0)
  (-0.10456 0.0917866 0)
  (0.628682 0.383005 0)
  (-0.244939 0.168635 0)
  (-0.034537 0.12479 0)
  (-0.0572317 0.0927451 0)
  (-0.0619838 0.063188 0)
  (-0.0631054 0.029396 0)
  (-0.0535672 -0.0131208 0)
  (-0.0362929 -0.0597753 0)
  (-0.0175407 -0.0979776 0)
  (0.000168681 -0.122777 0)
  (0.0150585 -0.132762 0)
  (0.026679 -0.130361 0)
  (0.035685 -0.118838 0)
  (0.0427396 -0.100664 0)
  (0.0489312 -0.0785128 0)
  (0.0562533 -0.0549887 0)
  (0.0672746 -0.0354911 0)
  (0.0777647 -0.0300934 0)
  (0.0795094 -0.035562 0)
  (0.0730883 -0.0339806 0)
  (0.0652472 -0.0287132 0)
  (0.0593808 -0.0229524 0)
  (0.0553579 -0.0171294 0)
  (0.0533712 -0.0112635 0)
  (0.053725 -0.00630712 0)
  (0.0560439 -0.00406443 0)
  (0.0585899 -0.00325033 0)
  (0.0610627 -0.00252522 0)
  (0.0633405 -0.000974235 0)
  (0.0650321 0.00194893 0)
  (0.0649441 0.00634041 0)
  (0.0625025 0.0123461 0)
  (0.0570341 0.0206138 0)
  (0.050396 0.0360666 0)
  (0.0412655 0.0546272 0)
  (0.0623001 0.0751408 0)
  (-0.0174149 0.104211 0)
  (0.045247 0.0336572 0)
  (-0.0615595 -0.0345644 0)
  (-0.269208 -0.0568478 0)
  (0.716223 0.427578 0)
  (-0.28429 0.187538 0)
  (-0.00559361 0.119639 0)
  (-0.0120782 0.0918602 0)
  (-0.00530717 0.0633632 0)
  (0.00411607 0.0235485 0)
  (0.0311 -0.0292823 0)
  (0.0521955 -0.0780664 0)
  (0.0673529 -0.113614 0)
  (0.0763615 -0.134037 0)
  (0.079874 -0.140335 0)
  (0.0792657 -0.135078 0)
  (0.0759174 -0.121336 0)
  (0.0712022 -0.102071 0)
  (0.066584 -0.0802064 0)
  (0.0634434 -0.0584462 0)
  (0.0627028 -0.0404878 0)
  (0.0621517 -0.0308539 0)
  (0.0581333 -0.0280953 0)
  (0.0505729 -0.0255768 0)
  (0.0424461 -0.0216806 0)
  (0.0360365 -0.0175346 0)
  (0.0317476 -0.0136065 0)
  (0.0297212 -0.0099478 0)
  (0.0298875 -0.00720696 0)
  (0.0317448 -0.00634255 0)
  (0.0343816 -0.00634085 0)
  (0.0374677 -0.00602271 0)
  (0.0408381 -0.00443668 0)
  (0.044257 -0.000734998 0)
  (0.0472579 0.0053414 0)
  (0.0487752 0.0134404 0)
  (0.0490465 0.0237634 0)
  (0.04951 0.0381051 0)
  (0.0487052 0.056091 0)
  (0.0707124 0.0789949 0)
  (0.0523144 0.0974657 0)
  (0.0915418 0.0683555 0)
  (0.114625 0.0445777 0)
  (-0.128631 -0.00756968 0)
  (0.768557 0.468235 0)
  (-0.30287 0.173051 0)
  (0.0217326 0.0677001 0)
  (0.0486576 0.0637224 0)
  (0.0686708 0.0460865 0)
  (0.0986527 0.00105899 0)
  (0.131054 -0.0528039 0)
  (0.15018 -0.0949804 0)
  (0.157081 -0.122119 0)
  (0.153732 -0.134885 0)
  (0.142661 -0.135286 0)
  (0.126669 -0.126106 0)
  (0.108299 -0.11028 0)
  (0.0897139 -0.0907238 0)
  (0.0726765 -0.0700662 0)
  (0.0583335 -0.0504342 0)
  (0.0472367 -0.0344473 0)
  (0.0383796 -0.0244974 0)
  (0.0298134 -0.0198093 0)
  (0.021193 -0.0171441 0)
  (0.013539 -0.0146597 0)
  (0.00782026 -0.0124158 0)
  (0.00420228 -0.010561 0)
  (0.00264259 -0.00909387 0)
  (0.00293419 -0.00835694 0)
  (0.00455215 -0.0086746 0)
  (0.00689298 -0.00938554 0)
  (0.00975399 -0.00963947 0)
  (0.0131936 -0.00859064 0)
  (0.0173422 -0.00524146 0)
  (0.023152 0.00137393 0)
  (0.0288694 0.0102809 0)
  (0.0342658 0.0207295 0)
  (0.0412042 0.0334071 0)
  (0.0489517 0.0481037 0)
  (0.0707583 0.0665727 0)
  (0.0842548 0.0748934 0)
  (0.116111 0.0527348 0)
  (0.155686 0.0440207 0)
  (-0.0363408 0.0926615 0)
  (0.873176 0.469867 0)
  (-0.065426 0.151882 0)
  (0.109226 -0.0132803 0)
  (0.180367 -0.0383574 0)
  (0.20738 -0.0489704 0)
  (0.23916 -0.0716464 0)
  (0.258193 -0.0946834 0)
  (0.26038 -0.111591 0)
  (0.247042 -0.120194 0)
  (0.222157 -0.120357 0)
  (0.190162 -0.113176 0)
  (0.155087 -0.100455 0)
  (0.120106 -0.0840015 0)
  (0.0876493 -0.0659723 0)
  (0.0593733 -0.0483288 0)
  (0.03596 -0.0323689 0)
  (0.0181556 -0.0201679 0)
  (0.00522662 -0.0131299 0)
  (-0.00470625 -0.0102298 0)
  (-0.0122101 -0.00928999 0)
  (-0.0180789 -0.00879653 0)
  (-0.022286 -0.00855103 0)
  (-0.024983 -0.00855494 0)
  (-0.0263532 -0.00882632 0)
  (-0.0266536 -0.0094977 0)
  (-0.0262981 -0.0106073 0)
  (-0.0256584 -0.011831 0)
  (-0.0248286 -0.0127218 0)
  (-0.0236414 -0.0127874 0)
  (-0.0216971 -0.0114435 0)
  (-0.0180093 -0.00795398 0)
  (-0.00921109 -0.00162476 0)
  (-0.000886518 0.00651358 0)
  (0.00964583 0.0147095 0)
  (0.0213451 0.021798 0)
  (0.0411934 0.029175 0)
  (0.0602558 0.0227015 0)
  (0.0802967 -0.00463816 0)
  (0.139197 0.0390385 0)
  (-0.40594 0.202853 0)
  (1.0198 0.423203 0)
  (0.485233 0.279737 0)
  (0.499926 0.183813 0)
  (0.525137 0.113537 0)
  (0.506215 0.0635058 0)
  (0.465486 0.016772 0)
  (0.417715 -0.0231432 0)
  (0.365074 -0.0512157 0)
  (0.307761 -0.0662234 0)
  (0.248626 -0.0698612 0)
  (0.191098 -0.065344 0)
  (0.137826 -0.0558877 0)
  (0.0903422 -0.04352 0)
  (0.0501881 -0.0303865 0)
  (0.0176247 -0.0183213 0)
  (-0.00826627 -0.00849539 0)
  (-0.0241804 -0.00372716 0)
  (-0.0339098 -0.00242792 0)
  (-0.0404745 -0.00281057 0)
  (-0.045466 -0.00377301 0)
  (-0.0495 -0.00478452 0)
  (-0.0527462 -0.00579056 0)
  (-0.0553518 -0.00680746 0)
  (-0.0574995 -0.00786228 0)
  (-0.0594424 -0.00900151 0)
  (-0.0615224 -0.0102007 0)
  (-0.0640731 -0.0112429 0)
  (-0.0673844 -0.0117599 0)
  (-0.0717685 -0.0112225 0)
  (-0.0776544 -0.00892686 0)
  (-0.0855856 -0.00405998 0)
  (-0.0955294 0.00392961 0)
  (-0.105583 0.0144876 0)
  (-0.120367 0.027846 0)
  (-0.143617 0.0441503 0)
  (-0.177835 0.062336 0)
  (-0.226391 0.078521 0)
  (-0.282255 0.0901483 0)
  (-0.350364 0.0971594 0)
  (-0.610395 0.100076 0)
  (-0.15442 0.00370215 0)
  (0.123219 0.00585505 0)
  (0.205047 -0.0267039 0)
  (0.191452 -0.0387119 0)
  (0.175651 -0.0384755 0)
  (0.153958 -0.0349345 0)
  (0.124783 -0.0297412 0)
  (0.091123 -0.0230678 0)
  (0.056444 -0.0153918 0)
  (0.0218211 -0.00730694 0)
  (-0.0120514 0.000595871 0)
  (-0.0360026 0.00550207 0)
  (-0.0523978 0.00821065 0)
  (-0.0625052 0.00901974 0)
  (-0.0680289 0.0083373 0)
  (-0.071773 0.00742864 0)
  (-0.0746652 0.00662934 0)
  (-0.0772447 0.00596499 0)
  (-0.0798383 0.0053284 0)
  (-0.082545 0.00454583 0)
  (-0.0853697 0.00367575 0)
  (-0.0884007 0.00274827 0)
  (-0.0917639 0.00182805 0)
  (-0.0955851 0.0010443 0)
  (-0.0999264 0.000651782 0)
  (-0.104785 0.000954902 0)
  (-0.110083 0.00227726 0)
  (-0.115643 0.00492395 0)
  (-0.120866 0.00937244 0)
  (-0.124972 0.0165221 0)
  (-0.128357 0.0274921 0)
  (-0.131248 0.0426551 0)
  (-0.134327 0.0612022 0)
  (-0.138041 0.0797054 0)
  (-0.139345 0.08859 0)
  (-0.121946 0.0672961 0)
  (-0.0791634 -0.0233064 0)
  (-0.274564 -0.198819 0)
  (0.0109972 0.195798 0)
  (0.0421521 0.0721254 0)
  (0.000453515 0.00730427 0)
  (-0.0106232 -0.000861811 0)
  (-0.0222292 0.000503676 0)
  (-0.0360967 0.00012684 0)
  (-0.0520588 0.000732799 0)
  (-0.0678751 0.00274643 0)
  (-0.0809305 0.0048728 0)
  (-0.0889066 0.0055082 0)
  (-0.0937701 0.00393977 0)
  (-0.0960871 0.000210189 0)
  (-0.0967159 -0.00429922 0)
  (-0.0964141 -0.00919955 0)
  (-0.0960753 -0.0144413 0)
  (-0.0962992 -0.019546 0)
  (-0.0971326 -0.0241842 0)
  (-0.0984823 -0.0280702 0)
  (-0.100224 -0.0310023 0)
  (-0.102317 -0.0329553 0)
  (-0.104783 -0.0340536 0)
  (-0.107524 -0.0342756 0)
  (-0.110453 -0.0336566 0)
  (-0.113511 -0.0324888 0)
  (-0.116576 -0.0306838 0)
  (-0.119403 -0.028006 0)
  (-0.12161 -0.0240366 0)
  (-0.122694 -0.0181019 0)
  (-0.122221 -0.0102834 0)
  (-0.119319 -0.000287701 0)
  (-0.112613 0.0126276 0)
  (-0.100823 0.0291194 0)
  (-0.0835215 0.0487159 0)
  (-0.0614914 0.0675018 0)
  (-0.0375977 0.0784943 0)
  (0.00222259 0.0626336 0)
  (0.143042 -0.00777927 0)
  (-0.205186 -0.10904 0)
  (-0.0451856 -0.32046 0)
  (-0.413562 -0.122871 0)
  (-0.301457 0.0654723 0)
  (-0.247673 -0.0176573 0)
  (-0.207383 -0.024082 0)
  (-0.195246 -0.0133374 0)
  (-0.190492 -0.00370793 0)
  (-0.187123 0.0043144 0)
  (-0.182969 0.0118539 0)
  (-0.177006 0.0193395 0)
  (-0.168968 0.026863 0)
  (-0.159086 0.0343702 0)
  (-0.148341 0.041695 0)
  (-0.137907 0.0487881 0)
  (-0.128626 0.0558781 0)
  (-0.120869 0.0629375 0)
  (-0.114722 0.0699007 0)
  (-0.110042 0.0765228 0)
  (-0.106592 0.082358 0)
  (-0.104163 0.0869985 0)
  (-0.102565 0.0902003 0)
  (-0.101644 0.091915 0)
  (-0.101309 0.0922134 0)
  (-0.101507 0.0910833 0)
  (-0.102177 0.0886331 0)
  (-0.103224 0.0854128 0)
  (-0.10452 0.0815431 0)
  (-0.105838 0.0771166 0)
  (-0.106789 0.0721753 0)
  (-0.106705 0.0667158 0)
  (-0.104308 0.062025 0)
  (-0.0977586 0.0590117 0)
  (-0.0846862 0.0585357 0)
  (-0.0632837 0.061542 0)
  (-0.0339965 0.0685551 0)
  (0.0119475 0.078715 0)
  (0.055316 0.0797613 0)
  (0.0963779 0.0667651 0)
  (0.161226 0.0407247 0)
  (-0.230772 -0.00991909 0)
)
;

boundaryField
{
  floor
  {
    type noSlip;
  }
  ceiling
  {
    type noSlip;
  }
  sWall
  {
    type noSlip;
  }
  nWall
  {
    type noSlip;
  }
  sideWalls
  {
    type empty;
  }
  glass1
  {
    type noSlip;
  }
  glass2
  {
    type noSlip;
  }
  sun
  {
    type noSlip;
  }
  heatsource1
  {
    type noSlip;
  }
  heatsource2
  {
    type noSlip;
  }
  Table_master
  {
    type noSlip;
  }
  Table_slave
  {
    type noSlip;
  }
  inlet
  {
    type fixedValue;
    value uniform (0.277164 -0.114805 0);
  }
  outlet
  {
    type zeroGradient;
  }
} 	// ************************************************************************* //

