// -*- C++ -*-
// File generated by PyFoam - sorry for the ugliness

FoamFile
{
 version 2.0;
 format ascii;
 class volScalarField;
 location "620";
 object T;
}

dimensions [ 0 0 0 1 0 0 0 ];

internalField nonuniform List<scalar> 459
(
  303.493
  303.335
  303.333
  303.334
  303.336
  303.336
  303.337
  303.337
  303.336
  303.333
  303.328
  303.322
  303.316
  303.31
  303.304
  303.237
  303.285
  303.304
  303.306
  303.301
  303.294
  303.286
  303.278
  303.271
  303.265
  303.259
  303.253
  303.247
  303.242
  303.235
  303.227
  303.214
  303.181
  303.163
  303.614
  303.38
  303.374
  303.381
  303.387
  303.391
  303.392
  303.392
  303.389
  303.381
  303.368
  303.351
  303.335
  303.326
  303.325
  303.333
  303.343
  303.326
  303.357
  303.364
  303.367
  303.367
  303.364
  303.361
  303.361
  303.361
  303.362
  303.363
  303.363
  303.362
  303.359
  303.351
  303.336
  303.311
  303.258
  303.255
  303.733
  303.416
  303.403
  303.415
  303.427
  303.436
  303.443
  303.445
  303.443
  303.43
  303.406
  303.374
  303.344
  303.323
  303.318
  303.325
  303.335
  303.356
  303.368
  303.378
  303.384
  303.387
  303.387
  303.387
  303.389
  303.391
  303.393
  303.395
  303.398
  303.4
  303.401
  303.399
  303.388
  303.364
  303.325
  303.319
  303.851
  303.454
  303.427
  303.443
  303.463
  303.483
  303.499
  303.509
  303.509
  303.491
  303.453
  303.402
  303.353
  303.319
  303.309
  303.318
  303.332
  303.343
  303.36
  303.375
  303.388
  303.397
  303.402
  303.404
  303.409
  303.414
  303.42
  303.427
  303.433
  303.439
  303.446
  303.452
  303.458
  303.435
  303.406
  303.373
  303.355
  303.966
  303.498
  303.448
  303.464
  303.49
  303.519
  303.547
  303.568
  303.573
  303.552
  303.499
  303.428
  303.359
  303.313
  303.301
  303.313
  303.334
  303.356
  303.377
  303.396
  303.41
  303.419
  303.425
  303.428
  303.433
  303.439
  303.445
  303.452
  303.458
  303.464
  303.47
  303.474
  303.476
  303.466
  303.444
  303.417
  303.386
  303.39
  303.452
  303.595
  304.07
  303.553
  303.476
  303.479
  303.504
  303.535
  303.569
  303.604
  303.619
  303.594
  303.527
  303.44
  303.358
  303.305
  303.291
  303.308
  303.34
  303.372
  303.4
  303.422
  303.438
  303.447
  303.452
  303.455
  303.459
  303.464
  303.47
  303.477
  303.483
  303.489
  303.493
  303.497
  303.497
  303.49
  303.476
  303.463
  303.424
  303.413
  303.486
  303.614
  304.158
  303.641
  303.548
  303.52
  303.528
  303.55
  303.58
  303.62
  303.636
  303.604
  303.528
  303.431
  303.341
  303.286
  303.277
  303.307
  303.352
  303.396
  303.431
  303.455
  303.469
  303.477
  303.481
  303.483
  303.486
  303.491
  303.497
  303.503
  303.509
  303.514
  303.518
  303.519
  303.519
  303.513
  303.503
  303.489
  303.449
  303.436
  303.506
  303.64
  304.292
  303.889
  303.771
  303.687
  303.644
  303.633
  303.644
  303.669
  303.655
  303.591
  303.492
  303.383
  303.294
  303.251
  303.261
  303.312
  303.375
  303.43
  303.468
  303.49
  303.502
  303.508
  303.51
  303.511
  303.514
  303.519
  303.524
  303.53
  303.535
  303.539
  303.541
  303.542
  303.54
  303.535
  303.526
  303.511
  303.476
  303.461
  303.518
  303.682
  304.476
  304.292
  304.157
  304.025
  303.921
  303.851
  303.81
  303.748
  303.641
  303.512
  303.384
  303.276
  303.21
  303.202
  303.251
  303.333
  303.414
  303.473
  303.506
  303.522
  303.53
  303.534
  303.536
  303.538
  303.541
  303.545
  303.549
  303.553
  303.557
  303.559
  303.56
  303.56
  303.559
  303.555
  303.547
  303.534
  303.509
  303.497
  303.541
  303.686
  301.778
  302.54
  302.952
  303.134
  303.194
  303.203
  303.183
  303.147
  303.109
  303.084
  303.1
  303.166
  303.271
  303.383
  303.467
  303.51
  303.532
  303.543
  303.549
  303.552
  303.555
  303.557
  303.559
  303.562
  303.565
  303.568
  303.57
  303.572
  303.572
  303.572
  303.571
  303.569
  303.565
  303.558
  303.547
  303.544
  303.578
  303.658
  301.822
  302.351
  302.632
  302.787
  302.86
  302.884
  302.904
  302.919
  302.934
  302.969
  303.068
  303.204
  303.344
  303.442
  303.499
  303.529
  303.545
  303.553
  303.558
  303.561
  303.563
  303.565
  303.567
  303.57
  303.572
  303.573
  303.575
  303.576
  303.577
  303.577
  303.577
  303.577
  303.577
  303.577
  303.577
  303.583
  303.609
  303.649
  302.215
  302.151
  302.149
  302.422
  302.614
  302.728
  302.769
  302.787
  302.801
  302.819
  302.847
  302.921
  303.156
  303.332
  303.431
  303.487
  303.517
  303.532
  303.54
  303.545
  303.548
  303.551
  303.553
  303.555
  303.556
  303.558
  303.56
  303.561
  303.562
  303.563
  303.564
  303.566
  303.568
  303.571
  303.575
  303.581
  303.588
  303.599
  303.617
  303.642
)
;

boundaryField
{
  floor
  {
    type wallHeatTransfer;
    Tinf uniform 298.85;
    alphaWall uniform 0.24;
    value nonuniform List<scalar> 29
(
  302.833
  302.534
  302.67
  302.647
  302.595
  302.528
  302.461
  302.392
  302.322
  302.258
  302.199
  302.143
  302.09
  302.04
  301.992
  301.943
  301.893
  301.9
  302.175
  302.346
  302.346
  302.521
  302.622
  302.684
  302.833
  302.534
  302.743
  302.855
  302.931
)
;
  }
  ceiling
  {
    type wallHeatTransfer;
    Tinf uniform 298.85;
    alphaWall uniform 0.24;
    value nonuniform List<scalar> 43
(
  301.913
  301.871
  301.883
  302.152
  302.329
  302.427
  302.458
  302.467
  302.478
  302.502
  302.537
  302.615
  302.847
  303.021
  303.119
  303.169
  303.193
  303.204
  303.209
  303.211
  303.213
  303.214
  303.216
  303.217
  303.219
  303.221
  303.223
  303.225
  303.227
  303.229
  303.231
  303.233
  303.235
  303.237
  303.239
  303.243
  303.255
  303.278
  303.305
  303.302
  304.172
  304.042
  301.59
)
;
  }
  sWall
  {
    type wallHeatTransfer;
    Tinf uniform 311.144;
    alphaWall uniform 0.36;
    value uniform 303.369;
  }
  nWall
  {
    type wallHeatTransfer;
    Tinf uniform 299.15;
    alphaWall uniform 0.36;
    value nonuniform List<scalar> 6
(
  302.967
  303.106
  303.23
  303.313
  303.25
  303.181
)
;
  }
  sideWalls
  {
    type empty;
  }
  glass1
  {
    type wallHeatTransfer;
    Tinf uniform 311.144;
    alphaWall uniform 4.3;
    value nonuniform List<scalar> 9
(
  309.05
  308.67
  308.414
  308.211
  308.037
  307.877
  307.735
  307.752
  307.867
)
;
  }
  glass2
  {
    type wallHeatTransfer;
    Tinf uniform 299.15;
    alphaWall uniform 4.3;
    value nonuniform List<scalar> 2
(
  301.504
  301.605
)
;
  }
  sun
  {
    type wallHeatTransfer;
    Tinf uniform 298.85;
    alphaWall uniform 0.24;
    value nonuniform List<scalar> 14
(
  302.903
  302.798
  302.803
  302.821
  302.837
  302.849
  302.861
  302.871
  302.88
  302.885
  302.886
  302.881
  302.87
  302.855
)
;
  }
  heatsource1
  {
    type fixedGradient;
    gradient uniform 0;
  }
  heatsource2
  {
    type fixedGradient;
    gradient uniform 0;
  }
  Table_master
  {
    type zeroGradient;
  }
  Table_slave
  {
    type zeroGradient;
  }
  inlet
  {
    type fixedValue;
    value uniform 300.15;
  }
  outlet
  {
    type zeroGradient;
  }
} 	// ************************************************************************* //

