/*--------------------------------*- C++ -*----------------------------------*\
  =========                 |
  \\      /  F ield         | OpenFOAM: The Open Source CFD Toolbox
   \\    /   O peration     | Website:  https://openfoam.org
    \\  /    A nd           | Version:  6
     \\/     M anipulation  |
\*---------------------------------------------------------------------------*/
FoamFile
{
    version     2.0;
    format      ascii;
    class       volScalarField;
    location    "1000";
    object      epsilon;
}
// * * * * * * * * * * * * * * * * * * * * * * * * * * * * * * * * * * * * * //

dimensions      [0 2 -3 0 0 0 0];

internalField   nonuniform List<scalar> 
459
(
0.000354048
0.000445914
0.000454217
0.00051543
0.000576419
0.000636909
0.000699364
0.000763583
0.000807816
0.00081805
0.000781914
0.000695591
0.000569297
0.000431029
0.000316782
2.18147e-05
3.38718e-05
3.94719e-05
3.56931e-05
3.01586e-05
2.45293e-05
1.81474e-05
1.37674e-05
1.05605e-05
8.28217e-06
6.69811e-06
5.59094e-06
4.80777e-06
4.26653e-06
4.12862e-06
4.2072e-06
5.5176e-06
1.51515e-05
1.05112e-05
0.000974339
0.00150257
0.00041584
0.00038793
0.000398245
0.000421354
0.000459255
0.000512419
0.000563722
0.000594011
0.000586666
0.000535705
0.000447689
0.000343414
0.000264131
0.00029027
7.73233e-05
2.74212e-05
5.42224e-05
4.58086e-05
3.91874e-05
3.32462e-05
2.89122e-05
2.6007e-05
2.13545e-05
1.72867e-05
1.42549e-05
1.20699e-05
1.04813e-05
9.29753e-06
8.3882e-06
7.56699e-06
6.67148e-06
8.61851e-06
4.97092e-05
2.94929e-05
0.00184375
0.00385753
0.000544264
0.000378805
0.000384609
0.000421402
0.000479756
0.000556221
0.000629818
0.000673452
0.000671734
0.000622417
0.000532994
0.000423262
0.000322991
0.000256638
0.000289196
0.00013073
9.76877e-05
6.93214e-05
5.10852e-05
4.03993e-05
3.67299e-05
6.99424e-05
4.74107e-05
3.43969e-05
2.62909e-05
2.09094e-05
1.71509e-05
1.44137e-05
1.23416e-05
1.07448e-05
9.46354e-06
1.32547e-05
9.39772e-05
5.19884e-05
0.00304661
0.00802771
0.00088319
0.00039109
0.000381393
0.000432821
0.000516388
0.000628942
0.000727375
0.000774781
0.000766784
0.000708503
0.000607524
0.000485042
0.000364535
0.000279013
0.000249577
0.00042699
0.000246776
0.000131015
8.17685e-05
5.87466e-05
4.71808e-05
4.51437e-05
0.000104513
8.41155e-05
8.0692e-05
8.53745e-05
9.31141e-05
9.85041e-05
9.5444e-05
8.18259e-05
6.76841e-05
4.52662e-05
6.26838e-05
0.000238607
6.824e-05
0.004679
0.0142057
0.00170775
0.000447022
0.000378887
0.000443928
0.000575563
0.000762834
0.000887317
0.000923381
0.000893691
0.000812667
0.000685498
0.000540474
0.000399368
0.000283388
0.000204679
0.000172767
0.000130578
9.6658e-05
7.299e-05
5.83893e-05
4.99089e-05
4.65555e-05
5.13466e-05
5.46582e-05
6.12439e-05
7.11146e-05
8.23449e-05
9.11525e-05
9.25547e-05
8.2404e-05
6.88374e-05
5.65885e-05
5.81887e-05
0.000125738
0.000180259
0.000151487
0.000170873
0.00027944
0.00689937
0.0209259
0.00372255
0.000735443
0.000454728
0.000503012
0.000745211
0.00103551
0.00114808
0.00114123
0.00106714
0.000946341
0.00078887
0.000611794
0.000439894
0.000297231
0.000197431
0.000139979
0.000107211
8.48058e-05
6.84785e-05
5.7935e-05
5.20879e-05
5.06355e-05
5.46962e-05
6.36321e-05
7.77008e-05
9.65614e-05
0.00011863
0.000140464
0.000156399
0.000157149
0.00012956
0.000103414
8.90379e-05
0.000104125
0.000135416
0.000145948
0.00033377
0.000381853
0.00962009
0.0249418
0.00798559
0.00231886
0.00123477
0.00106126
0.00140836
0.00157243
0.00155621
0.00144988
0.00129761
0.00111449
0.000905784
0.000684566
0.000476418
0.000306716
0.000190903
0.000125438
9.2276e-05
7.36337e-05
6.18989e-05
5.55906e-05
5.3632e-05
5.62264e-05
6.44571e-05
7.91067e-05
0.000100579
0.000129243
0.000164976
0.000206516
0.000251246
0.00029294
0.000310481
0.000278903
0.000276045
0.000326904
0.000430053
0.000529176
0.000802706
0.000819258
0.0103617
0.029379
0.0150966
0.00853336
0.00513837
0.00365257
0.00300404
0.00254135
0.00216961
0.00185161
0.0015657
0.00128969
0.0010107
0.000734804
0.00048761
0.000291272
0.000164603
0.000100301
7.54948e-05
6.26959e-05
5.54382e-05
5.26531e-05
5.42964e-05
6.09919e-05
7.37572e-05
9.38269e-05
0.000122471
0.000161453
0.000212926
0.000279012
0.000361935
0.000465906
0.000600232
0.00077521
0.00101485
0.00156935
0.00242703
0.00303299
0.00587884
0.00145992
0.0096836
0.0168263
0.013178
0.00975165
0.00715665
0.00543259
0.00421908
0.0033445
0.00269147
0.00218802
0.00177657
0.00140408
0.00104654
0.000708773
0.000427611
0.000205522
0.000114758
7.90725e-05
6.316e-05
5.48046e-05
5.07048e-05
5.04089e-05
5.43209e-05
6.32616e-05
7.82776e-05
0.000100732
0.00013262
0.000176769
0.000236866
0.000316771
0.000419373
0.000545796
0.000696617
0.000875524
0.00108465
0.00131196
0.00150969
0.00165145
0.00182614
0.00114773
0.00490347
0.00616707
0.00571728
0.00493199
0.00411727
0.0033358
0.00268489
0.00216564
0.00171795
0.00127816
0.000851098
0.000430882
0.000214203
0.000124635
8.63395e-05
6.87832e-05
5.99668e-05
5.53741e-05
5.37618e-05
5.51288e-05
5.99325e-05
6.88427e-05
8.27069e-05
0.0001027
0.000130764
0.000169262
0.00022155
0.000293669
0.000392708
0.000524039
0.000687226
0.000876787
0.00107562
0.00125648
0.00138137
0.00140578
0.0011843
0.000737134
0.00338695
0.00605008
0.00549067
0.00436976
0.00344507
0.0027037
0.00218298
0.00177502
0.00131519
0.000793384
0.000436357
0.000234491
0.000144865
0.000105924
8.87762e-05
8.1273e-05
7.85127e-05
7.85634e-05
8.09329e-05
8.5839e-05
9.38946e-05
0.000105928
0.000122692
0.00014434
0.00016953
0.000196381
0.000226355
0.000265608
0.000326236
0.000417837
0.000549327
0.000720205
0.000908283
0.00107769
0.00115784
0.00111792
0.00105056
0.0007767
0.002288
0.00265063
0.00297374
0.0034989
0.00260187
0.00159691
0.000943486
0.000774537
0.000671517
0.000575328
0.000466895
0.000355581
0.00026786
0.000203392
0.00016436
0.000141662
0.000127735
0.000118503
0.00011208
0.000107706
0.000105189
0.000104585
0.000105983
0.000109311
0.000114158
0.000119629
0.000124437
0.000127589
0.000132429
0.000144014
0.000166839
0.000219916
0.000335505
0.000517892
0.000699493
0.00083539
0.000866794
0.000747733
0.000618284
0.00046661
)
;

boundaryField
{
    floor
    {
        Cmu             0.09;
        kappa           0.41;
        E               9.8;
        type            epsilonWallFunction;
        value           nonuniform List<scalar> 
29
(
0.000316782
2.18147e-05
3.38718e-05
3.94719e-05
3.56931e-05
3.01586e-05
2.45293e-05
1.81474e-05
1.37674e-05
1.05605e-05
8.28217e-06
6.69811e-06
5.59094e-06
4.80777e-06
4.26653e-06
4.12862e-06
4.2072e-06
5.5176e-06
1.51515e-05
1.05112e-05
1.05112e-05
2.94929e-05
5.19884e-05
6.824e-05
0.000316782
2.18147e-05
2.74212e-05
0.00013073
0.00042699
)
;
    }
    ceiling
    {
        Cmu             0.09;
        kappa           0.41;
        E               9.8;
        type            epsilonWallFunction;
        value           nonuniform List<scalar> 
43
(
0.002288
0.00265063
0.00297374
0.0034989
0.00260187
0.00159691
0.000943486
0.000774537
0.000671517
0.000575328
0.000466895
0.000355581
0.00026786
0.000203392
0.00016436
0.000141662
0.000127735
0.000118503
0.00011208
0.000107706
0.000105189
0.000104585
0.000105983
0.000109311
0.000114158
0.000119629
0.000124437
0.000127589
0.000132429
0.000144014
0.000166839
0.000219916
0.000335505
0.000517892
0.000699493
0.00083539
0.000866794
0.000747733
0.000618284
0.00046661
0.0096836
0.0168263
0.00338695
)
;
    }
    sWall
    {
        Cmu             0.09;
        kappa           0.41;
        E               9.8;
        type            epsilonWallFunction;
        value           uniform 0.002288;
    }
    nWall
    {
        Cmu             0.09;
        kappa           0.41;
        E               9.8;
        type            epsilonWallFunction;
        value           nonuniform List<scalar> 6(0.00027944 0.000381853 0.000819258 0.000737134 0.0007767 0.00046661);
    }
    sideWalls
    {
        type            empty;
    }
    glass1
    {
        Cmu             0.09;
        kappa           0.41;
        E               9.8;
        type            epsilonWallFunction;
        value           nonuniform List<scalar> 9(0.000354048 0.000974339 0.00184375 0.00304661 0.004679 0.00689937 0.00962009 0.0103617 0.0096836);
    }
    glass2
    {
        Cmu             0.09;
        kappa           0.41;
        E               9.8;
        type            epsilonWallFunction;
        value           nonuniform List<scalar> 2(0.00145992 0.00114773);
    }
    sun
    {
        Cmu             0.09;
        kappa           0.41;
        E               9.8;
        type            epsilonWallFunction;
        value           nonuniform List<scalar> 
14
(
0.000354048
0.000445914
0.000454217
0.00051543
0.000576419
0.000636909
0.000699364
0.000763583
0.000807816
0.00081805
0.000781914
0.000695591
0.000569297
0.000431029
)
;
    }
    heatsource1
    {
        Cmu             0.09;
        kappa           0.41;
        E               9.8;
        type            epsilonWallFunction;
        value           nonuniform List<scalar> 3(0.000151487 0.000170873 0.00027944);
    }
    heatsource2
    {
        Cmu             0.09;
        kappa           0.41;
        E               9.8;
        type            epsilonWallFunction;
        value           nonuniform List<scalar> 4(0.00029027 7.73233e-05 7.73233e-05 0.000289196);
    }
    Table_master
    {
        Cmu             0.09;
        kappa           0.41;
        E               9.8;
        type            epsilonWallFunction;
        value           nonuniform List<scalar> 9(6.99424e-05 4.74107e-05 3.43969e-05 2.62909e-05 2.09094e-05 1.71509e-05 1.44137e-05 1.23416e-05 1.07448e-05);
    }
    Table_slave
    {
        Cmu             0.09;
        kappa           0.41;
        E               9.8;
        type            epsilonWallFunction;
        value           nonuniform List<scalar> 9(0.000104513 8.41155e-05 8.0692e-05 8.53745e-05 9.31141e-05 9.85041e-05 9.5444e-05 8.18259e-05 6.76841e-05);
    }
    inlet
    {
        type            turbulentMixingLengthDissipationRateInlet;
        mixingLength    0.01;
        phi             phi;
        k               k;
        value           uniform 0.000101881;
    }
    outlet
    {
        type            zeroGradient;
    }
}


// ************************************************************************* //
