/*--------------------------------*- C++ -*----------------------------------*\
  =========                 |
  \\      /  F ield         | OpenFOAM: The Open Source CFD Toolbox
   \\    /   O peration     | Website:  https://openfoam.org
    \\  /    A nd           | Version:  6
     \\/     M anipulation  |
\*---------------------------------------------------------------------------*/
FoamFile
{
    version     2.0;
    format      ascii;
    class       volScalarField;
    location    "350";
    object      epsilon;
}
// * * * * * * * * * * * * * * * * * * * * * * * * * * * * * * * * * * * * * //

dimensions      [0 2 -3 0 0 0 0];

internalField   nonuniform List<scalar> 
459
(
0.000141917
0.000202794
0.000243247
0.000295329
0.000358309
0.00042992
0.000499376
0.000558221
0.0005387
0.000468653
0.000390556
0.000312168
0.000245465
0.00018849
0.000136923
3.09882e-05
6.78287e-05
9.7731e-05
0.000115274
0.000111574
0.000101688
8.49606e-05
6.9436e-05
5.71115e-05
4.75512e-05
4.00824e-05
3.41703e-05
2.94259e-05
2.5545e-05
2.22285e-05
1.92213e-05
1.62678e-05
1.24955e-05
9.15471e-06
0.000250656
0.000283911
0.000183722
0.00019714
0.000232977
0.000286193
0.000339058
0.000379369
0.000375868
0.000321486
0.000261774
0.000209265
0.000171663
0.000146058
0.000120172
0.000170093
0.000109159
8.55999e-05
0.000216386
0.00012276
9.99838e-05
8.83053e-05
7.97884e-05
8.02328e-05
6.59632e-05
5.25537e-05
4.18749e-05
3.36245e-05
2.7283e-05
2.23827e-05
1.85736e-05
1.56738e-05
1.40777e-05
1.48895e-05
1.25905e-05
1.36502e-05
0.000375651
0.000466278
0.000185435
0.000188547
0.000230557
0.000286087
0.000332558
0.000371011
0.000379878
0.000335105
0.000271169
0.000212666
0.000168163
0.000136741
0.000112091
0.000112761
0.00013565
0.000107039
0.000257015
0.000145335
0.000109878
9.31836e-05
8.7909e-05
0.000196391
0.000132368
9.17427e-05
6.57619e-05
4.87295e-05
3.72429e-05
2.93424e-05
2.39887e-05
2.05925e-05
1.55126e-05
1.48336e-05
1.45952e-05
1.73492e-05
0.000531294
0.000798862
0.000227787
0.000203737
0.000256046
0.000310422
0.000349032
0.00039362
0.00041017
0.000366282
0.000290876
0.000220439
0.000168364
0.000132571
0.000108241
9.89926e-05
0.000105818
0.000155433
0.000144493
0.000120608
0.000109235
0.00010301
9.65075e-05
9.65574e-05
0.000260688
0.000196767
0.000155294
0.000126215
0.000103986
8.55394e-05
6.94045e-05
5.48564e-05
4.12289e-05
2.29176e-05
1.64474e-05
2.26646e-05
2.36765e-05
0.000734448
0.00132992
0.000354053
0.000257204
0.000334248
0.000369939
0.00040053
0.00045306
0.000473167
0.000418298
0.000319134
0.000227249
0.000163521
0.000124649
0.000103184
9.53963e-05
0.000104694
0.000119772
0.000118553
0.00012294
0.000126651
0.000124757
0.00011622
0.000104826
0.000103731
9.73936e-05
9.08825e-05
8.34623e-05
7.43911e-05
6.38725e-05
5.26135e-05
4.14989e-05
3.11318e-05
2.14432e-05
1.58649e-05
2.41162e-05
2.65399e-05
3.19857e-05
3.03362e-05
2.77302e-05
0.00100272
0.00200506
0.000702417
0.000430293
0.000491791
0.000470462
0.000490636
0.000551753
0.000571959
0.000493045
0.000354602
0.000230991
0.000152462
0.000113798
9.99893e-05
0.000102225
0.000120389
0.000141911
0.0001581
0.000168269
0.000169004
0.000158907
0.000140534
0.000119065
0.000102337
9.1891e-05
8.41271e-05
7.57648e-05
6.59599e-05
5.52268e-05
4.44481e-05
3.45037e-05
2.61584e-05
2.00276e-05
1.60241e-05
2.01224e-05
2.61639e-05
2.84267e-05
7.28204e-05
5.03144e-05
0.0012621
0.00248402
0.00145643
0.000970192
0.000727253
0.000617057
0.000627505
0.000701377
0.000713938
0.000590469
0.000392156
0.000228969
0.000141093
0.00011138
0.000109989
0.000124557
0.000152685
0.000183615
0.000205489
0.000211458
0.000201864
0.000179605
0.000150628
0.000121382
9.98911e-05
8.75205e-05
7.88028e-05
7.04145e-05
6.17785e-05
5.34001e-05
4.55624e-05
3.80911e-05
3.20076e-05
2.77858e-05
2.49703e-05
2.57367e-05
2.98626e-05
3.54362e-05
0.000114045
7.90081e-05
0.00131643
0.00267106
0.00171896
0.00121057
0.000897593
0.000778818
0.000821982
0.000923781
0.000907629
0.000700692
0.000415681
0.000220555
0.000154861
0.000140427
0.000148248
0.000170077
0.00020338
0.00023368
0.000248013
0.000239721
0.000213675
0.000179474
0.000145988
0.000119184
0.000101438
9.07467e-05
8.33403e-05
7.72635e-05
7.2388e-05
6.94468e-05
6.78146e-05
6.72659e-05
6.78899e-05
7.01844e-05
7.80795e-05
8.84424e-05
0.000110098
0.000151831
0.000752626
0.000144428
0.00123988
0.00191441
0.00142886
0.00103931
0.000874583
0.000932908
0.0011159
0.00125809
0.00113761
0.000765745
0.000409183
0.000271555
0.000230905
0.000226282
0.000237255
0.000256918
0.000279444
0.000293404
0.000289929
0.000269401
0.000238571
0.000207084
0.000180805
0.000162194
0.000150635
0.000143624
0.000138397
0.000132957
0.00012613
0.000117857
0.000109465
0.000103476
0.000106127
0.000119149
0.000144708
0.000185058
0.000242568
0.000318469
0.000403463
0.000225264
0.000196371
0.000580978
0.00114902
0.00163783
0.00186576
0.00171963
0.00104399
0.000643709
0.0004993
0.000459706
0.000454687
0.000459971
0.000468429
0.000476896
0.000481551
0.000477972
0.00046548
0.000447756
0.000429901
0.000416072
0.000408169
0.000406248
0.000409159
0.000414779
0.000420022
0.000420575
0.000411029
0.000386166
0.000345328
0.000294202
0.000242995
0.000207403
0.000198505
0.000219581
0.000265186
0.000324495
0.000393124
0.000450679
0.00368864
0.00749967
0.0063267
0.00457609
0.0030853
0.00203651
0.00137592
0.00111005
0.00102743
0.00101788
0.00102656
0.0010369
0.00104829
0.00106396
0.00108484
0.00110795
0.001128
0.00114221
0.00115175
0.00116087
0.00117412
0.00119498
0.00122549
0.00126555
0.00131176
0.00135618
0.0013851
0.00137954
0.00131954
0.0011941
0.0010139
0.00080969
0.000624206
0.000488911
0.0004084
0.000384638
0.000888589
0.000670784
0.00156533
0.00195178
0.00246125
0.00299662
0.00244835
0.00197532
0.00161405
0.00133077
0.001118
0.000982829
0.000916165
0.000888749
0.000881117
0.000883284
0.000889709
0.000896141
0.000898912
0.000895769
0.000887123
0.000875557
0.000864186
0.000855276
0.000849827
0.000847719
0.000847888
0.000848436
0.000846666
0.000839157
0.000822164
0.000792523
0.000749002
0.000693383
0.000630333
0.00056658
0.000508083
0.000457478
0.000411941
0.000376507
0.000410064
0.000382799
)
;

boundaryField
{
    floor
    {
        Cmu             0.09;
        kappa           0.41;
        E               9.8;
        type            epsilonWallFunction;
        value           nonuniform List<scalar> 
29
(
0.000136923
3.09882e-05
6.78287e-05
9.7731e-05
0.000115274
0.000111574
0.000101688
8.49606e-05
6.9436e-05
5.71115e-05
4.75512e-05
4.00824e-05
3.41703e-05
2.94259e-05
2.5545e-05
2.22285e-05
1.92213e-05
1.62678e-05
1.24955e-05
9.15471e-06
9.15471e-06
1.36502e-05
1.73492e-05
2.36765e-05
0.000136923
3.09882e-05
8.55999e-05
0.000107039
0.000155433
)
;
    }
    ceiling
    {
        Cmu             0.09;
        kappa           0.41;
        E               9.8;
        type            epsilonWallFunction;
        value           nonuniform List<scalar> 
43
(
0.00156533
0.00195178
0.00246125
0.00299662
0.00244835
0.00197532
0.00161405
0.00133077
0.001118
0.000982829
0.000916165
0.000888749
0.000881117
0.000883284
0.000889709
0.000896141
0.000898912
0.000895769
0.000887123
0.000875557
0.000864186
0.000855276
0.000849827
0.000847719
0.000847888
0.000848436
0.000846666
0.000839157
0.000822164
0.000792523
0.000749002
0.000693383
0.000630333
0.00056658
0.000508083
0.000457478
0.000411941
0.000376507
0.000410064
0.000382799
0.00123988
0.00191441
0.00368864
)
;
    }
    sWall
    {
        Cmu             0.09;
        kappa           0.41;
        E               9.8;
        type            epsilonWallFunction;
        value           uniform 0.00156533;
    }
    nWall
    {
        Cmu             0.09;
        kappa           0.41;
        E               9.8;
        type            epsilonWallFunction;
        value           nonuniform List<scalar> 6(2.77302e-05 5.03144e-05 7.90081e-05 0.000450679 0.000670784 0.000382799);
    }
    sideWalls
    {
        type            empty;
    }
    glass1
    {
        Cmu             0.09;
        kappa           0.41;
        E               9.8;
        type            epsilonWallFunction;
        value           nonuniform List<scalar> 9(0.000141917 0.000250656 0.000375651 0.000531294 0.000734448 0.00100272 0.0012621 0.00131643 0.00123988);
    }
    glass2
    {
        Cmu             0.09;
        kappa           0.41;
        E               9.8;
        type            epsilonWallFunction;
        value           nonuniform List<scalar> 2(0.000144428 0.000225264);
    }
    sun
    {
        Cmu             0.09;
        kappa           0.41;
        E               9.8;
        type            epsilonWallFunction;
        value           nonuniform List<scalar> 
14
(
0.000141917
0.000202794
0.000243247
0.000295329
0.000358309
0.00042992
0.000499376
0.000558221
0.0005387
0.000468653
0.000390556
0.000312168
0.000245465
0.00018849
)
;
    }
    heatsource1
    {
        Cmu             0.09;
        kappa           0.41;
        E               9.8;
        type            epsilonWallFunction;
        value           nonuniform List<scalar> 3(3.19857e-05 3.03362e-05 2.77302e-05);
    }
    heatsource2
    {
        Cmu             0.09;
        kappa           0.41;
        E               9.8;
        type            epsilonWallFunction;
        value           nonuniform List<scalar> 4(0.000170093 0.000109159 0.000109159 0.00013565);
    }
    Table_master
    {
        Cmu             0.09;
        kappa           0.41;
        E               9.8;
        type            epsilonWallFunction;
        value           nonuniform List<scalar> 9(0.000196391 0.000132368 9.17427e-05 6.57619e-05 4.87295e-05 3.72429e-05 2.93424e-05 2.39887e-05 2.05925e-05);
    }
    Table_slave
    {
        Cmu             0.09;
        kappa           0.41;
        E               9.8;
        type            epsilonWallFunction;
        value           nonuniform List<scalar> 9(0.000260688 0.000196767 0.000155294 0.000126215 0.000103986 8.55394e-05 6.94045e-05 5.48564e-05 4.12289e-05);
    }
    inlet
    {
        type            turbulentMixingLengthDissipationRateInlet;
        mixingLength    0.01;
        phi             phi;
        k               k;
        value           uniform 0.000101881;
    }
    outlet
    {
        type            zeroGradient;
    }
}


// ************************************************************************* //
