/*--------------------------------*- C++ -*----------------------------------*\
  =========                 |
  \\      /  F ield         | OpenFOAM: The Open Source CFD Toolbox
   \\    /   O peration     | Website:  https://openfoam.org
    \\  /    A nd           | Version:  6
     \\/     M anipulation  |
\*---------------------------------------------------------------------------*/
FoamFile
{
    version     2.0;
    format      ascii;
    class       surfaceScalarField;
    location    "350";
    object      phi;
}
// * * * * * * * * * * * * * * * * * * * * * * * * * * * * * * * * * * * * * //

dimensions      [1 0 -1 0 0 0 0];

internalField   nonuniform List<scalar> 
852
(
-0.00164595
0.00165723
-0.00244949
0.000803521
-0.00290815
0.000458637
-0.00305458
0.000146403
-0.00285086
-0.000203747
-0.00225075
-0.000600131
-0.00126619
-0.000984594
-2.58605e-05
-0.00124036
0.00101322
-0.00103911
0.00174713
-0.000733941
0.00217617
-0.000429076
0.00230469
-0.000128554
0.00211326
0.000191389
0.00149021
0.000623019
0.0014886
-0.000176478
0.000173718
-0.000370069
0.000193531
-2.15701e-05
-0.000348557
0.000530025
-0.000551651
0.000998429
-0.00046846
0.00133921
-0.000340834
0.00153135
-0.000192206
0.00162065
-8.93523e-05
0.00167059
-5.00085e-05
0.00170347
-3.29414e-05
0.00172381
-2.04018e-05
0.00173229
-8.54261e-06
0.00172464
7.58446e-06
0.00168712
3.74569e-05
0.0015879
9.91508e-05
0.00137175
0.000216088
0.00098718
0.000384501
0.000350374
0.000636738
0.000346596
-0.00124001
0.00292937
-0.001923
0.00148649
-0.00235965
0.000895259
-0.00251263
0.000299369
-0.00233456
-0.000381842
-0.00180544
-0.00112927
-0.000995394
-0.00179466
-0.000100557
-0.00213522
0.000726696
-0.00186641
0.00135614
-0.00136342
0.00175858
-0.000831566
0.00194607
-0.000316079
0.0019526
0.000184816
0.00189422
0.000681355
0.00221453
0.00116825
0.00109847
0.00111597
0.00109837
-5.91761e-05
0.000226407
0.000286383
-0.000152087
0.000693035
-0.000755263
0.00101897
-0.000877642
0.00130578
-0.000755318
0.00151328
-0.000548388
0.00156068
-0.000239663
0.001571
-9.9729e-05
0.00158149
-6.05624e-05
0.00159041
-4.19211e-05
0.00159669
-2.67438e-05
0.00160061
-1.25225e-05
0.00160058
7.54441e-06
0.00159114
4.68326e-05
0.00154037
0.000149854
0.00134155
0.000414841
0.0010042
0.000721785
0.000566481
0.00107438
0.000902672
-0.000919411
0.00390005
-0.00146066
0.00202772
-0.00183744
0.00127203
-0.00197869
0.000440603
-0.00181584
-0.00054471
-0.00134301
-0.00160212
-0.000670822
-0.00246687
9.04125e-06
-0.00281512
0.000640206
-0.00249762
0.00114434
-0.00186761
0.00148113
-0.00116841
0.00166617
-0.000501171
0.0017432
0.000107744
0.00176376
0.000660748
0.00174274
0.00118922
0.00128036
0.0015783
0.00237869
0.000194108
2.23569e-05
0.000987041
-0.000945072
0.00131439
-0.00108267
0.00147139
-0.00103469
0.0015957
-0.000879678
0.00175771
-0.000710456
0.00151815
0.00141852
0.00135805
0.00131623
0.00128958
0.00127715
0.00128478
0.0013317
0.00148164
0.0012626
0.000633817
0.00102348
0.000960839
0.000694398
0.00140339
0.00158054
-0.000674067
0.00464298
-0.00105518
0.00240881
-0.00130985
0.00152667
-0.0013939
0.000524644
-0.00119486
-0.000743766
-0.000759729
-0.00203726
-0.00022984
-0.00299677
0.000248487
-0.00329348
0.000689639
-0.00293882
0.00104368
-0.00222171
0.00127638
-0.00140116
0.00140672
-0.00063157
0.00147987
3.45436e-05
0.0015404
0.000600161
0.00164654
0.00108303
0.00183845
0.00138635
0.00271297
0.00150412
0.0021291
0.000574082
0.00235893
-0.000207519
0.00208129
-0.000667483
0.00190904
-0.000910459
0.00178146
-0.000907159
0.00167646
-0.000774739
0.0015196
-0.000553644
0.00172828
-0.000208894
0.00179487
-6.6801e-05
0.00180746
-1.27931e-05
0.00178736
1.98841e-05
0.00173765
4.94947e-05
0.00165513
8.23032e-05
0.00152758
0.000127335
0.00132967
0.000197688
0.00101019
0.000319261
0.00101333
0.000630612
0.000968111
0.00100599
0.000898311
0.00147312
0.00245707
-0.000491222
0.00521909
-0.000720775
0.00263835
-0.000774321
0.0015802
-0.000704332
0.000454638
-0.000390593
-0.00105752
-1.26549e-06
-0.00242659
0.000336184
-0.00333424
0.000603426
-0.00356076
0.000833582
-0.00316903
0.000997751
-0.00238594
0.00108193
-0.00148541
0.00111569
-0.00066539
0.00115073
-5.54699e-07
0.00124041
0.000510421
0.00144142
0.000881977
0.0017554
0.00107233
0.00219909
0.0010604
0.00231783
0.000455297
0.00224596
-0.000135697
0.0020707
-0.000492264
0.001832
-0.000671812
0.00160507
-0.000680283
0.00140484
-0.000574561
0.00124611
-0.000394976
0.00121325
-0.000176092
0.00117885
-3.24536e-05
0.00113033
3.56699e-05
0.00108301
6.71415e-05
0.00104202
9.04233e-05
0.001002
0.000122254
0.000953165
0.000176109
0.000886826
0.00026396
0.000817396
0.000388621
0.000850235
0.000597704
0.00102491
0.000831248
0.00155182
0.000946138
0.00264462
0.00136419
0.00170919
0.000935161
0.00106732
0.000641582
0.00109213
-0.000393392
0.00571187
-0.000465146
0.00271008
-0.000205165
0.0013202
0.000192437
5.70177e-05
0.00061776
-0.00148285
0.0008981
-0.00270694
0.00101961
-0.00345575
0.0010524
-0.00359358
0.00102616
-0.00314285
0.000949698
-0.00230956
0.000838269
-0.00137406
0.000736912
-0.000564102
0.000705313
3.09837e-05
0.000785078
0.000430602
0.000983848
0.000683158
0.00126975
0.000786374
0.00162451
0.000705594
0.00176987
0.000309888
0.00170528
-7.11559e-05
0.00153645
-0.000323485
0.00130337
-0.000438781
0.0010588
-0.000435777
0.000834096
-0.000349915
0.000652802
-0.000213744
0.00053965
-6.30026e-05
0.000470476
3.66571e-05
0.000428965
7.7117e-05
0.000409887
8.61553e-05
0.000411329
8.89161e-05
0.000431229
0.000102285
0.000465551
0.000141718
0.000510707
0.000218731
0.000571995
0.00032726
0.000699505
0.000470122
0.000916205
0.000614478
0.00119202
0.000670252
0.00154058
0.00101556
0.00139298
0.00108269
0.000855878
0.00117861
0.0019748
-0.000285898
0.00611098
-1.06967e-05
0.00243486
0.000808131
0.000501351
0.00145872
-0.000593595
0.00181771
-0.00184184
0.00192938
-0.0028186
0.0018103
-0.00333668
0.0015382
-0.00332151
0.00118773
-0.00279246
0.000816104
-0.00193803
0.000476595
-0.00103464
0.000235095
-0.000322677
0.00015489
0.000111128
0.000228705
0.000356736
0.000415018
0.000496795
0.000663782
0.000537562
0.000918144
0.000451182
0.00101228
0.000215695
0.000947981
-6.90963e-06
0.000781683
-0.000157248
0.000558939
-0.0002161
0.000320913
-0.000197818
0.000100053
-0.000129123
-7.71442e-05
-3.66153e-05
-0.000186476
4.626e-05
-0.000235462
8.55746e-05
-0.000246338
8.79246e-05
-0.000230513
7.02612e-05
-0.000187562
4.58936e-05
-0.000113848
2.8497e-05
-6.61556e-06
3.44101e-05
0.000130305
8.17329e-05
0.000287421
0.000170066
0.000471107
0.00028636
0.000674135
0.000411374
0.000845484
0.000498827
0.00108969
0.000771277
0.00125273
0.000919578
0.00114978
0.00128148
0.00315297
0.00143063
0.00480837
0.00203078
0.0018347
0.00260526
-7.31538e-05
0.003186
-0.00117434
0.00336336
-0.0020192
0.00314485
-0.00260008
0.00262137
-0.00281321
0.00192108
-0.00262125
0.00116123
-0.00203269
0.000457173
-0.00123407
-8.10292e-05
-0.000496539
-0.000370424
-3.33546e-05
-0.00044082
0.000181464
-0.000372336
0.000288197
-0.000222409
0.000346813
-4.0111e-05
0.000355207
0.000111279
0.000299732
0.000144221
0.000182689
6.64333e-05
7.08099e-05
-9.14015e-05
5.15596e-07
-0.000292445
-1.51305e-05
-0.00049772
7.38094e-06
-0.000675071
4.81523e-05
-0.000799408
8.76462e-05
-0.000864042
0.000110819
-0.000887371
0.000108828
-0.00088408
8.45582e-05
-0.000859356
4.54589e-05
-0.000813712
1.69791e-07
-0.000741311
-4.39853e-05
-0.000630034
-7.69495e-05
-0.000466095
-8.22881e-05
-0.000255368
-4.07409e-05
-2.16712e-05
5.25828e-05
0.000194977
0.000194645
0.000333447
0.000360279
0.000508309
0.00059634
0.000651487
0.000776324
0.000247506
0.00168539
0.00350601
0.00493513
0.00675549
0.00639536
0.000286961
0.00597119
-0.000750155
0.00529842
-0.00134642
0.00430438
-0.00160604
0.00309172
-0.00160056
0.00183077
-0.00136036
0.000615858
-0.00081789
-0.000320342
-0.000297991
-0.000854421
3.74448e-05
-0.0010558
0.000167943
-0.00108371
0.000209308
-0.00102791
0.00023233
-0.000931487
0.000250322
-0.000831223
0.000254872
-0.000767675
0.00023611
-0.000778849
0.000193786
-0.000859595
0.000151476
-0.000984721
0.000125559
-0.00112131
0.000121377
-0.00124493
0.000130915
-0.00134036
0.000143504
-0.00140402
0.000151216
-0.00144112
0.000147837
-0.00146273
0.00013035
-0.00147823
9.99738e-05
-0.00149378
6.09197e-05
-0.0015138
2.01003e-05
-0.00154683
-1.10395e-05
-0.00160435
-1.95182e-05
-0.00169578
9.05559e-06
-0.00182691
9.03161e-05
-0.00201492
0.000240512
-0.00230189
0.000481532
-0.00277963
0.000837944
-0.00352744
0.00134407
-0.0046254
0.00187421
-0.00481283
0.00187274
-0.00119818
0.00640018
0.000377877
0.00560801
4.20181e-05
0.00444402
-0.000182438
0.00306331
-0.000225373
0.00157142
-0.000108719
0.00011689
9.40604e-05
-0.0009819
0.00028075
-0.00154238
0.000262375
-0.00174442
0.000239402
-0.00178449
0.000207927
-0.00176442
0.000189166
-0.00171803
0.000185851
-0.00166174
0.00019395
-0.00161096
0.000204009
-0.00158179
0.00020686
-0.00158653
0.000198437
-0.00161984
0.0001847
-0.00166725
0.00017287
-0.00171259
0.000166635
-0.00174627
0.0001645
-0.00176578
0.000162923
-0.00177334
0.00015868
-0.00177452
0.000148921
-0.00177626
0.00013199
-0.00178448
0.000108095
-0.00180318
7.95259e-05
-0.00183445
5.12675e-05
-0.00187664
3.10531e-05
-0.00192677
3.05234e-05
-0.00198357
6.57665e-05
-0.00204181
0.000148459
-0.00210033
0.000298951
-0.00215242
0.000533534
-0.00218432
0.000869762
-0.00215701
0.00131668
-0.00190629
0.00162341
-0.000675049
0.000641419
-0.00184984
-0.000801851
0.0011673
-0.00116636
0.000406389
-0.0015384
0.000189496
-0.0019237
0.00015984
-0.0022389
0.000206375
-0.00241741
0.000272477
-0.00245504
0.000318272
-0.00246734
0.000274579
-0.00244446
0.000216429
-0.0024055
0.000168879
-0.00235792
0.000141503
-0.00230396
0.000131797
-0.00224426
0.000134166
-0.00218223
0.000141887
-0.00212405
0.000148584
-0.00207576
0.000150053
-0.0020378
0.000146639
-0.00200582
0.000140798
-0.00197398
0.000134692
-0.00193837
0.000128793
-0.00189811
0.000122564
-0.00185473
0.000115196
-0.00181172
0.000105811
-0.00177383
9.40007e-05
-0.00174614
8.03028e-05
-0.00173315
6.64272e-05
-0.00173739
5.54014e-05
-0.00175789
5.14523e-05
-0.00178751
6.005e-05
-0.0018093
8.74543e-05
-0.00179987
0.000138937
-0.00172396
0.000222953
-0.00153816
0.000347639
-0.00117094
0.000502462
-0.000458931
0.000604585
0.000633886
0.000530514
0.00132229
-4.70741e-05
-0.000503836
-0.00517828
-0.00605335
-0.00490734
-0.00452269
-0.0043574
-0.00422423
-0.00404694
-0.00380593
-0.00352137
-0.00328223
-0.00310225
-0.00297038
-0.00286617
-0.00277183
-0.00267521
-0.00257096
-0.0024601
-0.00234789
-0.00223924
-0.00213654
-0.00204003
-0.00194941
-0.00186496
-0.00178773
-0.0017197
-0.00166328
-0.00162035
-0.00159117
-0.00157298
-0.00155889
-0.00153654
-0.00148737
-0.0013875
-0.00120456
-0.000897928
-0.000437489
0.000123994
0.000610324
0.000519623
)
;

boundaryField
{
    floor
    {
        type            calculated;
        value           nonuniform List<scalar> 
29
(
0
0
0
0
0
0
0
0
0
0
0
0
0
0
0
0
0
0
0
0
3.70614e-06
1.03327e-05
1.64557e-05
2.17104e-05
1.57203e-06
2.69562e-06
6.42352e-06
9.88044e-06
9.7445e-06
)
;
    }
    ceiling
    {
        type            calculated;
        value           nonuniform List<scalar> 
43
(
2.42492e-05
2.26352e-05
2.11437e-05
2.1627e-05
2.40936e-05
2.65715e-05
2.89846e-05
3.13757e-05
3.36148e-05
3.53384e-05
3.63617e-05
3.69101e-05
3.72001e-05
3.73577e-05
3.74528e-05
3.75319e-05
3.76266e-05
3.77489e-05
3.78842e-05
3.80019e-05
3.80715e-05
3.80734e-05
3.80021e-05
3.78638e-05
3.76757e-05
3.74651e-05
3.72685e-05
3.71322e-05
3.7109e-05
3.7252e-05
3.76033e-05
3.81808e-05
3.89696e-05
3.99095e-05
4.09161e-05
4.19317e-05
4.30112e-05
4.40939e-05
4.35329e-05
4.5066e-05
1.65878e-05
1.43132e-05
1.22246e-05
)
;
    }
    sWall
    {
        type            calculated;
        value           uniform -3.00783e-05;
    }
    nWall
    {
        type            calculated;
        value           nonuniform List<scalar> 6(-2.50904e-05 -2.68616e-05 -2.84724e-05 -2.3482e-05 -2.37994e-05 -2.9377e-05);
    }
    sideWalls
    {
        type            empty;
        value           nonuniform 0();
    }
    glass1
    {
        type            calculated;
        value           nonuniform List<scalar> 9(-1.13024e-05 -3.21528e-05 -5.1293e-05 -6.88784e-05 -8.49061e-05 -9.94041e-05 -0.000113231 -0.000128038 -0.000143361);
    }
    glass2
    {
        type            calculated;
        value           nonuniform List<scalar> 2(-0.000105598 -0.000108723);
    }
    sun
    {
        type            calculated;
        value           uniform 0;
    }
    heatsource1
    {
        type            calculated;
        value           nonuniform List<scalar> 3(2.05719e-07 2.06111e-07 2.06363e-07);
    }
    heatsource2
    {
        type            calculated;
        value           nonuniform List<scalar> 4(5.16318e-08 5.17715e-08 0 0);
    }
    Table_master
    {
        type            calculated;
        value           nonuniform List<scalar> 9(-1.54673e-07 -1.54798e-07 -1.54832e-07 -1.54849e-07 -1.54857e-07 -1.54858e-07 -1.54851e-07 -1.54826e-07 -1.54767e-07);
    }
    Table_slave
    {
        type            calculated;
        value           nonuniform List<scalar> 9(1.54527e-07 1.54546e-07 1.54529e-07 1.54516e-07 1.54511e-07 1.54517e-07 1.54536e-07 1.54571e-07 1.54631e-07);
    }
    inlet
    {
        type            calculated;
        value           uniform -0.00649108;
    }
    outlet
    {
        type            calculated;
        value           nonuniform List<scalar> 2(0.00518397 0.000852294);
    }
}


// ************************************************************************* //
