// -*- C++ -*-
// File generated by PyFoam - sorry for the ugliness

FoamFile
{
 version 2.0;
 format ascii;
 class volScalarField;
 location "1300";
 object T;
}

dimensions [ 0 0 0 1 0 0 0 ];

internalField nonuniform List<scalar> 459
(
  308.463
  308.377
  308.403
  308.429
  308.441
  308.441
  308.432
  308.418
  308.405
  308.399
  308.402
  308.413
  308.431
  308.447
  308.454
  305.686
  305.539
  305.405
  305.377
  305.421
  305.47
  305.539
  305.555
  305.53
  305.499
  305.47
  305.447
  305.435
  305.401
  305.368
  305.374
  305.391
  305.468
  305.625
  308.645
  308.611
  308.685
  308.726
  308.733
  308.734
  308.728
  308.714
  308.698
  308.687
  308.684
  308.691
  308.701
  308.709
  308.705
  308.675
  307.982
  306.237
  306.157
  306.136
  306.103
  306.035
  306.044
  306.127
  306.095
  306.06
  306.036
  306.019
  306.001
  305.983
  306.039
  306.128
  306.255
  306.236
  306.247
  306.555
  308.934
  308.915
  308.983
  309.026
  308.979
  308.964
  308.958
  308.949
  308.937
  308.927
  308.926
  308.932
  308.939
  308.937
  308.912
  308.858
  308.78
  307.274
  307.223
  307.198
  307.195
  307.184
  307.117
  306.401
  306.494
  306.63
  306.766
  306.909
  307.062
  307.23
  307.417
  307.689
  308.044
  307.94
  307.744
  307.799
  312.156
  311.004
  310.329
  309.874
  309.495
  309.212
  309.173
  309.173
  309.171
  309.171
  309.18
  309.197
  309.213
  309.213
  309.178
  309.083
  308.905
  308.673
  308.515
  308.746
  308.94
  309.132
  309.308
  309.45
  309.57
  309.605
  309.633
  309.657
  309.677
  309.692
  309.7
  309.697
  309.67
  309.586
  309.614
  309.623
  309.532
  314.73
  312.755
  311.497
  310.635
  309.995
  309.545
  309.393
  309.397
  309.412
  309.43
  309.461
  309.504
  309.552
  309.596
  309.623
  309.621
  309.588
  309.541
  309.517
  309.564
  309.639
  309.724
  309.804
  309.87
  309.921
  309.961
  309.996
  310.03
  310.064
  310.1
  310.137
  310.176
  310.218
  310.261
  310.336
  310.423
  310.53
  310.647
  310.716
  310.792
  315.089
  314.292
  312.796
  311.508
  310.52
  309.886
  309.642
  309.639
  309.681
  309.727
  309.788
  309.858
  309.927
  309.99
  310.042
  310.074
  310.078
  310.067
  310.062
  310.076
  310.101
  310.135
  310.175
  310.213
  310.247
  310.277
  310.306
  310.336
  310.368
  310.401
  310.438
  310.479
  310.523
  310.571
  310.622
  310.674
  310.726
  310.782
  310.835
  310.919
  315.208
  314.974
  313.774
  312.305
  310.969
  310.144
  309.893
  309.944
  310.041
  310.133
  310.214
  310.297
  310.384
  310.466
  310.531
  310.576
  310.597
  310.597
  310.59
  310.586
  310.586
  310.592
  310.603
  310.615
  310.629
  310.642
  310.656
  310.672
  310.689
  310.709
  310.731
  310.758
  310.788
  310.82
  310.851
  310.88
  310.908
  310.934
  310.959
  311.023
  315.269
  315.205
  314.307
  312.754
  311.033
  310.262
  310.205
  310.432
  310.627
  310.76
  310.861
  310.95
  311.034
  311.114
  311.18
  311.22
  311.235
  311.229
  311.211
  311.188
  311.166
  311.145
  311.128
  311.113
  311.1
  311.089
  311.08
  311.072
  311.067
  311.064
  311.065
  311.07
  311.079
  311.091
  311.106
  311.119
  311.129
  311.124
  311.1
  311.128
  315.326
  315.381
  315.426
  312.526
  311.01
  310.583
  310.886
  311.338
  311.65
  311.845
  311.958
  312.02
  312.06
  312.086
  312.099
  312.093
  312.066
  312.024
  311.975
  311.923
  311.869
  311.817
  311.766
  311.718
  311.672
  311.629
  311.588
  311.55
  311.515
  311.483
  311.455
  311.431
  311.411
  311.396
  311.383
  311.369
  311.347
  311.299
  311.214
  311.199
  320.045
  313.173
  311.626
  311.62
  312.523
  313.035
  313.291
  313.402
  313.436
  313.425
  313.385
  313.325
  313.25
  313.162
  313.066
  312.967
  312.867
  312.769
  312.672
  312.579
  312.489
  312.401
  312.317
  312.236
  312.159
  312.085
  312.014
  311.948
  311.885
  311.826
  311.772
  311.72
  311.67
  311.616
  311.549
  311.447
  311.27
  311.049
  318.938
  315.231
  314.411
  314.465
  314.663
  314.815
  314.884
  314.888
  314.84
  314.753
  314.636
  314.501
  314.356
  314.209
  314.06
  313.912
  313.764
  313.62
  313.478
  313.341
  313.208
  313.081
  312.958
  312.839
  312.725
  312.615
  312.509
  312.406
  312.308
  312.213
  312.121
  312.032
  311.942
  311.847
  311.738
  311.598
  311.397
  311.121
  318.047
  317.974
  318.275
  317.978
  317.624
  317.39
  317.193
  317.013
  316.842
  316.672
  316.498
  316.316
  316.126
  315.926
  315.719
  315.506
  315.292
  315.082
  314.877
  314.679
  314.486
  314.3
  314.119
  313.943
  313.771
  313.604
  313.442
  313.285
  313.131
  312.981
  312.835
  312.692
  312.552
  312.412
  312.272
  312.127
  311.969
  311.779
  311.518
  311.167
)
;

boundaryField
{
  floor
  {
    type wallHeatTransfer;
    Tinf uniform 305.2;
    alphaWall uniform 0.24;
    value nonuniform List<scalar> 29
(
  307.929
  305.565
  305.458
  305.35
  305.326
  305.356
  305.387
  305.435
  305.45
  305.436
  305.418
  305.399
  305.385
  305.377
  305.351
  305.326
  305.332
  305.346
  305.411
  305.521
  305.521
  306.331
  307.478
  309.081
  307.929
  305.565
  306.044
  306.989
  308.262
)
;
  }
  ceiling
  {
    type wallHeatTransfer;
    Tinf uniform 303.2;
    alphaWall uniform 0.24;
    value nonuniform List<scalar> 43
(
  316.23
  316.807
  317.783
  317.479
  317.102
  316.835
  316.603
  316.388
  316.181
  315.979
  315.78
  315.582
  315.385
  315.19
  314.996
  314.8
  314.604
  314.41
  314.218
  314.031
  313.848
  313.67
  313.497
  313.328
  313.163
  313.002
  312.846
  312.694
  312.546
  312.402
  312.261
  312.123
  311.987
  311.852
  311.717
  311.576
  311.425
  311.246
  310.977
  310.598
  314.985
  315.107
  318.631
)
;
  }
  sWall
  {
    type wallHeatTransfer;
    Tinf uniform 315.2;
    alphaWall uniform 0.36;
    value uniform 317.552;
  }
  nWall
  {
    type wallHeatTransfer;
    Tinf uniform 307.2;
    alphaWall uniform 0.36;
    value nonuniform List<scalar> 6
(
  310.401
  310.583
  310.722
  310.679
  310.754
  310.756
)
;
  }
  sideWalls
  {
    type empty;
  }
  glass1
  {
    type wallHeatTransfer;
    Tinf uniform 315.2;
    alphaWall uniform 4.3;
    value nonuniform List<scalar> 9
(
  313.553
  313.111
  313.143
  313.896
  314.967
  315.14
  315.204
  315.242
  315.283
)
;
  }
  glass2
  {
    type wallHeatTransfer;
    Tinf uniform 307.2;
    alphaWall uniform 4.3;
    value nonuniform List<scalar> 2
(
  309.278
  309.308
)
;
  }
  sun
  {
    type wallHeatTransfer;
    Tinf uniform 305.2;
    alphaWall uniform 0.24;
    value nonuniform List<scalar> 14
(
  307.989
  307.935
  307.94
  307.96
  307.959
  307.948
  307.929
  307.906
  307.885
  307.872
  307.872
  307.883
  307.902
  307.921
)
;
  }
  heatsource1
  {
    type fixedGradient;
    gradient uniform 0;
  }
  heatsource2
  {
    type fixedGradient;
    gradient uniform 0;
  }
  Table_master
  {
    type zeroGradient;
  }
  Table_slave
  {
    type zeroGradient;
  }
  inlet
  {
    type fixedValue;
    value uniform 293.15;
  }
  outlet
  {
    type zeroGradient;
  }
} 	// ************************************************************************* //

