/*--------------------------------*- C++ -*----------------------------------*\
  =========                 |
  \\      /  F ield         | OpenFOAM: The Open Source CFD Toolbox
   \\    /   O peration     | Website:  https://openfoam.org
    \\  /    A nd           | Version:  6
     \\/     M anipulation  |
\*---------------------------------------------------------------------------*/
FoamFile
{
    version     2.0;
    format      ascii;
    class       volScalarField;
    location    "900";
    object      alphat;
}
// * * * * * * * * * * * * * * * * * * * * * * * * * * * * * * * * * * * * * //

dimensions      [1 -1 -1 0 0 0 0];

internalField   nonuniform List<scalar> 
459
(
0.00119285
0.00129838
0.0013183
0.00137965
0.0014359
0.00148783
0.00153771
0.00158847
0.0016295
0.00165311
0.00165312
0.00162473
0.00156713
0.00148736
0.00139992
0.000522302
0.00064548
0.000713538
0.000696731
0.0006664
0.000631515
0.000592997
0.00055627
0.000523111
0.000493575
0.000467293
0.000443837
0.000422939
0.000404017
0.000386428
0.000369287
0.000351229
0.000339374
0.000310488
0.00164074
0.0038512
0.00363111
0.00421743
0.00477785
0.0053481
0.0058777
0.00628536
0.00664127
0.00694471
0.0071491
0.00719234
0.0069782
0.00629694
0.00452676
0.00142061
0.000913923
0.000580292
0.00114026
0.00151737
0.00176485
0.00187699
0.00185841
0.00155748
0.00136849
0.00122808
0.00111767
0.00102815
0.000953936
0.000887086
0.000824544
0.000764543
0.000712444
0.000665783
0.00078878
0.000414365
0.0020174
0.00526666
0.00444508
0.00567413
0.00625744
0.00668518
0.00701294
0.00726659
0.00752694
0.00781007
0.00808558
0.00830215
0.00838875
0.00826715
0.00775429
0.00624102
0.00137418
0.0011876
0.00161171
0.00196629
0.00225349
0.00242886
0.00234819
0.000841477
0.00074928
0.000674853
0.000614415
0.000564857
0.000523804
0.00048953
0.000460902
0.000437372
0.000468669
0.000537146
0.000881754
0.000482359
0.00238276
0.00683308
0.0044117
0.00602517
0.00659758
0.0067807
0.00685798
0.0069461
0.00711854
0.0073826
0.00770989
0.00804911
0.00831891
0.00846704
0.00841198
0.00791372
0.00614296
0.00161939
0.002011
0.00252755
0.00295674
0.00325275
0.00341319
0.0031966
0.000942358
0.000865113
0.000810619
0.000769624
0.00073468
0.000701608
0.000669716
0.000635862
0.000595892
0.000559696
0.000566853
0.00100518
0.000534551
0.00275671
0.00887166
0.00487486
0.00572895
0.00655756
0.00665035
0.00656121
0.0065099
0.00665417
0.00691451
0.00727384
0.00767823
0.00801272
0.00820451
0.00820215
0.00795374
0.00730263
0.00597059
0.00544423
0.00518768
0.00502678
0.00491424
0.00482604
0.0046675
0.00404
0.00375462
0.00359711
0.00347252
0.00332865
0.00310405
0.00277703
0.00236612
0.00189991
0.0014165
0.00104186
0.00103076
0.000708372
0.000668699
0.000810062
0.000906815
0.00315289
0.0110902
0.00687978
0.00555205
0.0061597
0.00649631
0.00640201
0.00635097
0.00648653
0.00672591
0.00707987
0.00749693
0.00786472
0.00806415
0.00802491
0.00775339
0.00732176
0.00682981
0.00649044
0.00623365
0.00600439
0.00580828
0.00564316
0.00547558
0.00523761
0.00502967
0.00483994
0.00464751
0.00443979
0.00420402
0.00387748
0.00344351
0.00290069
0.00227802
0.00171041
0.00126326
0.000965411
0.000830336
0.00119552
0.000943363
0.00352032
0.0126867
0.00993959
0.00727397
0.00666304
0.00673641
0.00668726
0.00658332
0.00658323
0.00676587
0.00712878
0.00758019
0.00797187
0.00815567
0.00805364
0.00770099
0.00725239
0.0069003
0.00670628
0.0065342
0.0063053
0.00603315
0.00574322
0.00546226
0.00520612
0.00498718
0.00478543
0.00458798
0.00439415
0.00421081
0.00403807
0.00375208
0.00331739
0.00277407
0.00224424
0.00175815
0.00141077
0.00130151
0.00133376
0.00105649
0.00359385
0.0114794
0.0100863
0.00915576
0.00844102
0.00783601
0.00718968
0.00676458
0.00668457
0.00693711
0.00741248
0.00793961
0.00833009
0.0084261
0.00817913
0.00767904
0.00715586
0.00683647
0.00668358
0.00638655
0.00595776
0.00549641
0.00508366
0.00475903
0.00451571
0.00432378
0.00415718
0.00400885
0.00388495
0.00379787
0.003761
0.00374765
0.00349123
0.00312015
0.00278782
0.00261096
0.00270136
0.00313062
0.00391721
0.00167349
0.00349911
0.00416954
0.004667
0.0048623
0.00496439
0.00505758
0.00529998
0.00578314
0.00649459
0.00732607
0.00811131
0.00868246
0.0089046
0.00868422
0.00809319
0.00736614
0.0068543
0.00647045
0.0060467
0.00549257
0.00491124
0.00441976
0.00405609
0.00379817
0.00360654
0.00344887
0.00330695
0.00317354
0.0030453
0.00291835
0.00278796
0.00265644
0.00254702
0.00246597
0.00243926
0.00246036
0.00246211
0.00237913
0.00223241
0.00157846
0.00191471
0.00374909
0.00523177
0.00641327
0.00747737
0.00842638
0.0091933
0.00968046
0.0098333
0.00964215
0.00911309
0.0082315
0.00720017
0.00635426
0.00576538
0.00520003
0.00459847
0.00403696
0.00359601
0.00328234
0.00306038
0.0028946
0.00276126
0.00264807
0.00255059
0.00246868
0.00240409
0.00235955
0.00233967
0.00234753
0.00236808
0.00239992
0.00243664
0.00245177
0.00240005
0.00226311
0.0020548
0.00131513
0.00239062
0.00548806
0.00775646
0.00869171
0.00939438
0.00980108
0.0098759
0.00957051
0.00893705
0.00806035
0.00707272
0.00613022
0.00532494
0.00465014
0.00405634
0.00355931
0.00319496
0.00294432
0.00275939
0.00260853
0.00248233
0.00237997
0.00229807
0.00223586
0.00219373
0.00217203
0.00217007
0.00218519
0.00222294
0.00228381
0.00236478
0.00245894
0.00254958
0.00261381
0.00260291
0.00264355
0.00268924
0.00134016
0.0020873
0.00221154
0.0023
0.00243904
0.00233268
0.00221335
0.00212217
0.00202304
0.00190878
0.00177001
0.0016056
0.00142407
0.00124093
0.00107395
0.000939645
0.000844993
0.00078397
0.000746282
0.000723795
0.000711528
0.000706581
0.000707927
0.000714468
0.000725098
0.000739915
0.000759111
0.000782944
0.00081179
0.00084628
0.000887551
0.000935173
0.000988657
0.00104875
0.00111621
0.0011909
0.00127912
0.00131178
0.001281
0.00120323
0.00112204
)
;

boundaryField
{
    floor
    {
        type            compressible::alphatWallFunction;
        Prt             0.85;
        value           nonuniform List<scalar> 
29
(
0.000197492
7.26577e-05
9.11647e-05
0.000101199
9.87322e-05
9.42615e-05
8.90889e-05
8.33368e-05
7.78092e-05
7.27796e-05
6.82659e-05
6.42209e-05
6.05865e-05
5.73279e-05
5.43596e-05
5.15844e-05
4.8864e-05
4.59803e-05
4.40768e-05
3.94016e-05
3.9401e-05
5.59856e-05
6.65439e-05
7.45204e-05
0.00019749
7.26568e-05
8.14305e-05
0.000168457
0.000226984
)
;
    }
    ceiling
    {
        type            compressible::alphatWallFunction;
        Prt             0.85;
        value           nonuniform List<scalar> 
43
(
0.000288371
0.000304426
0.000315802
0.0003337
0.00032015
0.000304841
0.00029308
0.000280225
0.00026532
0.000247083
0.000225265
0.000200883
0.000175925
0.000152799
0.000133896
0.000120385
0.00011158
0.000106101
0.000102817
0.00010102
0.000100295
0.000100493
0.000101453
0.000103011
0.000105177
0.000107975
0.000111437
0.00011561
0.000120577
0.000126489
0.00013327
0.000140838
0.000149284
0.000158698
0.000169047
0.000181175
0.000185641
0.000181434
0.00017075
0.000159513
0.000466474
0.000548051
0.00032726
)
;
    }
    sWall
    {
        type            compressible::alphatWallFunction;
        Prt             0.85;
        value           uniform 0.000287162;
    }
    nWall
    {
        type            compressible::alphatWallFunction;
        Prt             0.85;
        value           nonuniform List<scalar> 6(0.000128919 0.000134108 0.000150034 0.000185772 0.000189181 0.000159191);
    }
    sideWalls
    {
        type            empty;
    }
    glass1
    {
        type            compressible::alphatWallFunction;
        Prt             0.85;
        value           nonuniform List<scalar> 9(0.000165058 0.000224888 0.000273927 0.000320641 0.000367733 0.000416946 0.000462061 0.00047116 0.000459821);
    }
    glass2
    {
        type            compressible::alphatWallFunction;
        Prt             0.85;
        value           nonuniform List<scalar> 2(0.00023264 0.000220088);
    }
    sun
    {
        type            compressible::alphatWallFunction;
        Prt             0.85;
        value           nonuniform List<scalar> 
14
(
0.000169203
0.00018368
0.000186399
0.000194747
0.000202365
0.000209368
0.000216068
0.000222862
0.000228336
0.000231478
0.00023148
0.000227698
0.000220006
0.000209301
)
;
    }
    heatsource1
    {
        type            compressible::alphatWallFunction;
        Prt             0.85;
        value           nonuniform List<scalar> 3(9.47052e-05 0.000115346 0.000129221);
    }
    heatsource2
    {
        type            compressible::alphatWallFunction;
        Prt             0.85;
        value           nonuniform List<scalar> 4(0.00020041 0.000130233 0.000130232 0.000194115);
    }
    Table_master
    {
        type            compressible::alphatWallFunction;
        Prt             0.85;
        value           nonuniform List<scalar> 9(0.000119865 0.000106524 9.56094e-05 8.66385e-05 7.92016e-05 7.29795e-05 6.77381e-05 6.33246e-05 5.96709e-05);
    }
    Table_slave
    {
        type            compressible::alphatWallFunction;
        Prt             0.85;
        value           nonuniform List<scalar> 9(0.00013427 0.00012326 0.000115423 0.000109487 0.000104397 9.95518e-05 9.48538e-05 8.98367e-05 8.38706e-05);
    }
    inlet
    {
        type            fixedValue;
        value           uniform 1.94e-05;
    }
    outlet
    {
        type            zeroGradient;
    }
}


// ************************************************************************* //
