// -*- C++ -*-
// File generated by PyFoam - sorry for the ugliness

FoamFile
{
 version 2.0;
 format ascii;
 class volVectorField;
 location "480";
 object U;
}

dimensions [ 0 1 -1 0 0 0 0 ];

internalField nonuniform List<vector> 459
(
  (0.0061809 0.0579487 0)
  (-0.114527 0.0202049 0)
  (-0.138266 0.0118207 0)
  (-0.159757 0.00534468 0)
  (-0.171648 -0.00151963 0)
  (-0.172156 -0.00892536 0)
  (-0.159804 -0.0171477 0)
  (-0.135047 -0.0255378 0)
  (-0.100278 -0.0324656 0)
  (-0.0606709 -0.036349 0)
  (-0.0229347 -0.035941 0)
  (0.0175971 -0.0227876 0)
  (0.0333666 -0.0109286 0)
  (0.0372135 0.00293185 0)
  (0.0513435 0.0250722 0)
  (-0.0805286 0.00774639 0)
  (0.0162647 -0.00166458 0)
  (0.0107349 -0.013305 0)
  (0.0266384 -0.0153702 0)
  (0.0433225 -0.0135846 0)
  (0.0577896 -0.0102503 0)
  (0.0674697 -0.00593362 0)
  (0.0723633 -0.00346409 0)
  (0.0740782 -0.00254432 0)
  (0.074519 -0.00219633 0)
  (0.0745884 -0.00195876 0)
  (0.0743612 -0.00169179 0)
  (0.0736628 -0.00129602 0)
  (0.0721208 -0.000537107 0)
  (0.0688833 0.00112716 0)
  (0.062206 0.00460492 0)
  (0.0501801 0.00973667 0)
  (0.0179859 0.0183836 0)
  (0.0598583 0.00757333 0)
  (0.108085 0.118772 0)
  (-0.103833 0.053958 0)
  (-0.112908 0.0394318 0)
  (-0.13497 0.0265077 0)
  (-0.147303 0.0116835 0)
  (-0.148806 -0.00547157 0)
  (-0.137965 -0.0245715 0)
  (-0.115887 -0.0427296 0)
  (-0.0854717 -0.0559477 0)
  (-0.0518409 -0.0610809 0)
  (-0.0203754 -0.0567323 0)
  (0.00857495 -0.0394778 0)
  (0.0270423 -0.0191723 0)
  (0.0394852 0.00194303 0)
  (0.0518538 0.0250691 0)
  (0.0510618 0.0282308 0)
  (0.0346761 0.0319511 0)
  (-0.0963612 0.0049582 0)
  (0.0252364 -0.021777 0)
  (0.0298478 -0.0266956 0)
  (0.0419522 -0.026889 0)
  (0.0543609 -0.0231417 0)
  (0.0645778 -0.0170222 0)
  (0.0700403 -0.00696643 0)
  (0.0712482 -0.000986282 0)
  (0.0710706 0.00129871 0)
  (0.0711123 0.00216552 0)
  (0.0713792 0.00269679 0)
  (0.0715701 0.00316758 0)
  (0.071582 0.00383112 0)
  (0.0713689 0.00519467 0)
  (0.0703248 0.00843326 0)
  (0.0656699 0.0168604 0)
  (0.0554006 0.0259066 0)
  (0.0212572 0.0368654 0)
  (0.1007 0.0269493 0)
  (0.203599 0.177944 0)
  (-0.108461 0.0837594 0)
  (-0.0868976 0.0626792 0)
  (-0.108207 0.0410422 0)
  (-0.120224 0.0167819 0)
  (-0.122169 -0.0110188 0)
  (-0.111528 -0.0412516 0)
  (-0.0908195 -0.0688211 0)
  (-0.0638779 -0.0870215 0)
  (-0.0358371 -0.0917428 0)
  (-0.0105429 -0.0824972 0)
  (0.0116567 -0.0598474 0)
  (0.0279127 -0.0344613 0)
  (0.0398859 -0.00887725 0)
  (0.0483545 0.0158137 0)
  (0.0487064 0.0322149 0)
  (0.0407901 0.0591476 0)
  (-0.0336331 -0.0217028 0)
  (0.0384605 -0.0376027 0)
  (0.0507366 -0.0412917 0)
  (0.0571565 -0.0383244 0)
  (0.0637234 -0.0327221 0)
  (0.0698475 -0.0273037 0)
  (0.072603 -0.0199001 0)
  (0.0669477 -0.0127973 0)
  (0.0623585 -0.00911106 0)
  (0.0608039 -0.00711565 0)
  (0.060666 -0.00583858 0)
  (0.0609733 -0.00486844 0)
  (0.0617378 -0.00390013 0)
  (0.0636956 -0.00241331 0)
  (0.0686046 0.00206875 0)
  (0.0690558 0.0224006 0)
  (0.0610188 0.0381389 0)
  (0.0239298 0.055118 0)
  (0.125424 0.0565798 0)
  (0.293618 0.225862 0)
  (-0.124563 0.108806 0)
  (-0.0588988 0.0831613 0)
  (-0.0785487 0.0549259 0)
  (-0.0886773 0.0233143 0)
  (-0.0892331 -0.0147239 0)
  (-0.0766738 -0.0565556 0)
  (-0.0569972 -0.0926395 0)
  (-0.0344283 -0.114175 0)
  (-0.0131734 -0.117426 0)
  (0.00561666 -0.103394 0)
  (0.0208615 -0.0778388 0)
  (0.0336175 -0.0483129 0)
  (0.0439826 -0.0189916 0)
  (0.0534042 0.00851213 0)
  (0.0636398 0.0314165 0)
  (0.077743 0.0558556 0)
  (0.103485 0.00560483 0)
  (0.0969476 -0.0169786 0)
  (0.086083 -0.0336477 0)
  (0.0763972 -0.0400169 0)
  (0.070119 -0.0385366 0)
  (0.066462 -0.0334465 0)
  (0.0633339 -0.026338 0)
  (0.064684 -0.0160126 0)
  (0.0733564 -0.0109502 0)
  (0.0804082 -0.00824166 0)
  (0.0848727 -0.00661897 0)
  (0.0879425 -0.00532094 0)
  (0.0898772 -0.00389305 0)
  (0.0896491 -0.00190149 0)
  (0.0855734 0.00120532 0)
  (0.0751192 0.00609331 0)
  (0.0652756 0.0283245 0)
  (0.0634014 0.0475687 0)
  (0.0319481 0.069583 0)
  (0.142668 0.0991901 0)
  (0.376568 0.26254 0)
  (-0.148531 0.127392 0)
  (-0.0298002 0.0958036 0)
  (-0.0458287 0.0638656 0)
  (-0.0521343 0.0278615 0)
  (-0.0469199 -0.0190095 0)
  (-0.0304479 -0.0717332 0)
  (-0.0132451 -0.112827 0)
  (0.00268738 -0.134307 0)
  (0.0152353 -0.134117 0)
  (0.0249985 -0.117245 0)
  (0.033012 -0.0896327 0)
  (0.0398581 -0.0580582 0)
  (0.046103 -0.0275645 0)
  (0.053476 -0.000862092 0)
  (0.0632067 0.0193608 0)
  (0.0774266 0.0281712 0)
  (0.0890603 0.00412753 0)
  (0.087699 -0.014571 0)
  (0.0792144 -0.0264056 0)
  (0.0700601 -0.0315912 0)
  (0.0621191 -0.0315856 0)
  (0.0558683 -0.0281673 0)
  (0.0514624 -0.0220023 0)
  (0.050905 -0.0126171 0)
  (0.0540692 -0.0074324 0)
  (0.0576155 -0.00539517 0)
  (0.0607555 -0.00441337 0)
  (0.0637528 -0.0032434 0)
  (0.0664977 -0.00104334 0)
  (0.068635 0.00288695 0)
  (0.0689716 0.00895378 0)
  (0.0670693 0.017825 0)
  (0.0650144 0.033224 0)
  (0.0699251 0.0498188 0)
  (0.0613595 0.0672116 0)
  (0.118946 0.0987807 0)
  (0.113925 0.0773583 0)
  (0.117388 0.0546783 0)
  (-0.204066 0.0496914 0)
  (0.443152 0.292017 0)
  (-0.176162 0.137833 0)
  (-0.00509981 0.0951248 0)
  (-0.0112061 0.0667068 0)
  (-0.0118456 0.0308859 0)
  (0.00825249 -0.0304811 0)
  (0.0263631 -0.0883837 0)
  (0.0380641 -0.127118 0)
  (0.0444816 -0.144228 0)
  (0.0466596 -0.141119 0)
  (0.0461984 -0.12203 0)
  (0.0445926 -0.093149 0)
  (0.042969 -0.0610245 0)
  (0.0424283 -0.0312142 0)
  (0.0443391 -0.00709169 0)
  (0.0498238 0.0091269 0)
  (0.0587863 0.0138631 0)
  (0.0645592 0.0027534 0)
  (0.0632993 -0.0100487 0)
  (0.0570909 -0.01896 0)
  (0.0492876 -0.0235156 0)
  (0.0416573 -0.0243639 0)
  (0.0351359 -0.0224356 0)
  (0.0304741 -0.0183962 0)
  (0.0287357 -0.0131056 0)
  (0.029846 -0.0100602 0)
  (0.0322734 -0.00897295 0)
  (0.0352634 -0.00845428 0)
  (0.0386636 -0.00749033 0)
  (0.042395 -0.00523629 0)
  (0.0464658 -0.000684371 0)
  (0.0507065 0.00677845 0)
  (0.0540935 0.0169337 0)
  (0.0578596 0.0299748 0)
  (0.0657336 0.0432913 0)
  (0.0681806 0.0523825 0)
  (0.0908892 0.0672246 0)
  (0.0890845 0.0522097 0)
  (0.118043 0.0501981 0)
  (-0.17163 0.0782375 0)
  (0.488359 0.317142 0)
  (-0.193973 0.125705 0)
  (0.0172725 0.0637208 0)
  (0.031257 0.0506928 0)
  (0.0431323 0.014973 0)
  (0.0740386 -0.0503575 0)
  (0.0899474 -0.102095 0)
  (0.0938955 -0.133318 0)
  (0.0890059 -0.144015 0)
  (0.078306 -0.136585 0)
  (0.0647605 -0.115256 0)
  (0.0510432 -0.0860459 0)
  (0.0390479 -0.0549549 0)
  (0.0304097 -0.0276066 0)
  (0.0262157 -0.00719538 0)
  (0.026929 0.00502725 0)
  (0.0312919 0.00824001 0)
  (0.0339478 0.00219115 0)
  (0.0326966 -0.0062392 0)
  (0.0279333 -0.0128022 0)
  (0.0213691 -0.0165284 0)
  (0.0144906 -0.0177209 0)
  (0.00839015 -0.0170293 0)
  (0.00397286 -0.015126 0)
  (0.00204146 -0.0128805 0)
  (0.00247638 -0.0118236 0)
  (0.00427224 -0.011772 0)
  (0.00676849 -0.0118778 0)
  (0.00977884 -0.0114517 0)
  (0.0134074 -0.00984665 0)
  (0.0179805 -0.00610712 0)
  (0.0247951 0.00102724 0)
  (0.0325617 0.0110932 0)
  (0.0406719 0.0224511 0)
  (0.0507812 0.033319 0)
  (0.058627 0.0407881 0)
  (0.0728524 0.0515593 0)
  (0.0787479 0.0543069 0)
  (0.130761 0.0716762 0)
  (-0.118874 0.137653 0)
  (0.568967 0.317464 0)
  (-0.0533555 0.0988693 0)
  (0.0714233 -0.00188405 0)
  (0.113996 -0.0295218 0)
  (0.144063 -0.0580215 0)
  (0.162845 -0.0875373 0)
  (0.165223 -0.112967 0)
  (0.152952 -0.127535 0)
  (0.130211 -0.128437 0)
  (0.101968 -0.116362 0)
  (0.0725033 -0.0939991 0)
  (0.0454578 -0.0664915 0)
  (0.0231177 -0.0389379 0)
  (0.00782875 -0.0168602 0)
  (-0.000232557 -0.00232631 0)
  (-0.00197358 0.00491148 0)
  (-1.27615e-05 0.00611338 0)
  (0.0010453 0.00220995 0)
  (-0.000339233 -0.00320454 0)
  (-0.00445323 -0.00761122 0)
  (-0.010125 -0.0103631 0)
  (-0.0160612 -0.011756 0)
  (-0.0212506 -0.0122743 0)
  (-0.0249951 -0.0124053 0)
  (-0.0269305 -0.0126032 0)
  (-0.0273178 -0.0132469 0)
  (-0.0268069 -0.0141356 0)
  (-0.0258737 -0.0148644 0)
  (-0.0247234 -0.0151116 0)
  (-0.0232892 -0.0146401 0)
  (-0.0211358 -0.0130819 0)
  (-0.0171924 -0.00972278 0)
  (-0.00823089 -0.0034953 0)
  (0.00402067 0.00485778 0)
  (0.0156019 0.0115408 0)
  (0.0254599 0.0147472 0)
  (0.037877 0.0178958 0)
  (0.0478713 0.0168352 0)
  (0.131133 0.071385 0)
  (-0.377341 0.211019 0)
  (0.676218 0.309128 0)
  (0.325187 0.214512 0)
  (0.334358 0.156717 0)
  (0.344793 0.0926544 0)
  (0.327256 0.034746 0)
  (0.290623 -0.0193149 0)
  (0.247351 -0.0597397 0)
  (0.199358 -0.0814307 0)
  (0.148698 -0.0854426 0)
  (0.0995299 -0.0759931 0)
  (0.0548868 -0.0571754 0)
  (0.0181277 -0.0350771 0)
  (-0.00982637 -0.0143412 0)
  (-0.0244411 -0.00218694 0)
  (-0.0315309 0.00407195 0)
  (-0.0328662 0.00637962 0)
  (-0.0323088 0.00612957 0)
  (-0.0323538 0.00385103 0)
  (-0.0340155 0.000881434 0)
  (-0.0373071 -0.00174644 0)
  (-0.0417842 -0.00376914 0)
  (-0.0464529 -0.00539186 0)
  (-0.0506585 -0.00677504 0)
  (-0.0541122 -0.00808329 0)
  (-0.0567585 -0.00944514 0)
  (-0.0587895 -0.0108911 0)
  (-0.0605481 -0.0122673 0)
  (-0.0623932 -0.0133575 0)
  (-0.0647708 -0.0139613 0)
  (-0.0682573 -0.0138292 0)
  (-0.0734368 -0.0123175 0)
  (-0.0807327 -0.00816423 0)
  (-0.0904795 0.000262784 0)
  (-0.100987 0.0124243 0)
  (-0.115888 0.0284456 0)
  (-0.140662 0.0497779 0)
  (-0.174782 0.0775786 0)
  (-0.216964 0.109176 0)
  (-0.283391 0.138831 0)
  (-0.558805 0.157815 0)
  (0.198413 -0.00015969 0)
  (0.219405 0.00785731 0)
  (0.213907 -0.0187513 0)
  (0.190791 -0.0382143 0)
  (0.15649 -0.0467795 0)
  (0.115497 -0.0471715 0)
  (0.0713225 -0.0412397 0)
  (0.0286802 -0.0300446 0)
  (-0.0112975 -0.0132936 0)
  (-0.0375422 -0.000300069 0)
  (-0.0527651 0.00710107 0)
  (-0.0597611 0.0104264 0)
  (-0.0621289 0.0117779 0)
  (-0.0624546 0.0121812 0)
  (-0.0622282 0.0119619 0)
  (-0.062534 0.0111539 0)
  (-0.0638354 0.0101232 0)
  (-0.0659184 0.00915572 0)
  (-0.0685403 0.00820908 0)
  (-0.0716113 0.00694941 0)
  (-0.0749867 0.00584479 0)
  (-0.0786896 0.00504552 0)
  (-0.0827364 0.00463729 0)
  (-0.0871268 0.00483998 0)
  (-0.0918337 0.0059446 0)
  (-0.0967767 0.0082397 0)
  (-0.101936 0.0118509 0)
  (-0.107426 0.0163534 0)
  (-0.113473 0.0208639 0)
  (-0.120081 0.0241009 0)
  (-0.125784 0.02837 0)
  (-0.130579 0.0359642 0)
  (-0.134517 0.0482965 0)
  (-0.137435 0.0657343 0)
  (-0.136562 0.0855769 0)
  (-0.126066 0.092751 0)
  (-0.110674 0.0451912 0)
  (-0.208682 -0.172462 0)
  (0.0613152 0.121025 0)
  (0.0209564 0.0463159 0)
  (0.0118465 -0.00421537 0)
  (0.00886713 -0.0298689 0)
  (0.000724917 -0.039394 0)
  (-0.0194638 -0.0419482 0)
  (-0.041706 -0.0424019 0)
  (-0.0611122 -0.0427649 0)
  (-0.0746338 -0.044182 0)
  (-0.0814846 -0.0470272 0)
  (-0.0844218 -0.0498095 0)
  (-0.0851751 -0.0524294 0)
  (-0.0847046 -0.0544201 0)
  (-0.0836497 -0.0560227 0)
  (-0.0824456 -0.0578506 0)
  (-0.0815142 -0.060346 0)
  (-0.0811156 -0.0634177 0)
  (-0.0812969 -0.0666989 0)
  (-0.0820344 -0.0698402 0)
  (-0.0833782 -0.0725048 0)
  (-0.0854544 -0.0749475 0)
  (-0.0882628 -0.0774687 0)
  (-0.091921 -0.0807246 0)
  (-0.0966106 -0.0847964 0)
  (-0.102385 -0.0894206 0)
  (-0.108981 -0.0937873 0)
  (-0.115736 -0.0963445 0)
  (-0.121746 -0.0960393 0)
  (-0.12617 -0.091454 0)
  (-0.128475 -0.0806951 0)
  (-0.128025 -0.064793 0)
  (-0.123182 -0.0439364 0)
  (-0.111988 -0.0189471 0)
  (-0.0927105 0.00847238 0)
  (-0.0653882 0.0334262 0)
  (-0.033512 0.0424789 0)
  (0.101139 -0.0470153 0)
  (-0.163384 -0.10918 0)
  (-0.12594 -0.249039 0)
  (-0.297441 -0.0493997 0)
  (-0.223018 0.144453 0)
  (-0.187532 0.129426 0)
  (-0.146457 0.133761 0)
  (-0.132186 0.145646 0)
  (-0.12976 0.152991 0)
  (-0.130463 0.157251 0)
  (-0.130321 0.163204 0)
  (-0.128045 0.171867 0)
  (-0.123789 0.181844 0)
  (-0.118595 0.190838 0)
  (-0.113519 0.197612 0)
  (-0.109091 0.20247 0)
  (-0.105395 0.205894 0)
  (-0.102257 0.208631 0)
  (-0.0995733 0.211399 0)
  (-0.0974235 0.214523 0)
  (-0.0959518 0.217892 0)
  (-0.0952581 0.221203 0)
  (-0.0953718 0.224146 0)
  (-0.0962076 0.22643 0)
  (-0.0976474 0.228324 0)
  (-0.0995518 0.230435 0)
  (-0.10177 0.233949 0)
  (-0.104123 0.239125 0)
  (-0.106415 0.245748 0)
  (-0.108433 0.252804 0)
  (-0.109915 0.258252 0)
  (-0.110571 0.261084 0)
  (-0.109954 0.260129 0)
  (-0.107124 0.254317 0)
  (-0.100563 0.245498 0)
  (-0.0883673 0.235291 0)
  (-0.0689771 0.226217 0)
  (-0.0427874 0.221108 0)
  (-0.00859379 0.221244 0)
  (0.0282399 0.225336 0)
  (0.139494 0.257867 0)
  (-0.294934 0.246334 0)
)
;

boundaryField
{
  floor
  {
    type noSlip;
  }
  ceiling
  {
    type noSlip;
  }
  sWall
  {
    type noSlip;
  }
  nWall
  {
    type noSlip;
  }
  sideWalls
  {
    type empty;
  }
  glass1
  {
    type noSlip;
  }
  glass2
  {
    type noSlip;
  }
  sun
  {
    type noSlip;
  }
  heatsource1
  {
    type noSlip;
  }
  heatsource2
  {
    type noSlip;
  }
  Table_master
  {
    type noSlip;
  }
  Table_slave
  {
    type noSlip;
  }
  inlet
  {
    type fixedValue;
    value uniform (0.277164 -0.114805 0);
  }
  outlet
  {
    type zeroGradient;
  }
} 	// ************************************************************************* //

