/*--------------------------------*- C++ -*----------------------------------*\
  =========                 |
  \\      /  F ield         | OpenFOAM: The Open Source CFD Toolbox
   \\    /   O peration     | Website:  https://openfoam.org
    \\  /    A nd           | Version:  6
     \\/     M anipulation  |
\*---------------------------------------------------------------------------*/
FoamFile
{
    version     2.0;
    format      ascii;
    class       volScalarField;
    location    "1600";
    object      nut;
}
// * * * * * * * * * * * * * * * * * * * * * * * * * * * * * * * * * * * * * //

dimensions      [0 2 -1 0 0 0 0];

internalField   nonuniform List<scalar> 
459
(
0.0011458
0.00126023
0.00129474
0.00136084
0.00142307
0.00148343
0.0015461
0.00159587
0.00162471
0.00162666
0.00159785
0.00153513
0.00143315
0.00127219
0.00101231
0.000517377
0.000619495
0.000717177
0.000748968
0.000737989
0.000712155
0.000666867
0.000619323
0.000576229
0.000538396
0.000505276
0.00047618
0.000450356
0.000427393
0.000406426
0.000386344
0.000365518
0.000345176
0.000309679
0.00152532
0.00385348
0.00376119
0.00439126
0.0050299
0.0056378
0.00609181
0.00649506
0.00684348
0.00710591
0.00725739
0.00727334
0.00711286
0.00667157
0.00543967
0.00124855
0.000877947
0.000522909
0.00126644
0.00185848
0.00232303
0.00260392
0.00259325
0.00191997
0.00160542
0.00139298
0.00123584
0.00111454
0.00101809
0.000940467
0.000868507
0.000795539
0.000727732
0.00066906
0.00072159
0.000371551
0.00183731
0.00524337
0.00470815
0.0057054
0.00622825
0.00662235
0.00691963
0.00722793
0.00756365
0.00790215
0.00821089
0.00845101
0.00854494
0.00839902
0.0077489
0.00572977
0.0013017
0.000934559
0.00154576
0.00220216
0.00284005
0.0032961
0.00320539
0.000947265
0.000826055
0.000728403
0.000649945
0.000586475
0.000534639
0.000491943
0.000457042
0.000429524
0.000465715
0.000538812
0.000803022
0.000413058
0.00213377
0.00656784
0.00476602
0.00596735
0.00630306
0.0064408
0.00657528
0.0068044
0.00712566
0.00751168
0.00792289
0.00830333
0.0085395
0.00862465
0.00846193
0.0076233
0.00454999
0.00150841
0.00184202
0.00248589
0.00326816
0.00399134
0.00447054
0.00419759
0.00107481
0.000969245
0.000890127
0.000826846
0.000774003
0.000726906
0.000681835
0.000635759
0.000584519
0.000539733
0.000545038
0.00088525
0.000448055
0.00243642
0.00826261
0.00518768
0.00585573
0.00621068
0.00619713
0.00624625
0.00642728
0.00673668
0.00714728
0.00759788
0.00799308
0.00825637
0.00836685
0.00833288
0.00807593
0.00725845
0.00632982
0.00610537
0.00619139
0.00637129
0.00650821
0.00651296
0.00622388
0.0051061
0.00451517
0.00414099
0.00384794
0.00353757
0.00318019
0.00276662
0.00229925
0.00179551
0.00130087
0.000947626
0.000944171
0.000588912
0.000542164
0.000664344
0.000746463
0.00275994
0.0101436
0.00697677
0.00605611
0.00636625
0.00628353
0.00627155
0.00635242
0.00660317
0.00702098
0.0075078
0.00792696
0.00817437
0.00823208
0.00817346
0.00810538
0.00807416
0.00811481
0.00824073
0.00832772
0.00830205
0.00815321
0.00788923
0.00749758
0.00692226
0.0063986
0.00594408
0.00552118
0.00507985
0.0045991
0.00406478
0.00346538
0.00280524
0.00212325
0.00155688
0.00119049
0.000848539
0.000703148
0.000992705
0.000775801
0.00305021
0.0114344
0.00955889
0.00773138
0.00729249
0.00681714
0.00647989
0.00642705
0.00668048
0.0071638
0.00771891
0.00816649
0.00838914
0.00839154
0.00831397
0.00837051
0.00868027
0.00909829
0.00937642
0.00940807
0.0092162
0.00886711
0.00841731
0.0078997
0.00733185
0.00677964
0.00625892
0.00576177
0.00528257
0.00482501
0.00436442
0.00385539
0.00328445
0.00266746
0.00211453
0.0016584
0.00129672
0.0011593
0.00114547
0.000872889
0.00310436
0.00995219
0.00899932
0.0081284
0.00725318
0.0065594
0.00626648
0.00641501
0.0069243
0.00762262
0.0082855
0.00871856
0.00884613
0.00875715
0.00869739
0.00891905
0.00938177
0.0097415
0.00980457
0.00959077
0.00917201
0.0086188
0.0079878
0.00732283
0.00666347
0.00604406
0.00547202
0.00494956
0.0044903
0.00411652
0.00383872
0.00359195
0.00325921
0.00284972
0.00251548
0.0023167
0.00231061
0.00256144
0.00315522
0.00136816
0.00302296
0.00356996
0.00389855
0.00397882
0.00417953
0.00469712
0.00554448
0.0066286
0.0077664
0.00873182
0.00932235
0.00945383
0.00924578
0.00903696
0.00914527
0.00933216
0.00944663
0.00938872
0.00911819
0.0086569
0.00805292
0.00735624
0.00662441
0.00590709
0.0052384
0.00463129
0.00408467
0.00360055
0.00318531
0.0028405
0.00256225
0.00235363
0.00220007
0.00209415
0.002046
0.0020449
0.0020384
0.00197458
0.00185836
0.00130785
0.00127226
0.0029762
0.00582919
0.00790162
0.00932561
0.0102222
0.0106215
0.0105697
0.0102012
0.00959769
0.00900828
0.00866624
0.00855468
0.008414
0.00814427
0.00773812
0.00720656
0.00658645
0.00593276
0.00529847
0.00471258
0.00418667
0.00371797
0.00329885
0.00292824
0.00261412
0.00236633
0.00218927
0.00207795
0.00201526
0.00199072
0.00199484
0.00201563
0.00202832
0.00199519
0.00189765
0.00173907
0.00112628
0.00189721
0.006086
0.00864756
0.00968051
0.0100105
0.00988427
0.00941106
0.00874765
0.00807737
0.00748413
0.00700486
0.00663484
0.00630416
0.00596029
0.00559927
0.00522116
0.00483268
0.00445433
0.00410715
0.00380034
0.00353027
0.00328777
0.00306419
0.00285475
0.0026594
0.00248181
0.00232779
0.00220363
0.0021146
0.00206368
0.00205139
0.00207167
0.00210788
0.00213438
0.00211279
0.00214315
0.00229426
0.00115974
0.00175852
0.0018689
0.00194656
0.00213695
0.00208
0.00202344
0.00196351
0.00186557
0.00173466
0.00158647
0.00143576
0.00129963
0.00119289
0.001116
0.00106105
0.00101954
0.000985318
0.000954734
0.000926323
0.0009
0.000875987
0.000854273
0.000834703
0.000817283
0.000802443
0.0007911
0.000784504
0.000783904
0.000790225
0.000803946
0.000825211
0.00085412
0.000890887
0.000935693
0.000987674
0.00104737
0.00107315
0.00104645
0.000989905
0.000938188
)
;

boundaryField
{
    floor
    {
        type            nutkWallFunction;
        Cmu             0.09;
        kappa           0.41;
        E               9.8;
        value           nonuniform List<scalar> 
29
(
0.000122183
6.19216e-05
7.47741e-05
8.68282e-05
9.07069e-05
8.9369e-05
8.62121e-05
8.06449e-05
7.47512e-05
6.93617e-05
6.45895e-05
6.03778e-05
5.66495e-05
5.33165e-05
5.03326e-05
4.75903e-05
4.49468e-05
4.21868e-05
3.94711e-05
3.46813e-05
3.46812e-05
4.29876e-05
4.84586e-05
5.30172e-05
0.000122183
6.19216e-05
6.26257e-05
0.000112999
0.000179093
)
;
    }
    ceiling
    {
        type            nutkWallFunction;
        Cmu             0.09;
        kappa           0.41;
        E               9.8;
        value           nonuniform List<scalar> 
43
(
0.000206821
0.00021896
0.000227457
0.000248244
0.000242117
0.00023599
0.000229467
0.000218751
0.000204325
0.000187849
0.000170917
0.000155452
0.000143199
0.000134296
0.000127891
0.000123027
0.000119
0.000115388
0.000112021
0.000108891
0.000106026
0.000103427
0.000101078
9.89822e-05
9.71922e-05
9.58213e-05
9.50231e-05
9.49501e-05
9.57149e-05
9.73726e-05
9.99354e-05
0.000103407
0.000107803
0.000113132
0.000119277
0.000126288
0.000129303
0.000126182
0.00011954
0.000113428
0.000342533
0.000399137
0.000221909
)
;
    }
    sWall
    {
        type            nutkWallFunction;
        Cmu             0.09;
        kappa           0.41;
        E               9.8;
        value           uniform 0.000206878;
    }
    nWall
    {
        type            nutkWallFunction;
        Cmu             0.09;
        kappa           0.41;
        E               9.8;
        value           nonuniform List<scalar> 6(9.04008e-05 9.39658e-05 0.000105653 0.000135498 0.000139379 0.000113433);
    }
    sideWalls
    {
        type            empty;
    }
    glass1
    {
        type            nutkWallFunction;
        Cmu             0.09;
        kappa           0.41;
        E               9.8;
        value           nonuniform List<scalar> 9(0.000137871 0.000181221 0.000215947 0.00024835 0.000280935 0.000315298 0.000345773 0.000351434 0.000342951);
    }
    glass2
    {
        type            nutkWallFunction;
        Cmu             0.09;
        kappa           0.41;
        E               9.8;
        value           nonuniform List<scalar> 2(0.000163311 0.00015644);
    }
    sun
    {
        type            nutkWallFunction;
        Cmu             0.09;
        kappa           0.41;
        E               9.8;
        value           nonuniform List<scalar> 
14
(
0.000137751
0.000150934
0.000154884
0.000162417
0.000169471
0.000176281
0.00018332
0.000188887
0.000192105
0.000192321
0.000189108
0.000182089
0.000170611
0.000152307
)
;
    }
    heatsource1
    {
        type            nutkWallFunction;
        Cmu             0.09;
        kappa           0.41;
        E               9.8;
        value           nonuniform List<scalar> 3(6.50679e-05 8.03339e-05 9.0402e-05);
    }
    heatsource2
    {
        type            nutkWallFunction;
        Cmu             0.09;
        kappa           0.41;
        E               9.8;
        value           nonuniform List<scalar> 4(0.000149589 0.000106253 0.000106253 0.000155676);
    }
    Table_master
    {
        type            nutkWallFunction;
        Cmu             0.09;
        kappa           0.41;
        E               9.8;
        value           nonuniform List<scalar> 9(0.000114499 0.000100034 8.82002e-05 7.85555e-05 7.06506e-05 6.41175e-05 5.86777e-05 5.41875e-05 5.06168e-05);
    }
    Table_slave
    {
        type            nutkWallFunction;
        Cmu             0.09;
        kappa           0.41;
        E               9.8;
        value           nonuniform List<scalar> 9(0.000129491 0.000117099 0.000107709 0.00010013 9.37481e-05 8.8017e-05 8.2491e-05 7.67962e-05 7.04043e-05);
    }
    inlet
    {
        type            calculated;
        value           uniform 0.000100623;
    }
    outlet
    {
        type            calculated;
        value           nonuniform List<scalar> 2(0.00175852 0.0018689);
    }
}


// ************************************************************************* //
