/*--------------------------------*- C++ -*----------------------------------*\
  =========                 |
  \\      /  F ield         | OpenFOAM: The Open Source CFD Toolbox
   \\    /   O peration     | Website:  https://openfoam.org
    \\  /    A nd           | Version:  6
     \\/     M anipulation  |
\*---------------------------------------------------------------------------*/
FoamFile
{
    version     2.0;
    format      ascii;
    class       surfaceScalarField;
    location    "600";
    object      phi;
}
// * * * * * * * * * * * * * * * * * * * * * * * * * * * * * * * * * * * * * //

dimensions      [1 0 -1 0 0 0 0];

internalField   nonuniform List<scalar> 
852
(
-0.00285118
0.00290554
-0.00369133
0.000840487
-0.0037631
7.22078e-05
-0.00307045
-0.000692359
-0.00141497
-0.00165557
0.00097353
-0.00238966
0.00294015
-0.00196755
0.00415892
-0.0012193
0.00478721
-0.000628444
0.00497408
-0.000186784
0.00482304
0.000151213
0.00438968
0.00043352
0.00365489
0.000734884
0.00243363
0.00122124
0.00243494
-0.000974479
0.000974636
-0.00142392
0.000449116
-0.00137231
-5.19525e-05
-0.000779392
-0.000593299
3.24443e-05
-0.000812221
0.000858668
-0.00082659
0.00143283
-0.000574544
0.00180642
-0.000373988
0.00208173
-0.000275749
0.00223867
-0.000157411
0.00225056
-1.23928e-05
0.00212547
0.000124566
0.00189999
0.000225051
0.00163358
0.00026623
0.00137079
0.000262839
0.00109989
0.000270959
0.000785602
0.00031422
0.000421379
0.000364051
0.000421209
-0.00214008
0.00519093
-0.00313245
0.00183313
-0.00344914
0.000389049
-0.00302797
-0.00111381
-0.0018532
-0.00283117
-0.000160845
-0.00408357
0.00156983
-0.00370068
0.00270016
-0.00235143
0.0033178
-0.00124708
0.00356623
-0.000435562
0.00356745
0.000150073
0.00339639
0.000604838
0.00310675
0.00102479
0.0028398
0.00148834
0.00327977
0.00199493
0.00157619
0.00170342
0.0015759
-0.000251465
0.00122702
-0.000241968
0.000439334
0.000131174
-0.000425513
0.000635389
-0.00109792
0.00108843
-0.00126567
0.00144259
-0.00118116
0.00155252
-0.000684877
0.00160348
-0.000425375
0.00166711
-0.000339854
0.00169141
-0.000182202
0.00165719
2.1305e-05
0.00161098
0.000170284
0.00159459
0.000241042
0.00160023
0.000260335
0.00156367
0.000299216
0.00135328
0.000481187
0.000994683
0.000672638
0.000529797
0.000828743
0.000950602
-0.0016467
0.00705994
-0.00265413
0.00284077
-0.00314304
0.000877935
-0.0029046
-0.00135271
-0.00195572
-0.00378095
-0.000694223
-0.00534678
0.000662399
-0.00506032
0.00168794
-0.0033799
0.00226902
-0.00183004
0.00253162
-0.000698986
0.00262224
5.93504e-05
0.00262997
0.000597344
0.00260959
0.00104549
0.00260448
0.0014937
0.00258342
0.00201607
0.00190295
0.00238384
0.00347866
0.000486505
0.00074227
0.00116
-0.000234741
0.0016693
-0.000935344
0.00190268
-0.00133178
0.00207413
-0.00143756
0.0023231
-0.00143054
0.00163794
0.00121226
0.000872001
0.000689332
0.00071036
0.000880493
0.00112144
0.0013817
0.00168084
0.00147617
0.000685643
0.00117346
0.000975125
0.000692051
0.00130995
0.00164192
-0.00126504
0.00861437
-0.00217763
0.00375356
-0.00265271
0.001353
-0.00243797
-0.0015678
-0.00160905
-0.00461043
-0.000655208
-0.00630199
0.000290503
-0.00600885
0.00112316
-0.00421626
0.00159862
-0.00230821
0.001796
-0.000897691
0.00189009
-3.50704e-05
0.00197965
0.000507948
0.00209168
0.000933781
0.00223607
0.00134958
0.00245486
0.00179744
0.00277004
0.00206867
0.00403598
0.00221259
0.00289636
0.00114739
0.00314917
0.000489001
0.0031958
-0.0002819
0.00312819
-0.000868231
0.00297125
-0.0011753
0.00273975
-0.00120647
0.00230166
-0.000992839
0.00271388
-0.000412742
0.00284987
-0.000136506
0.00287303
-2.36573e-05
0.00282404
4.85171e-05
0.00271539
0.00010819
0.00255496
0.000159981
0.00234068
0.00021385
0.00205127
0.000288993
0.00162999
0.000420866
0.00150602
0.000809409
0.00126075
0.00122021
0.000895479
0.00167503
0.00253666
-0.000936158
0.00989938
-0.00164551
0.0044631
-0.00182732
0.00153485
-0.00138089
-0.00201437
-0.000653941
-0.00533747
-5.6919e-05
-0.00689981
0.000453186
-0.00652118
0.000964427
-0.00473122
0.00123489
-0.00258196
0.00128665
-0.000951182
0.00130741
-5.6335e-05
0.00140087
0.00041459
0.00157576
0.000759197
0.00183781
0.00108781
0.00223247
0.00140296
0.00272781
0.00157338
0.00333962
0.00160072
0.00346951
0.00101736
0.00365901
0.000299238
0.00365247
-0.000275629
0.00345499
-0.000671003
0.00313579
-0.000856359
0.00276673
-0.000837665
0.00242029
-0.000646688
0.00231808
-0.000310819
0.00221916
-3.78913e-05
0.0020763
0.000118908
0.0019178
0.000206722
0.00175962
0.000266079
0.00160355
0.00031577
0.00144761
0.000369509
0.00129115
0.000445176
0.00114201
0.000569732
0.0011181
0.000833063
0.00117475
0.00116333
0.00138115
0.00146844
0.00222639
0.00169123
0.00140175
0.000824245
0.000874826
0.000526536
0.000904007
-0.000722046
0.011024
-0.00109193
0.00483311
-0.000510851
0.000953711
0.000345296
-0.00287067
0.000870175
-0.00586221
0.00105291
-0.00708287
0.00108145
-0.0065513
0.00111627
-0.00476916
0.00104232
-0.00251134
0.000861794
-0.000772605
0.000758994
4.58928e-05
0.000803332
0.000370325
0.000976595
0.000586198
0.00125634
0.000808322
0.00163892
0.00102055
0.0020794
0.00113297
0.00258913
0.00109098
0.00292836
0.000678071
0.00303417
0.000193324
0.00294197
-0.000183533
0.00269382
-0.000422975
0.00235185
-0.00051456
0.00197947
-0.000465494
0.00163658
-0.000304037
0.00138769
-6.22002e-05
0.00120218
0.000147331
0.00104993
0.000270871
0.000917841
0.000338515
0.000801965
0.000381664
0.000701836
0.000415611
0.000620086
0.000450975
0.000565344
0.000499632
0.000555935
0.00057885
0.000655353
0.000733353
0.000887552
0.000930846
0.0012497
0.00110603
0.00171293
0.00122777
0.00166689
0.000870049
0.00111981
0.00107339
0.00205272
-0.000442567
0.011923
5.62529e-05
0.00433435
0.0016847
-0.000675047
0.0026757
-0.00386173
0.00289012
-0.00607652
0.00258881
-0.00678179
0.00199507
-0.00595866
0.00138116
-0.00415758
0.000797107
-0.0019302
0.000317475
-0.00029478
0.000109586
0.000253306
0.000106789
0.000373143
0.000246397
0.000446766
0.000492484
0.000562423
0.00082294
0.000690241
0.00119954
0.000756469
0.00159171
0.000698866
0.00182139
0.000448421
0.00184553
0.000169174
0.00170751
-4.55738e-05
0.0014558
-0.000171397
0.00113864
-0.000197579
0.000802482
-0.000129564
0.000491464
6.70999e-06
0.000261971
0.000166997
0.000119117
0.000289877
2.36433e-05
0.000366033
-4.89661e-05
0.000410819
-0.000105561
0.000437957
-0.000145883
0.000455635
-0.000165643
0.000470438
-0.000155946
0.000489637
-0.000100868
0.000523464
4.09634e-05
0.000591202
0.000286846
0.000684637
0.000631495
0.00076106
0.00109101
0.000767953
0.00133608
0.000624676
0.00108386
0.00132533
0.0031653
0.00323558
0.00920511
0.00448145
0.00308845
0.005332
-0.00152567
0.00577316
-0.00430272
0.00537012
-0.00567333
0.00425896
-0.00567094
0.00274269
-0.0044433
0.00132498
-0.00274156
9.08809e-05
-0.000698305
-0.000522435
0.00031742
-0.00070337
0.000433854
-0.000702716
0.000372384
-0.000601746
0.000345815
-0.00042004
0.000380796
-0.000172359
0.000442657
0.000104052
0.000480157
0.000349378
0.000453622
0.000456765
0.000341076
0.000417099
0.000208814
0.000266161
0.000105227
3.99659e-05
5.45902e-05
-0.00022377
6.59042e-05
-0.000476196
0.000122558
-0.000672261
0.000202449
-0.000791032
0.00028543
-0.000855147
0.000353651
-0.000889259
0.000399809
-0.00090727
0.000428501
-0.000914905
0.000445273
-0.000914586
0.000455003
-0.000908966
0.000464508
-0.000904961
0.000485319
-0.000919457
0.000537637
-0.00098229
0.000653696
-0.00115895
0.000860946
-0.00155613
0.00115787
-0.00226892
0.00148039
-0.00331579
0.00167119
-0.00344917
0.00145833
-0.00015976
0.00978165
0.012865
0.0113425
-2.70249e-06
0.00952533
-0.00248511
0.00732506
-0.00347301
0.00491207
-0.00325852
0.00224317
-0.00177534
-4.50337e-05
-0.000454662
-0.00133117
0.000586559
-0.00164596
0.000631465
-0.00168551
0.000472997
-0.00164629
0.000332919
-0.00156479
0.000264193
-0.00144422
0.000260178
-0.00129253
0.000290975
-0.00113548
0.00032313
-0.00101314
0.000331281
-0.000974766
0.000302661
-0.00102441
0.000258336
-0.00113966
0.000220279
-0.00128866
0.000203311
-0.00143615
0.000213066
-0.00155663
0.000242683
-0.00163657
0.000282011
-0.00167414
0.00032262
-0.00167867
0.000357808
-0.00166327
0.000384034
-0.00163697
0.000401852
-0.00160552
0.00041348
-0.00157403
0.000423174
-0.00154919
0.000439335
-0.00154103
0.000476839
-0.00156292
0.000559191
-0.00162745
0.000717891
-0.00175011
0.000983268
-0.00196208
0.00136952
-0.00230353
0.00182152
-0.00266431
0.00203167
-0.00231449
0.00110821
-0.00239892
0.00619703
0.00035659
0.00461206
-0.000900878
0.00252419
-0.00138624
0.000111912
-0.000847649
-0.0019072
0.000241829
-0.00291084
0.000547837
-0.00297372
0.000648628
-0.00288008
0.000537214
-0.00277836
0.000370822
-0.00269416
0.000248378
-0.00261924
0.000189033
-0.00254039
0.00018116
-0.00245396
0.000204414
-0.00236899
0.000238042
-0.00230272
0.00026487
-0.0022746
0.000274351
-0.00228635
0.000269827
-0.00232627
0.00025989
-0.00237632
0.000252993
-0.00241774
0.000254082
-0.00243828
0.000262803
-0.00243334
0.000276652
-0.00240395
0.000292805
-0.0023548
0.000308233
-0.00229168
0.000320509
-0.00221895
0.000328718
-0.00213946
0.0003336
-0.00205516
0.000338493
-0.00196705
0.000350858
-0.00187437
0.000383793
-0.00177228
0.000456744
-0.0016479
0.000593162
-0.00147803
0.000813054
-0.00123141
0.00112257
-0.000862361
0.00145216
-0.000218693
0.00138771
0.000394178
0.000495018
-0.00198781
-0.000901174
0.00127074
-0.00200062
0.00019664
-0.00339789
9.61754e-06
-0.00440399
0.000157385
-0.00456404
0.000401082
-0.00447482
0.000457877
-0.00424568
0.000418829
-0.00402717
0.000318137
-0.00387255
0.000215718
-0.00377085
0.000146269
-0.00369635
0.000114201
-0.00362746
0.000111971
-0.00355235
0.00012902
-0.00346931
0.000154726
-0.00338433
0.000179577
-0.00330696
0.000196634
-0.00324206
0.000204542
-0.00318811
0.000205519
-0.00313885
0.000203279
-0.00308633
0.000201084
-0.00302446
0.000200455
-0.00295013
0.000201831
-0.00286274
0.000204935
-0.00276371
0.000208724
-0.00265559
0.000211916
-0.0025411
0.000213762
-0.00242243
0.000214471
-0.00230011
0.000215718
-0.00217086
0.000221168
-0.00202435
0.00023685
-0.00183924
0.000271219
-0.0015803
0.000333826
-0.0011954
0.000427779
-0.000595753
0.000522568
0.000312268
0.000543799
0.0013251
0.000374552
0.00180616
1.36201e-05
-0.000165058
0.00245034
-0.00815995
-0.00690424
-0.00672899
-0.00674593
-0.00661869
-0.00625075
-0.00582844
-0.00544684
-0.00516711
-0.00499059
-0.00488401
-0.00480977
-0.00473795
-0.00464927
-0.00453518
-0.00439665
-0.00424162
-0.00407934
-0.00391679
-0.00375715
-0.00360031
-0.00344461
-0.00328793
-0.00312845
-0.00296542
-0.00279938
-0.00263164
-0.00246334
-0.00229393
-0.00211927
-0.00192918
-0.0017051
-0.00141889
-0.00103937
-0.000565961
-7.25971e-05
0.000250146
0.000210698
)
;

boundaryField
{
    floor
    {
        type            calculated;
        value           nonuniform List<scalar> 
29
(
0
0
0
0
0
0
0
0
0
0
0
0
0
0
0
0
0
0
0
0
1.93699e-08
2.12945e-07
5.26875e-07
5.5409e-07
-1.45885e-06
-4.56383e-07
-1.19655e-06
-2.04228e-06
-7.95699e-06
)
;
    }
    ceiling
    {
        type            calculated;
        value           nonuniform List<scalar> 
43
(
5.93542e-05
2.40391e-05
1.38818e-05
2.04446e-05
2.57811e-05
2.94691e-05
3.25003e-05
3.49349e-05
3.66209e-05
3.78225e-05
3.86585e-05
3.91811e-05
3.94855e-05
3.96864e-05
3.98869e-05
4.01641e-05
4.05649e-05
4.10993e-05
4.17368e-05
4.24204e-05
4.30868e-05
4.36843e-05
4.41843e-05
4.45818e-05
4.48883e-05
4.51237e-05
4.53086e-05
4.54622e-05
4.56043e-05
4.57602e-05
4.5961e-05
4.62399e-05
4.66245e-05
4.71354e-05
4.78049e-05
4.87234e-05
5.00178e-05
5.14064e-05
5.26147e-05
5.76106e-05
6.89784e-06
5.02348e-06
-1.62654e-05
)
;
    }
    sWall
    {
        type            calculated;
        value           uniform -0.000135584;
    }
    nWall
    {
        type            calculated;
        value           nonuniform List<scalar> 6(-2.95558e-05 -2.91253e-05 -2.89573e-05 -1.72633e-05 -1.69365e-05 -1.25108e-05);
    }
    sideWalls
    {
        type            empty;
        value           nonuniform 0();
    }
    glass1
    {
        type            calculated;
        value           nonuniform List<scalar> 9(-5.43962e-05 -0.000145341 -0.000222314 -0.000289357 -0.000348774 -0.00040244 -0.000456343 -0.000517673 -0.000583423);
    }
    glass2
    {
        type            calculated;
        value           nonuniform List<scalar> 2(-0.000124521 -7.56487e-05);
    }
    sun
    {
        type            calculated;
        value           uniform 0;
    }
    heatsource1
    {
        type            calculated;
        value           nonuniform List<scalar> 3(2.01161e-07 2.01456e-07 2.01607e-07);
    }
    heatsource2
    {
        type            calculated;
        value           nonuniform List<scalar> 4(5.07406e-08 5.09313e-08 0 0);
    }
    Table_master
    {
        type            calculated;
        value           nonuniform List<scalar> 9(-1.5161e-07 -1.518e-07 -1.51816e-07 -1.51742e-07 -1.51646e-07 -1.51517e-07 -1.51397e-07 -1.51284e-07 -1.51165e-07);
    }
    Table_slave
    {
        type            calculated;
        value           nonuniform List<scalar> 9(1.51403e-07 1.51347e-07 1.51283e-07 1.51231e-07 1.51198e-07 1.51189e-07 1.512e-07 1.51232e-07 1.5129e-07);
    }
    inlet
    {
        type            calculated;
        value           uniform -0.00655642;
    }
    outlet
    {
        type            calculated;
        value           nonuniform List<scalar> 2(-0.00237528 0.0105851);
    }
}


// ************************************************************************* //
