/*--------------------------------*- C++ -*----------------------------------*\
  =========                 |
  \\      /  F ield         | OpenFOAM: The Open Source CFD Toolbox
   \\    /   O peration     | Website:  https://openfoam.org
    \\  /    A nd           | Version:  6
     \\/     M anipulation  |
\*---------------------------------------------------------------------------*/
FoamFile
{
    version     2.0;
    format      ascii;
    class       volScalarField;
    location    "1100";
    object      alphat;
}
// * * * * * * * * * * * * * * * * * * * * * * * * * * * * * * * * * * * * * //

dimensions      [1 -1 -1 0 0 0 0];

internalField   nonuniform List<scalar> 
459
(
0.00125386
0.00137106
0.00139674
0.00146392
0.00152613
0.00158436
0.00164146
0.0016972
0.00173646
0.00175289
0.0017406
0.00169598
0.00161882
0.00151561
0.00140233
0.000550617
0.000673213
0.000757155
0.000752255
0.000726246
0.00069217
0.000649513
0.000607263
0.000568907
0.000534834
0.000504645
0.000477808
0.000453929
0.000432478
0.00041269
0.000393573
0.000373667
0.000359407
0.000327302
0.00170702
0.00417542
0.0039981
0.00465403
0.00529895
0.00594379
0.00651255
0.00694102
0.00732823
0.00764269
0.00784046
0.00787178
0.00766081
0.00701703
0.00524946
0.00143006
0.000841153
0.000595381
0.00124894
0.00172337
0.00206121
0.00223875
0.00222883
0.00179273
0.00154676
0.00137054
0.00123518
0.00112754
0.00103998
0.000964575
0.000894364
0.000826306
0.000765832
0.000713255
0.000834958
0.000427412
0.00208347
0.00570271
0.00496229
0.00622203
0.00685208
0.00732048
0.00768488
0.00797614
0.00829153
0.00861981
0.0089221
0.00914351
0.00922322
0.00907134
0.00844928
0.00651421
0.00142288
0.00118767
0.00170504
0.0021816
0.00260347
0.00288627
0.00280286
0.000929825
0.000821138
0.000733826
0.000663372
0.000605969
0.0005587
0.000519468
0.000486938
0.000460554
0.000496248
0.000573671
0.000938172
0.000494157
0.00244425
0.00728643
0.00497846
0.00658583
0.00713923
0.00733002
0.0074559
0.00760823
0.00786093
0.00819774
0.00857805
0.00893357
0.00920112
0.00930977
0.00917624
0.00850892
0.00622633
0.00170243
0.00211038
0.00272126
0.00330594
0.00376277
0.00403545
0.00377229
0.001049
0.000954926
0.00088756
0.000836255
0.000792752
0.000752879
0.000714647
0.000674564
0.000628106
0.000589214
0.000602198
0.00107061
0.000545942
0.00281181
0.00931907
0.00547412
0.00634377
0.00707546
0.00712848
0.00707317
0.00715769
0.00738129
0.00772365
0.00814982
0.00856592
0.00888434
0.00903482
0.0089928
0.00870972
0.00799033
0.00660887
0.00613288
0.00597127
0.0059099
0.005867
0.00579451
0.00556342
0.00469515
0.0042788
0.00403834
0.00385425
0.00366064
0.00338053
0.00299964
0.00253485
0.00201674
0.00149384
0.0011011
0.00110139
0.000732363
0.000672508
0.000814202
0.00091384
0.00320126
0.0115316
0.00753332
0.00632281
0.00687464
0.00712548
0.0069722
0.00704075
0.00720917
0.00751535
0.00794497
0.00840033
0.00875024
0.00889392
0.0088088
0.00854998
0.00820635
0.00784869
0.00764401
0.00748826
0.00731188
0.00711323
0.00689477
0.00662717
0.00623781
0.00589244
0.00558771
0.00529559
0.0049969
0.00467048
0.00425644
0.00373934
0.00311932
0.00243205
0.00182313
0.00136061
0.0010235
0.000868665
0.00123807
0.000953463
0.00355511
0.0130761
0.0105483
0.00815287
0.00771587
0.00761805
0.00736064
0.00719972
0.00725492
0.00755373
0.00802965
0.00853708
0.00890511
0.00901515
0.00885635
0.00854257
0.00827221
0.00817617
0.00817818
0.0080924
0.00787025
0.00755526
0.00718595
0.00678107
0.00635677
0.00596308
0.00560103
0.00526162
0.00494512
0.00465932
0.00440472
0.00405955
0.00357392
0.00297903
0.00240553
0.00189063
0.00151219
0.00139156
0.00141784
0.00108423
0.00362125
0.0116188
0.010331
0.00954662
0.00884407
0.00803388
0.00740498
0.00716016
0.00732214
0.00780258
0.00843666
0.00901479
0.00934194
0.00932639
0.00901617
0.0086066
0.00835838
0.00834883
0.0083427
0.00808002
0.00763534
0.00709604
0.0065304
0.00599386
0.00552272
0.00512452
0.00478419
0.00449367
0.00425713
0.00408468
0.00398634
0.00393502
0.00369385
0.00330742
0.00296414
0.00277906
0.00286864
0.00329781
0.00406177
0.00169128
0.00352143
0.00417892
0.00464176
0.00475795
0.00485907
0.00513522
0.00568814
0.0065262
0.00755068
0.00858338
0.00943345
0.00992174
0.00993165
0.00952328
0.00891523
0.00849616
0.00825199
0.00803496
0.00768214
0.00713494
0.00647375
0.00579756
0.00518663
0.0046803
0.0042771
0.00395277
0.00368275
0.00345247
0.00325324
0.00307684
0.0029146
0.00276606
0.00264947
0.0025635
0.00252877
0.00253715
0.0025224
0.00242354
0.00226778
0.00159078
0.00175965
0.00360726
0.00586135
0.00773152
0.00918426
0.0102865
0.0109759
0.0112415
0.0111257
0.0106198
0.00983003
0.00885306
0.00802381
0.0075034
0.00707714
0.0065619
0.00594335
0.00529223
0.00467982
0.00415224
0.00373408
0.00340993
0.00315456
0.0029485
0.00278096
0.00264733
0.00254612
0.00247724
0.00244343
0.00244266
0.00245853
0.00248642
0.00251765
0.00252504
0.00246441
0.00232121
0.00210465
0.00132443
0.00235256
0.0060453
0.00899807
0.0101164
0.0106739
0.0108413
0.0105902
0.00999334
0.00917235
0.00824613
0.00736964
0.00658803
0.00595521
0.00541444
0.00487256
0.00434574
0.0038847
0.00351404
0.00322983
0.00301411
0.00283949
0.00269119
0.00256267
0.00245718
0.00237808
0.00232525
0.00229778
0.00229396
0.00232
0.00237271
0.00244813
0.00253778
0.00262326
0.00268249
0.00266144
0.00269315
0.00273383
0.00135004
0.00208691
0.00221187
0.00230002
0.00246255
0.00237614
0.00227671
0.00221214
0.00212142
0.00199188
0.00183133
0.00165092
0.00146345
0.00128153
0.00112549
0.00100761
0.000923882
0.000864641
0.000822105
0.000791472
0.000769929
0.000755675
0.000747607
0.000744991
0.000748005
0.000757161
0.000772144
0.000792742
0.000819363
0.000852657
0.000893538
0.000940944
0.000994935
0.00105608
0.0011249
0.00120083
0.00129106
0.00132005
0.00128626
0.00120893
0.00112681
)
;

boundaryField
{
    floor
    {
        type            compressible::alphatWallFunction;
        Prt             0.85;
        value           nonuniform List<scalar> 
29
(
0.000197816
7.69549e-05
9.52678e-05
0.000107569
0.000106856
0.00010306
9.80616e-05
9.1762e-05
8.54726e-05
7.97161e-05
7.45622e-05
6.99616e-05
6.58426e-05
6.21531e-05
5.88178e-05
5.57223e-05
5.27135e-05
4.95607e-05
4.72887e-05
4.21298e-05
4.21292e-05
5.80273e-05
6.83554e-05
7.62475e-05
0.000197814
7.69539e-05
8.36939e-05
0.000168465
0.000238025
)
;
    }
    ceiling
    {
        type            compressible::alphatWallFunction;
        Prt             0.85;
        value           nonuniform List<scalar> 
43
(
0.000288321
0.000304469
0.000315804
0.000336706
0.000325728
0.000313008
0.000304713
0.000293006
0.000276188
0.000255173
0.000231313
0.000206208
0.000181499
0.000159985
0.000143505
0.000131665
0.000123211
0.000117099
0.000112674
0.000109549
0.000107477
0.000106301
0.00010592
0.00010636
0.000107693
0.000109872
0.000112859
0.000116705
0.000121494
0.000127345
0.00013409
0.000141724
0.000150312
0.000159908
0.000170417
0.00018281
0.00018677
0.000182154
0.000171536
0.000160178
0.00046921
0.000549178
0.000322369
)
;
    }
    sWall
    {
        type            compressible::alphatWallFunction;
        Prt             0.85;
        value           uniform 0.000287112;
    }
    nWall
    {
        type            compressible::alphatWallFunction;
        Prt             0.85;
        value           nonuniform List<scalar> 6(0.000129919 0.000135539 0.00015391 0.000187042 0.000190528 0.000159856);
    }
    sideWalls
    {
        type            empty;
    }
    glass1
    {
        type            compressible::alphatWallFunction;
        Prt             0.85;
        value           nonuniform List<scalar> 9(0.000173292 0.000233542 0.000282374 0.000328367 0.000374552 0.000422847 0.000466247 0.000474439 0.000462494);
    }
    glass2
    {
        type            compressible::alphatWallFunction;
        Prt             0.85;
        value           nonuniform List<scalar> 2(0.000234994 0.000221732);
    }
    sun
    {
        type            compressible::alphatWallFunction;
        Prt             0.85;
        value           nonuniform List<scalar> 
14
(
0.000177597
0.00019358
0.000197063
0.000206145
0.000214513
0.000222313
0.000229929
0.000237335
0.000242536
0.000244708
0.000243082
0.00023717
0.000226909
0.000213097
)
;
    }
    heatsource1
    {
        type            compressible::alphatWallFunction;
        Prt             0.85;
        value           nonuniform List<scalar> 3(9.52676e-05 0.000115943 0.000130221);
    }
    heatsource2
    {
        type            compressible::alphatWallFunction;
        Prt             0.85;
        value           nonuniform List<scalar> 4(0.000201691 0.000119825 0.000119824 0.000200718);
    }
    Table_master
    {
        type            compressible::alphatWallFunction;
        Prt             0.85;
        value           nonuniform List<scalar> 9(0.000132491 0.000116941 0.000104271 9.39152e-05 8.53783e-05 7.82736e-05 7.23202e-05 6.7341e-05 6.32717e-05);
    }
    Table_slave
    {
        type            compressible::alphatWallFunction;
        Prt             0.85;
        value           nonuniform List<scalar> 9(0.000149302 0.000136054 0.000126474 0.000119121 0.000112843 0.000107053 0.000101467 9.55712e-05 8.86838e-05);
    }
    inlet
    {
        type            fixedValue;
        value           uniform 1.94e-05;
    }
    outlet
    {
        type            zeroGradient;
    }
}


// ************************************************************************* //
