// -*- C++ -*-
// File generated by PyFoam - sorry for the ugliness

FoamFile
{
 version 2.0;
 format ascii;
 class volScalarField;
 location "360";
 object T;
}

dimensions [ 0 0 0 1 0 0 0 ];

internalField nonuniform List<scalar> 459
(
  301.124
  301.089
  301.088
  301.088
  301.089
  301.09
  301.095
  301.107
  301.147
  301.173
  301.189
  301.199
  301.204
  301.208
  301.208
  301.516
  301.493
  301.476
  301.481
  301.495
  301.507
  301.517
  301.525
  301.533
  301.54
  301.548
  301.556
  301.564
  301.572
  301.58
  301.589
  301.599
  301.613
  301.636
  301.14
  301.089
  301.083
  301.08
  301.078
  301.077
  301.08
  301.096
  301.144
  301.188
  301.218
  301.234
  301.24
  301.238
  301.23
  301.236
  301.244
  301.513
  301.469
  301.452
  301.467
  301.492
  301.514
  301.527
  301.538
  301.549
  301.559
  301.57
  301.581
  301.591
  301.601
  301.611
  301.618
  301.625
  301.632
  301.651
  301.156
  301.09
  301.08
  301.075
  301.071
  301.066
  301.063
  301.08
  301.139
  301.2
  301.245
  301.27
  301.277
  301.273
  301.262
  301.257
  301.255
  301.464
  301.401
  301.42
  301.457
  301.499
  301.534
  301.541
  301.551
  301.562
  301.573
  301.585
  301.598
  301.611
  301.623
  301.634
  301.642
  301.646
  301.648
  301.661
  301.174
  301.094
  301.082
  301.078
  301.074
  301.063
  301.048
  301.065
  301.131
  301.212
  301.276
  301.313
  301.323
  301.316
  301.301
  301.286
  301.273
  301.28
  301.307
  301.349
  301.409
  301.475
  301.536
  301.585
  301.624
  301.654
  301.679
  301.702
  301.724
  301.744
  301.764
  301.782
  301.798
  301.75
  301.709
  301.682
  301.676
  301.193
  301.102
  301.089
  301.088
  301.087
  301.066
  301.038
  301.052
  301.125
  301.227
  301.315
  301.366
  301.38
  301.371
  301.35
  301.329
  301.315
  301.325
  301.358
  301.414
  301.483
  301.555
  301.62
  301.675
  301.72
  301.755
  301.784
  301.809
  301.829
  301.845
  301.857
  301.863
  301.861
  301.827
  301.775
  301.729
  301.702
  301.71
  301.723
  301.756
  301.213
  301.115
  301.101
  301.102
  301.1
  301.066
  301.03
  301.041
  301.125
  301.25
  301.364
  301.431
  301.45
  301.438
  301.413
  301.392
  301.385
  301.409
  301.459
  301.526
  301.599
  301.669
  301.731
  301.781
  301.821
  301.853
  301.878
  301.898
  301.913
  301.924
  301.93
  301.928
  301.918
  301.889
  301.842
  301.797
  301.756
  301.747
  301.75
  301.77
  301.234
  301.135
  301.124
  301.128
  301.108
  301.058
  301.014
  301.03
  301.134
  301.291
  301.432
  301.514
  301.536
  301.521
  301.497
  301.484
  301.493
  301.535
  301.597
  301.667
  301.735
  301.797
  301.848
  301.888
  301.919
  301.942
  301.958
  301.971
  301.98
  301.984
  301.984
  301.978
  301.964
  301.939
  301.901
  301.862
  301.817
  301.793
  301.782
  301.786
  301.263
  301.188
  301.174
  301.157
  301.098
  301.024
  300.981
  301.02
  301.166
  301.363
  301.53
  301.618
  301.635
  301.622
  301.609
  301.611
  301.639
  301.693
  301.758
  301.819
  301.874
  301.919
  301.954
  301.98
  301.997
  302.007
  302.014
  302.018
  302.017
  302.013
  302.005
  301.994
  301.981
  301.962
  301.931
  301.9
  301.861
  301.834
  301.815
  301.831
  301.304
  301.267
  301.243
  301.142
  301.012
  300.925
  300.921
  301.027
  301.253
  301.498
  301.673
  301.735
  301.748
  301.748
  301.753
  301.771
  301.807
  301.858
  301.911
  301.956
  301.991
  302.016
  302.032
  302.041
  302.044
  302.043
  302.037
  302.028
  302.015
  301.999
  301.981
  301.962
  301.942
  301.924
  301.906
  301.891
  301.881
  301.878
  301.882
  301.902
  300.244
  300.328
  300.465
  300.651
  300.872
  301.146
  301.521
  301.736
  301.827
  301.86
  301.875
  301.886
  301.902
  301.926
  301.957
  301.992
  302.023
  302.048
  302.063
  302.071
  302.073
  302.07
  302.063
  302.053
  302.041
  302.026
  302.01
  301.993
  301.976
  301.959
  301.943
  301.929
  301.916
  301.907
  301.902
  301.906
  301.922
  301.992
  300.903
  301.116
  301.265
  301.401
  301.541
  301.68
  301.808
  301.898
  301.945
  301.969
  301.985
  302
  302.017
  302.035
  302.054
  302.072
  302.086
  302.095
  302.098
  302.096
  302.09
  302.081
  302.071
  302.058
  302.045
  302.03
  302.016
  302.001
  301.987
  301.973
  301.96
  301.948
  301.937
  301.927
  301.922
  301.924
  301.946
  301.981
  301.482
  301.47
  301.463
  301.616
  301.725
  301.808
  301.877
  301.935
  301.983
  302.018
  302.04
  302.055
  302.067
  302.078
  302.087
  302.096
  302.103
  302.107
  302.108
  302.106
  302.1
  302.093
  302.083
  302.072
  302.059
  302.046
  302.032
  302.019
  302.006
  301.994
  301.983
  301.973
  301.964
  301.957
  301.95
  301.944
  301.94
  301.944
  301.961
  301.997
)
;

boundaryField
{
  floor
  {
    type wallHeatTransfer;
    Tinf uniform 299.755;
    alphaWall uniform 0.24;
    value nonuniform List<scalar> 29
(
  301.003
  301.168
  301.206
  301.215
  301.23
  301.239
  301.244
  301.241
  301.234
  301.227
  301.221
  301.214
  301.209
  301.203
  301.199
  301.194
  301.189
  301.183
  301.17
  301.159
  301.159
  301.207
  301.235
  301.274
  301.003
  301.168
  301.237
  301.21
  301.074
)
;
  }
  ceiling
  {
    type wallHeatTransfer;
    Tinf uniform 299.755;
    alphaWall uniform 0.24;
    value nonuniform List<scalar> 43
(
  301.35
  301.347
  301.348
  301.497
  301.593
  301.662
  301.717
  301.763
  301.798
  301.824
  301.84
  301.852
  301.862
  301.871
  301.88
  301.888
  301.895
  301.899
  301.899
  301.897
  301.891
  301.884
  301.875
  301.864
  301.853
  301.841
  301.828
  301.815
  301.801
  301.788
  301.774
  301.761
  301.747
  301.734
  301.722
  301.712
  301.702
  301.702
  301.722
  301.75
  301.179
  301.159
  300.832
)
;
  }
  sWall
  {
    type wallHeatTransfer;
    Tinf uniform 303.161;
    alphaWall uniform 0.36;
    value uniform 301.667;
  }
  nWall
  {
    type wallHeatTransfer;
    Tinf uniform 303.145;
    alphaWall uniform 0.36;
    value nonuniform List<scalar> 6
(
  302.138
  302.104
  302.085
  302.165
  302.14
  302.177
)
;
  }
  sideWalls
  {
    type empty;
  }
  glass1
  {
    type wallHeatTransfer;
    Tinf uniform 303.161;
    alphaWall uniform 4.3;
    value nonuniform List<scalar> 9
(
  302.642
  302.583
  302.54
  302.504
  302.469
  302.436
  302.413
  302.418
  302.441
)
;
  }
  glass2
  {
    type wallHeatTransfer;
    Tinf uniform 303.145;
    alphaWall uniform 4.3;
    value nonuniform List<scalar> 2
(
  302.803
  302.794
)
;
  }
  sun
  {
    type wallHeatTransfer;
    Tinf uniform 299.755;
    alphaWall uniform 0.24;
    value nonuniform List<scalar> 14
(
  300.933
  300.918
  300.924
  300.932
  300.94
  300.948
  300.957
  300.972
  301.008
  301.026
  301.034
  301.033
  301.027
  301.019
)
;
  }
  heatsource1
  {
    type fixedGradient;
    gradient uniform 0;
  }
  heatsource2
  {
    type fixedGradient;
    gradient uniform 0;
  }
  Table_master
  {
    type zeroGradient;
  }
  Table_slave
  {
    type zeroGradient;
  }
  inlet
  {
    type fixedValue;
    value uniform 300.15;
  }
  outlet
  {
    type zeroGradient;
  }
} 	// ************************************************************************* //

