/*--------------------------------*- C++ -*----------------------------------*\
  =========                 |
  \\      /  F ield         | OpenFOAM: The Open Source CFD Toolbox
   \\    /   O peration     | Website:  https://openfoam.org
    \\  /    A nd           | Version:  6
     \\/     M anipulation  |
\*---------------------------------------------------------------------------*/
FoamFile
{
    version     2.0;
    format      ascii;
    class       volScalarField;
    location    "1100";
    object      nut;
}
// * * * * * * * * * * * * * * * * * * * * * * * * * * * * * * * * * * * * * //

dimensions      [0 2 -1 0 0 0 0];

internalField   nonuniform List<scalar> 
459
(
0.00108066
0.00118076
0.00120263
0.00126042
0.00131392
0.00136398
0.00141303
0.00146098
0.00149478
0.00150897
0.00149849
0.00146021
0.00139398
0.00130538
0.00120824
0.000474363
0.000580244
0.000652453
0.000647989
0.000625437
0.000595948
0.000559132
0.000522697
0.000489622
0.000460246
0.000434231
0.000411114
0.000390559
0.000372101
0.000355085
0.000338653
0.000321548
0.000309286
0.000281613
0.00147277
0.00360371
0.00345079
0.00401666
0.00457209
0.00512699
0.00561627
0.00598404
0.00631638
0.00658626
0.00675571
0.00678148
0.0065978
0.00604012
0.00451431
0.00123187
0.000725936
0.000513219
0.00107608
0.00148449
0.00177575
0.00192935
0.0019218
0.00154706
0.00133555
0.00118397
0.00106742
0.000974595
0.000898967
0.000833679
0.000772792
0.000713718
0.000661173
0.000615431
0.000720923
0.000367811
0.00179896
0.00492379
0.00428635
0.00537852
0.00592235
0.0063244
0.00663565
0.00688311
0.00715177
0.00743214
0.00769067
0.00787961
0.00794613
0.00781269
0.00727523
0.0056084
0.00122457
0.0010243
0.00146984
0.00188029
0.00224403
0.00248865
0.00241748
0.0008006
0.000706928
0.000631698
0.000571002
0.000521557
0.000480846
0.000447065
0.000419059
0.000396347
0.000427243
0.000494346
0.000810888
0.000425238
0.00211186
0.00629139
0.00430144
0.00569837
0.0061786
0.00633945
0.00644184
0.00656709
0.00678048
0.00706738
0.00739301
0.00769784
0.007927
0.00801909
0.00790202
0.0073263
0.00536831
0.00146616
0.00181822
0.00234538
0.00285028
0.00324606
0.00348413
0.00325833
0.000903447
0.000822342
0.000764207
0.000719865
0.000682216
0.000647741
0.00061468
0.000580064
0.000540014
0.000506645
0.000518379
0.000925783
0.000469707
0.0024308
0.00804522
0.004729
0.0054882
0.00612556
0.00616622
0.00610943
0.00617542
0.00636405
0.00665544
0.00702066
0.00737818
0.00765231
0.00778158
0.00774415
0.00749837
0.00687799
0.00568749
0.00527927
0.00514396
0.00509701
0.00506714
0.00501145
0.00481614
0.00406273
0.00370089
0.00349
0.00332705
0.00315589
0.00291039
0.00257943
0.00217777
0.0017316
0.00128203
0.000945334
0.000950064
0.000630892
0.000578527
0.000700652
0.000786489
0.00276876
0.00995424
0.00650295
0.00546262
0.00594189
0.00615342
0.0060151
0.00607074
0.00621285
0.00647336
0.00684083
0.007232
0.00753379
0.00765839
0.00758497
0.00736031
0.00706196
0.00675335
0.00658106
0.00645543
0.00631441
0.00615346
0.00597159
0.0057414
0.00539947
0.00509232
0.00481945
0.00455847
0.00429397
0.00400795
0.00364912
0.00320347
0.00267101
0.00208203
0.00156149
0.0011694
0.000881092
0.000747737
0.00106536
0.000820732
0.00307601
0.0112897
0.00910219
0.00703396
0.00665435
0.00656944
0.00634794
0.00620715
0.00625075
0.00650376
0.00691028
0.00734604
0.00766388
0.00776043
0.00762455
0.00735318
0.00711812
0.00703668
0.00704743
0.00698751
0.00680909
0.00654436
0.00622375
0.00586453
0.00548448
0.00513099
0.00480738
0.0045069
0.00423
0.003983
0.00376574
0.00346947
0.00305426
0.00254776
0.002061
0.0016258
0.00130615
0.00120739
0.00123068
0.000935457
0.00313533
0.0100435
0.00892576
0.00824456
0.00763902
0.00693912
0.00639154
0.00617331
0.00630555
0.00671326
0.00725556
0.00775293
0.00803693
0.00802655
0.00776105
0.00740807
0.00719408
0.00719316
0.00720471
0.0069924
0.00661349
0.00614178
0.00563926
0.00515937
0.00473813
0.00438416
0.00408483
0.00383297
0.00363145
0.00348773
0.0034088
0.00336944
0.00316183
0.00283719
0.00255205
0.0024069
0.00250008
0.00287913
0.00353247
0.00146048
0.00305182
0.00361821
0.00401643
0.00411524
0.00419898
0.00443084
0.00489919
0.00561268
0.00648798
0.00737305
0.0081046
0.00852921
0.00854431
0.00819749
0.00767556
0.0073164
0.00711486
0.00694218
0.00664994
0.00617983
0.00559937
0.00499863
0.00445352
0.00400265
0.00364631
0.00336336
0.00313204
0.00293903
0.00277574
0.00263362
0.00250362
0.00238432
0.00229015
0.00222092
0.00219491
0.00220473
0.00219224
0.00210434
0.00196676
0.00137366
0.00148291
0.00305876
0.00497808
0.00658103
0.00783584
0.00879557
0.00940301
0.00964543
0.00955859
0.00913689
0.0084699
0.00763271
0.00692097
0.00647862
0.00612096
0.00568338
0.00514757
0.00457358
0.0040279
0.00355677
0.00318459
0.0028984
0.00267617
0.00250057
0.00236153
0.00225399
0.00217547
0.00212472
0.00210339
0.00210919
0.00212825
0.00215668
0.00218675
0.0021944
0.00214087
0.00201375
0.00182258
0.0011421
0.00198526
0.00513085
0.00767277
0.00865017
0.0091461
0.00930634
0.00910458
0.00860165
0.00790224
0.007109
0.00635792
0.00568744
0.00514585
0.00468424
0.00421949
0.00376257
0.00335758
0.00302817
0.00277344
0.0025788
0.0024215
0.00228946
0.00217736
0.00208809
0.00202359
0.00198307
0.00196506
0.00196756
0.00199566
0.00204651
0.00211663
0.00219862
0.00227628
0.00232987
0.00231218
0.00233762
0.00237146
0.00116452
0.00177666
0.00188273
0.00195785
0.00210909
0.00204058
0.00195732
0.00190309
0.00182618
0.00171566
0.00157821
0.0014235
0.00126264
0.00110649
0.000972466
0.000871228
0.000799295
0.000748243
0.000711326
0.000684446
0.000665267
0.000652333
0.000644748
0.00064194
0.000644102
0.000651672
0.000664293
0.00068182
0.000704595
0.000733189
0.000768405
0.000809323
0.000856011
0.000908976
0.000968664
0.0010346
0.00111291
0.00113836
0.00110917
0.00104198
0.000970782
)
;

boundaryField
{
    floor
    {
        type            nutkWallFunction;
        Cmu             0.09;
        kappa           0.41;
        E               9.8;
        value           nonuniform List<scalar> 
29
(
0.000144958
5.64205e-05
6.98696e-05
7.88668e-05
7.83141e-05
7.55155e-05
7.18374e-05
6.72139e-05
6.26015e-05
5.838e-05
5.46009e-05
5.12287e-05
4.82108e-05
4.55092e-05
4.30679e-05
4.08032e-05
3.86032e-05
3.62981e-05
3.46358e-05
3.08516e-05
3.08515e-05
4.24976e-05
5.00565e-05
5.58204e-05
0.000144958
5.64205e-05
6.13951e-05
0.000123581
0.000174334
)
;
    }
    ceiling
    {
        type            nutkWallFunction;
        Cmu             0.09;
        kappa           0.41;
        E               9.8;
        value           nonuniform List<scalar> 
43
(
0.000208812
0.000220464
0.000228677
0.000245205
0.000237812
0.00022876
0.000222839
0.000214402
0.000202204
0.000186911
0.000169518
0.000151209
0.000133183
0.00011748
0.000105454
9.68101e-05
9.06203e-05
8.61131e-05
8.28139e-05
8.04504e-05
7.8852e-05
7.79127e-05
7.75647e-05
7.78327e-05
7.87701e-05
8.03301e-05
8.24906e-05
8.52884e-05
8.87855e-05
9.30706e-05
9.80206e-05
0.000103633
0.000109956
0.000117032
0.00012479
0.000133932
0.000136886
0.000133497
0.000125656
0.000117283
0.00034554
0.000404081
0.000231537
)
;
    }
    sWall
    {
        type            nutkWallFunction;
        Cmu             0.09;
        kappa           0.41;
        E               9.8;
        value           uniform 0.00020887;
    }
    nWall
    {
        type            nutkWallFunction;
        Cmu             0.09;
        kappa           0.41;
        E               9.8;
        value           nonuniform List<scalar> 6(9.52621e-05 9.93964e-05 0.000113105 0.00013733 0.000139927 0.000117288);
    }
    sideWalls
    {
        type            empty;
    }
    glass1
    {
        type            nutkWallFunction;
        Cmu             0.09;
        kappa           0.41;
        E               9.8;
        value           nonuniform List<scalar> 9(0.000130279 0.000175299 0.000211716 0.000245973 0.000280334 0.000316227 0.000348463 0.000354658 0.000345964);
    }
    glass2
    {
        type            nutkWallFunction;
        Cmu             0.09;
        kappa           0.41;
        E               9.8;
        value           nonuniform List<scalar> 2(0.000173765 0.000163937);
    }
    sun
    {
        type            nutkWallFunction;
        Cmu             0.09;
        kappa           0.41;
        E               9.8;
        value           nonuniform List<scalar> 
14
(
0.000130178
0.00014179
0.000144314
0.000150955
0.000157072
0.000162772
0.000168334
0.000173751
0.000177557
0.000179152
0.000177974
0.000173663
0.000166175
0.000156097
)
;
    }
    heatsource1
    {
        type            nutkWallFunction;
        Cmu             0.09;
        kappa           0.41;
        E               9.8;
        value           nonuniform List<scalar> 3(6.96558e-05 8.48052e-05 9.5262e-05);
    }
    heatsource2
    {
        type            nutkWallFunction;
        Cmu             0.09;
        kappa           0.41;
        E               9.8;
        value           nonuniform List<scalar> 4(0.000147672 8.79011e-05 8.7901e-05 0.000146834);
    }
    Table_master
    {
        type            nutkWallFunction;
        Cmu             0.09;
        kappa           0.41;
        E               9.8;
        value           nonuniform List<scalar> 9(9.69676e-05 8.55753e-05 7.62956e-05 6.87117e-05 6.24608e-05 5.72593e-05 5.29015e-05 4.92575e-05 4.62797e-05);
    }
    Table_slave
    {
        type            nutkWallFunction;
        Cmu             0.09;
        kappa           0.41;
        E               9.8;
        value           nonuniform List<scalar> 9(0.000109297 9.95887e-05 9.25613e-05 8.71587e-05 8.25405e-05 7.82848e-05 7.4178e-05 6.98493e-05 6.48014e-05);
    }
    inlet
    {
        type            calculated;
        value           uniform 0.000100623;
    }
    outlet
    {
        type            calculated;
        value           nonuniform List<scalar> 2(0.00177666 0.00188273);
    }
}


// ************************************************************************* //
