/*--------------------------------*- C++ -*----------------------------------*\
  =========                 |
  \\      /  F ield         | OpenFOAM: The Open Source CFD Toolbox
   \\    /   O peration     | Website:  https://openfoam.org
    \\  /    A nd           | Version:  6
     \\/     M anipulation  |
\*---------------------------------------------------------------------------*/
FoamFile
{
    version     2.0;
    format      ascii;
    class       surfaceScalarField;
    location    "1300";
    object      phi;
}
// * * * * * * * * * * * * * * * * * * * * * * * * * * * * * * * * * * * * * //

dimensions      [1 0 -1 0 0 0 0];

internalField   nonuniform List<scalar> 
852
(
-0.0027323
0.00279087
-0.003445
0.000712733
-0.00408066
0.000635704
-0.00464465
0.000564027
-0.00510245
0.000457829
-0.00543763
0.000335214
-0.00563367
0.000196078
-0.00567053
3.68884e-05
-0.00552465
-0.000145845
-0.00517642
-0.000348192
-0.00462447
-0.000551921
-0.00388697
-0.000737465
-0.0029722
-0.000914729
-0.00178356
-0.00118861
-0.00178198
-5.24522e-05
5.5562e-05
0.000413001
-0.00046542
0.000777972
-0.000364937
0.00100449
-0.000226481
0.00115407
-0.000149552
0.0012479
-9.37869e-05
0.00127812
-3.01829e-05
0.00126943
8.72316e-06
0.00124691
2.25543e-05
0.00121902
2.79385e-05
0.00118745
3.16113e-05
0.00115251
3.49799e-05
0.00111269
3.98716e-05
0.00106183
5.0909e-05
0.000982608
7.92677e-05
0.000848766
0.000133893
0.000670663
0.000178153
0.000553157
0.000117556
0.000557439
-0.0019577
0.00490468
-0.00277714
0.00153222
-0.00348713
0.00134572
-0.00406098
0.00113792
-0.00451915
0.000916032
-0.00486008
0.000676173
-0.00507078
0.000406806
-0.0051311
9.72436e-05
-0.00502136
-0.000255548
-0.0047317
-0.000637823
-0.00427298
-0.0010106
-0.00367556
-0.00133486
-0.00298411
-0.00160614
-0.00233357
-0.00183912
-0.00223986
-0.00187565
-0.00088387
-0.00135601
-0.000883888
0.000958691
-0.000896593
0.0010471
-0.000553803
0.00105418
-0.000371988
0.00112284
-0.000295112
0.00121114
-0.00023782
0.0012849
-0.000167524
0.00128983
-3.50763e-05
0.00128392
1.4669e-05
0.00127972
2.67814e-05
0.00127666
3.10343e-05
0.00127415
3.41553e-05
0.00127195
3.72245e-05
0.00126916
4.27024e-05
0.00126264
5.74669e-05
0.00122665
0.000115309
0.00107458
0.000286003
0.000817355
0.000435431
0.000513758
0.000421201
0.00108131
-0.00140364
0.00654464
-0.0021912
0.00231982
-0.00284864
0.0020032
-0.00335536
0.00164468
-0.00376866
0.00132936
-0.00408873
0.000996269
-0.00429815
0.000616265
-0.00437169
0.000170815
-0.0042824
-0.000344802
-0.00401982
-0.00090037
-0.00360431
-0.00142607
-0.00308158
-0.00185755
-0.0025209
-0.00216678
-0.00202854
-0.00233143
-0.00162449
-0.00227967
-0.000950673
-0.0020298
-0.00183453
0.000295107
-0.00118214
0.000520006
-0.00077868
0.000696301
-0.000548261
0.000848714
-0.000447501
0.000985551
-0.000374633
0.00113156
-0.000313511
0.00109667
0.00111152
0.00113848
0.0011697
0.00120404
0.00124145
0.00128434
0.001342
0.0014575
0.00120899
0.000534552
0.000894179
0.00075029
0.000483227
0.0008322
0.00157956
-0.00102021
0.00786766
-0.00172531
0.00302495
-0.00218534
0.00246326
-0.00255767
0.00201705
-0.00288224
0.00165397
-0.0031506
0.00126467
-0.00333943
0.000805129
-0.00341554
0.000246961
-0.0033377
-0.000422616
-0.00309489
-0.00114313
-0.00272558
-0.00179535
-0.00229048
-0.00229259
-0.00185712
-0.00260009
-0.0014872
-0.00270131
-0.00117396
-0.00259288
-0.000891543
-0.00231219
-0.000919743
-0.0018063
0.000169922
-0.00107994
0.000141349
-0.00115354
0.000305112
-0.000942422
0.000486482
-0.000729609
0.000633598
-0.000594595
0.000755143
-0.000496155
0.000834621
-0.000392964
0.00109633
-0.000261843
0.00132298
-0.000226775
0.00153605
-0.000213198
0.00173067
-0.000194743
0.00188814
-0.000157601
0.00197746
-8.94446e-05
0.00195907
1.8259e-05
0.00179502
0.000163926
0.00143188
0.00036301
0.00124403
0.000722434
0.000884813
0.00110954
0.000311868
0.00140519
0.00191083
-0.000742953
0.00896893
-0.00135137
0.00363341
-0.00149634
0.00260827
-0.00168013
0.00220088
-0.00187959
0.00185346
-0.00206032
0.00144543
-0.00219223
0.000937078
-0.00224129
0.000296052
-0.00214983
-0.000514043
-0.00191811
-0.00137481
-0.00160862
-0.00210478
-0.0012828
-0.00261835
-0.000987214
-0.00289561
-0.000751868
-0.0029366
-0.000575638
-0.00276906
-0.000452408
-0.00243538
-0.000291706
-0.00196698
7.75551e-05
-0.00144917
0.000164654
-0.00124062
0.000239363
-0.00101711
0.000336115
-0.00082634
0.000435277
-0.000693735
0.00053618
-0.000597034
0.000656054
-0.000512814
0.000838663
-0.000444428
0.00102385
-0.000411934
0.00120633
-0.000395652
0.0013821
-0.000370494
0.00153928
-0.000314755
0.00165526
-0.000205395
0.00169517
-2.16248e-05
0.00163338
0.000225743
0.00148111
0.000515302
0.00131706
0.000886517
0.00111591
0.00131072
0.000708482
0.00181266
0.000462028
0.00215733
-0.000959434
0.00142129
-0.00142345
0.000463849
-0.00137521
-0.000663682
0.0100375
-0.00114257
0.00411234
-0.000815714
0.00228144
-0.000707531
0.00209274
-0.000766421
0.00191238
-0.000848118
0.00152717
-0.000885351
0.000974346
-0.000849552
0.000260285
-0.000701587
-0.000661976
-0.000486939
-0.00158941
-0.000271466
-0.0023202
-9.33702e-05
-0.00279637
2.95029e-05
-0.0030184
9.30478e-05
-0.00300007
0.000106089
-0.00278205
8.86792e-05
-0.00241793
9.39985e-05
-0.00197227
0.000168417
-0.00152357
0.000159211
-0.00123139
0.000145639
-0.00100352
0.000158268
-0.000838947
0.000195208
-0.000730651
0.000254275
-0.000656078
0.00034225
-0.000600765
0.000461763
-0.000563916
0.000597458
-0.000547603
0.000741832
-0.00054
0.000892796
-0.000521432
0.001047
-0.000468937
0.00119436
-0.000352724
0.00131062
-0.000137858
0.00136425
0.000172135
0.00136887
0.000510708
0.00137836
0.000877057
0.00144314
0.00124597
0.00158718
0.00166865
0.00194068
0.00180387
0.00217463
0.00118737
0.00178608
0.000852441
0.000468712
-0.000822159
0.0113059
-0.000808997
0.00409922
0.000161698
0.00131078
0.000566377
0.00168809
0.000593709
0.00188508
0.000586752
0.00153416
0.000654422
0.000906705
0.000825398
8.93351e-05
0.00103434
-0.00087089
0.0011803
-0.00173533
0.00123561
-0.00237543
0.00120708
-0.00276775
0.00111062
-0.00292184
0.000962436
-0.00285181
0.000779027
-0.00259858
0.000581656
-0.00222051
0.000399632
-0.00179021
0.000259711
-0.00138362
0.000115009
-0.00108667
-1.88218e-07
-0.000888298
-6.97931e-05
-0.00076932
-0.000101842
-0.000698579
-0.000103795
-0.000654101
-7.73141e-05
-0.000627221
-2.55295e-05
-0.000615675
4.4143e-05
-0.000617249
0.000126847
-0.000622676
0.000223713
-0.000618271
0.000340733
-0.00058593
0.000487844
-0.000499808
0.000673447
-0.000323434
0.000856635
-1.10268e-05
0.00101704
0.000350328
0.00120878
0.000685348
0.00148854
0.000966231
0.00192069
0.00123654
0.00252899
0.00119561
0.00304094
0.000675452
0.00303153
0.00086189
0.00356226
0.00230548
0.0094982
0.00287732
0.00352742
0.00309976
0.00108837
0.00303626
0.00175163
0.00286552
0.00205586
0.00280573
0.00159396
0.00286967
0.000842787
0.0030247
-6.56903e-05
0.0031075
-0.000953666
0.00303201
-0.00165978
0.00281066
-0.002154
0.00249602
-0.00245301
0.00213073
-0.00255645
0.00173604
-0.00245702
0.00132997
-0.00219244
0.000932872
-0.00182337
0.000567079
-0.00142438
0.000250482
-0.00106699
-1.88727e-05
-0.000817288
-0.000217464
-0.000689686
-0.000354308
-0.000632454
-0.000451137
-0.000601727
-0.000518969
-0.000586244
-0.000564064
-0.0005821
-0.000592185
-0.000587528
-0.000609687
-0.00059972
-0.000620056
-0.00061228
-0.000622354
-0.000615945
-0.000609678
-0.000598579
-0.000565038
-0.00054442
-0.000454225
-0.000434221
-0.000218022
-0.000247203
7.75329e-05
5.48001e-05
0.000391624
0.000371284
0.000751842
0.000606041
0.00118823
0.00080018
0.00161035
0.000773516
0.00178192
0.000503915
0.00105363
0.00159021
0.00487289
0.010042
0.0135604
0.0122358
0.002413
0.0102148
0.00377269
0.00876252
0.00350816
0.0077888
0.00256772
0.00708498
0.00154663
0.00642618
0.000593158
0.00569856
-0.000225984
0.00492856
-0.0008897
0.00416965
-0.00139497
0.0034619
-0.00174513
0.00280593
-0.00190036
0.0021753
-0.0018263
0.00156998
-0.00158705
0.00100349
-0.00125683
0.000497059
-0.000917911
6.30381e-05
-0.000632947
-0.000264951
-0.000489278
-0.000498531
-0.000456087
-0.000680131
-0.000450833
-0.000830029
-0.000451806
-0.000959766
-0.000456483
-0.00107752
-0.000464323
-0.00119057
-0.000474445
-0.0013063
-0.000483964
-0.00143172
-0.000486838
-0.001574
-0.000473641
-0.00174123
-0.000431312
-0.00194252
-0.000343108
-0.00218656
-0.000190151
-0.00247651
4.27688e-05
-0.00278975
0.000368073
-0.00320256
0.000784117
-0.00386996
0.00127348
-0.00486186
0.0017921
-0.00628675
0.00219844
-0.0079845
0.00220169
-0.00746114
0.00106688
-0.00230259
0.00328867
0.00350105
0.00411506
0.00294645
0.00537357
0.00224979
0.00574478
0.00219663
0.00565316
0.00163837
0.00539105
0.000855392
0.00499683
0.000168359
0.00446515
-0.000357883
0.00384602
-0.000775693
0.00322288
-0.00112184
0.00260199
-0.00127936
0.00193464
-0.00115887
0.00126966
-0.000922015
0.000648099
-0.000635238
0.000106572
-0.000376361
-0.000301827
-0.00022453
-0.000579457
-0.00021163
-0.0007993
-0.000236225
-0.000992318
-0.000257795
-0.00117034
-0.000273766
-0.00134096
-0.000285832
-0.00151005
-0.000295213
-0.00168252
-0.000301945
-0.00186231
-0.000304147
-0.0020516
-0.000297518
-0.00225002
-0.000275194
-0.00245332
-0.000227988
-0.0026514
-0.000144996
-0.00282921
-1.23197e-05
-0.00297411
0.000187703
-0.00308316
0.000477146
-0.00317359
0.000874582
-0.00325263
0.00135254
-0.00328461
0.00182411
-0.00321446
0.00212831
-0.00285703
0.00184429
-0.00158684
-0.000203277
-0.0038144
-0.000391878
0.00393239
0.00118633
0.00136838
0.00205031
0.00138593
0.00273826
0.0015088
0.00318874
0.00118801
0.00338369
0.000660572
0.0033253
0.00022688
0.00306421
-9.66494e-05
0.00265375
-0.000365096
0.00218507
-0.000653018
0.00167297
-0.000767212
0.00103921
-0.00052507
0.000427198
-0.000309981
-8.08833e-05
-0.000127147
-0.000432246
-2.49852e-05
-0.000652983
-3.77914e-06
-0.000834254
-3.03437e-05
-0.00100687
-6.3595e-05
-0.00117619
-8.8458e-05
-0.00134441
-0.000105523
-0.00151308
-0.00011714
-0.00168325
-0.000125022
-0.00185525
-0.000129918
-0.00202798
-0.000131392
-0.00219782
-0.000127649
-0.00235756
-0.000115431
-0.00249546
-9.00544e-05
-0.00259485
-4.55828e-05
-0.00263409
2.69466e-05
-0.00259366
0.000147302
-0.00244205
0.000325565
-0.00214895
0.000581509
-0.00170415
0.000907774
-0.00109264
0.00121263
-0.000134718
0.00117042
0.00115466
0.000554944
0.00155787
-0.00060646
-0.00217422
0.0017493
-0.00844653
-0.00448515
-0.00310495
-0.0017118
-0.00019853
0.000991839
0.00165417
0.00188269
0.00178774
0.00142445
0.000773188
6.48144e-06
-0.000519985
-0.000831859
-0.000961281
-0.000988988
-0.000995951
-0.00102983
-0.00109717
-0.00118951
-0.001299
-0.00142017
-0.00154923
-0.0016832
-0.00181862
-0.00195026
-0.00206962
-0.00216353
-0.00221289
-0.00218962
-0.00204587
-0.00172375
-0.00114558
-0.000241068
0.000968323
0.00213544
0.00268694
0.00207684
)
;

boundaryField
{
    floor
    {
        type            calculated;
        value           nonuniform List<scalar> 
29
(
0
0
0
0
0
0
0
0
0
0
0
0
0
0
0
0
0
0
0
0
-4.23795e-06
-1.00718e-05
-1.49707e-05
-1.93641e-05
-1.54193e-06
-3.06634e-06
-6.50746e-06
-9.53905e-06
-9.69827e-06
)
;
    }
    ceiling
    {
        type            calculated;
        value           nonuniform List<scalar> 
43
(
-1.20901e-05
-2.66823e-05
-2.89269e-05
-1.1734e-05
-7.13249e-06
-4.37627e-06
-2.23578e-06
-1.63899e-06
-1.50566e-06
-1.57463e-06
-1.66945e-06
-1.6751e-06
-6.11191e-07
1.39007e-06
1.90047e-06
2.28271e-06
2.7326e-06
3.19511e-06
3.54631e-06
3.76248e-06
3.89874e-06
3.9881e-06
4.04294e-06
4.06904e-06
4.07039e-06
4.05034e-06
4.01175e-06
3.95686e-06
3.88705e-06
3.80228e-06
3.69994e-06
3.58216e-06
3.46872e-06
3.36697e-06
3.28958e-06
3.26332e-06
3.33486e-06
3.47178e-06
3.66423e-06
4.62197e-06
1.24259e-05
9.0988e-06
-3.93617e-05
)
;
    }
    sWall
    {
        type            calculated;
        value           uniform -0.000215138;
    }
    nWall
    {
        type            calculated;
        value           nonuniform List<scalar> 6(-4.84148e-05 -5.78048e-05 -6.1985e-05 -7.50022e-05 -8.22835e-05 -0.000101971);
    }
    sideWalls
    {
        type            empty;
        value           nonuniform 0();
    }
    glass1
    {
        type            calculated;
        value           nonuniform List<scalar> 9(-5.85342e-05 -0.000156067 -0.000236273 -0.000302769 -0.000358266 -0.000404873 -0.000446123 -0.000497776 -0.000556203);
    }
    glass2
    {
        type            calculated;
        value           nonuniform List<scalar> 2(-0.000256975 -0.000285632);
    }
    sun
    {
        type            calculated;
        value           uniform 0;
    }
    heatsource1
    {
        type            calculated;
        value           nonuniform List<scalar> 3(2.04215e-07 2.04146e-07 2.04156e-07);
    }
    heatsource2
    {
        type            calculated;
        value           nonuniform List<scalar> 4(5.08948e-08 5.10767e-08 0 0);
    }
    Table_master
    {
        type            calculated;
        value           nonuniform List<scalar> 9(-1.53198e-07 -1.53244e-07 -1.53249e-07 -1.53252e-07 -1.53253e-07 -1.53252e-07 -1.53249e-07 -1.53241e-07 -1.53213e-07);
    }
    Table_slave
    {
        type            calculated;
        value           nonuniform List<scalar> 9(1.53166e-07 1.53128e-07 1.5306e-07 1.52998e-07 1.52948e-07 1.52923e-07 1.5293e-07 1.52946e-07 1.53013e-07);
    }
    inlet
    {
        type            calculated;
        value           uniform -0.00437659;
    }
    outlet
    {
        type            calculated;
        value           nonuniform List<scalar> 2(-0.00152203 0.0102226);
    }
}


// ************************************************************************* //
