/*--------------------------------*- C++ -*----------------------------------*\
  =========                 |
  \\      /  F ield         | OpenFOAM: The Open Source CFD Toolbox
   \\    /   O peration     | Website:  https://openfoam.org
    \\  /    A nd           | Version:  6
     \\/     M anipulation  |
\*---------------------------------------------------------------------------*/
FoamFile
{
    version     2.0;
    format      ascii;
    class       surfaceScalarField;
    location    "100";
    object      phi;
}
// * * * * * * * * * * * * * * * * * * * * * * * * * * * * * * * * * * * * * //

dimensions      [1 0 -1 0 0 0 0];

internalField   nonuniform List<scalar> 
852
(
-0.00274398
0.00281397
-0.00317778
0.00043388
-0.00371505
0.000537351
-0.00423836
0.000523392
-0.00469818
0.000459897
-0.00507206
0.000373952
-0.00534122
0.000269241
-0.00548499
0.000143843
-0.00547966
-5.25426e-06
-0.00529611
-0.00018347
-0.00490947
-0.000386561
-0.00430456
-0.000604832
-0.00344318
-0.000861302
-0.00214583
-0.00129727
-0.00214243
0.000754537
-0.000750516
0.00115293
-0.000398323
0.00133457
-0.000181563
0.00147729
-0.00014263
0.00162155
-0.000144178
0.00173535
-0.000113711
0.0017573
-2.18463e-05
0.00172232
3.50826e-05
0.0016727
4.97238e-05
0.00162245
5.03649e-05
0.00157428
4.82871e-05
0.00152902
4.53698e-05
0.00148528
4.38577e-05
0.00143613
4.92572e-05
0.00136221
7.40237e-05
0.00123236
0.000129951
0.00104596
0.000186485
0.00084167
0.000204365
0.000848484
-0.00199987
0.00499865
-0.00272311
0.00115721
-0.00340341
0.00121774
-0.00396845
0.00108851
-0.00444768
0.000939208
-0.00483826
0.000764611
-0.00512755
0.000558612
-0.00529807
0.000314446
-0.00532982
2.65847e-05
-0.00520762
-0.000305592
-0.00491857
-0.000675522
-0.00445168
-0.00107164
-0.00380545
-0.00150746
-0.00310496
-0.00199768
-0.00292889
-0.00231843
-0.00097832
-0.00195054
-0.000978303
0.00055245
-0.0012925
0.000718675
-0.000564486
0.000856217
-0.000319039
0.00102725
-0.00031359
0.00121214
-0.000328988
0.00137882
-0.00028031
0.0014123
-5.52423e-05
0.00141452
3.29584e-05
0.00141649
4.78551e-05
0.00141888
4.80761e-05
0.00142105
4.62275e-05
0.00142304
4.34825e-05
0.00142439
4.2617e-05
0.00142246
5.12931e-05
0.00139062
0.000105957
0.00123925
0.000281413
0.000981088
0.00044473
0.0006759
0.000509623
0.00154133
-0.00147806
0.00675344
-0.00229264
0.00197187
-0.00296877
0.00189394
-0.00350019
0.00162002
-0.00395625
0.00139535
-0.00433778
0.00114623
-0.00463308
0.000853991
-0.00482536
0.000506814
-0.00489636
9.76738e-05
-0.00483053
-0.000371324
-0.00462293
-0.000883039
-0.00428574
-0.00140873
-0.00386641
-0.0019267
-0.00347112
-0.00239289
-0.00310551
-0.00268395
-0.00222817
-0.00282781
-0.0032064
-0.000328737
-0.000948211
-5.93579e-05
-0.000833806
0.000275015
-0.00065335
0.000546007
-0.000584516
0.00078305
-0.000565961
0.0010938
-0.000590988
0.00103879
0.00107199
0.0011201
0.00116843
0.00121491
0.00125865
0.00130153
0.00135307
0.00145928
0.0012025
0.00053828
0.000887873
0.000759434
0.000539283
0.000858282
0.00210567
-0.00110548
0.00820976
-0.00192203
0.0027885
-0.0024483
0.0024203
-0.00287912
0.00205093
-0.00326729
0.0017836
-0.00360594
0.00148497
-0.00388256
0.00113071
-0.00408033
0.000704671
-0.00417758
0.000195018
-0.00415319
-0.000395615
-0.00401124
-0.00102489
-0.00379216
-0.00162771
-0.00356478
-0.00215399
-0.00339388
-0.00256369
-0.00325058
-0.00282716
-0.00312735
-0.00295095
-0.0037207
-0.00261298
-0.00188784
-0.00181619
-0.00112873
-0.00170726
-0.000566525
-0.00139596
-0.000143236
-0.00107658
0.000165999
-0.000893691
0.000372296
-0.000772195
0.000425146
-0.000643774
0.00083599
-0.000410933
0.00117068
-0.000334777
0.00147215
-0.000301552
0.00173998
-0.000267919
0.00195462
-0.000214719
0.00208059
-0.000126045
0.00207182
8.69307e-06
0.00188756
0.000184184
0.0014756
0.000411884
0.00122916
0.000784813
0.000801902
0.00118678
0.00017079
0.00148947
0.00230899
-0.000814943
0.00943662
-0.00159024
0.00356388
-0.00185611
0.00268625
-0.00214694
0.00234185
-0.00243083
0.00206758
-0.00268531
0.00173955
-0.00289923
0.00134472
-0.00305974
0.000865279
-0.0031464
0.00028178
-0.00312541
-0.000416503
-0.00300514
-0.00114505
-0.00284497
-0.00178778
-0.00270593
-0.00229291
-0.00261928
-0.00265024
-0.0025773
-0.00286904
-0.00259334
-0.00293481
-0.00246776
-0.00273848
-0.00181142
-0.00247246
-0.0011752
-0.00234341
-0.000662999
-0.0019081
-0.000317081
-0.00142244
-5.44052e-05
-0.00115631
0.000149474
-0.000976018
0.000330606
-0.000824847
0.000602236
-0.000682505
0.00086917
-0.00060165
0.00112187
-0.000554191
0.00135936
-0.000505346
0.00156964
-0.000424931
0.00172616
-0.000282504
0.00178829
-5.33626e-05
0.001726
0.000246551
0.00155348
0.000584477
0.00134698
0.000991393
0.00108081
0.00145303
0.000528562
0.0020418
0.000286469
0.00255115
-0.00118146
0.00146777
-0.00166791
0.000486279
-0.00160468
-0.00071515
0.0106153
-0.00139244
0.00424126
-0.00122488
0.00251878
-0.0013215
0.00243856
-0.0014943
0.00224047
-0.00164137
0.00188672
-0.00175141
0.00145486
-0.00182461
0.000938577
-0.00185239
0.000309662
-0.00179308
-0.000475702
-0.00167585
-0.00126218
-0.00156833
-0.00189519
-0.00151311
-0.00234802
-0.00152462
-0.00263862
-0.00159753
-0.00279601
-0.00169782
-0.00283441
-0.00166471
-0.00277148
-0.00139862
-0.00273845
-0.000966743
-0.00277521
-0.000586953
-0.00228782
-0.000367219
-0.00164212
-0.000200012
-0.00132347
-5.39759e-05
-0.001122
9.30144e-05
-0.000971785
0.000268534
-0.000857971
0.000456138
-0.000789199
0.000649057
-0.000747053
0.000847445
-0.000703676
0.00104895
-0.000626381
0.00124171
-0.0004752
0.00139603
-0.000207619
0.00147041
0.000172246
0.00147927
0.000575689
0.00147883
0.000991902
0.0015321
0.00139985
0.00166968
0.00190429
0.00215333
0.00206757
0.00245033
0.00117082
0.00204866
0.000887995
0.000518842
-0.000997974
0.0121213
-0.00112957
0.00437295
-0.000350727
0.00174002
-0.000242441
0.00233036
-0.000374832
0.00237295
-0.000459477
0.00197145
-0.000456382
0.00145186
-0.00039724
0.000879534
-0.000277684
0.000190205
-0.000138861
-0.000614428
-3.94873e-05
-0.00136145
-1.99005e-05
-0.00191466
-8.86062e-05
-0.0022792
-0.000236277
-0.00249082
-0.000443948
-0.00258821
-0.0006721
-0.00260613
-0.000844126
-0.00259933
-0.000876519
-0.00270595
-0.000669453
-0.00298219
-0.000435183
-0.00252202
-0.000364821
-0.00171243
-0.000320568
-0.00136767
-0.000277082
-0.00116544
-0.000225574
-0.00102324
-0.000156181
-0.000927314
-7.14055e-05
-0.000873924
2.87573e-05
-0.000847164
0.000148329
-0.000823193
0.000295364
-0.00077336
0.000482065
-0.000661843
0.000715117
-0.00044061
0.000942986
-5.55583e-05
0.0011395
0.000379246
0.00135256
0.000778911
0.00165471
0.00109778
0.00214677
0.00141231
0.00290993
0.00130448
0.00355313
0.000527688
0.00360465
0.000836539
0.00420086
0.00224513
0.0104406
0.00267307
0.00394509
0.0023948
0.00201837
0.00205127
0.00267397
0.00167203
0.00275228
0.00145803
0.00218555
0.00144144
0.00146854
0.00155539
0.000765672
0.00177444
-2.87552e-05
0.00194036
-0.000780259
0.00192882
-0.00134981
0.00176643
-0.00175217
0.00149771
-0.00201036
0.00115745
-0.00215043
0.000772443
-0.00220308
0.000370133
-0.00220368
-1.72694e-05
-0.00221178
-0.000327407
-0.00239568
-0.000343145
-0.00296636
-0.000240292
-0.00262481
-0.000336215
-0.00161646
-0.000440263
-0.00126358
-0.000520356
-0.0010853
-0.00058476
-0.000958794
-0.000636941
-0.000875087
-0.000680616
-0.000830201
-0.000716406
-0.000811324
-0.000739745
-0.000799803
-0.000739763
-0.000773288
-0.000694175
-0.000707376
-0.000560293
-0.000574434
-0.000272579
-0.000343212
7.32027e-05
3.35264e-05
0.000408887
0.000443292
0.000760757
0.000745981
0.00118107
0.00099207
0.00155447
0.000931138
0.00156041
0.000521814
0.000659976
0.00173703
0.00521521
0.0110661
0.0150102
0.0121419
0.00488671
0.00986918
0.00494679
0.0080596
0.00456195
0.00683019
0.00341504
0.00606278
0.00223604
0.00560769
0.00122085
0.00519492
0.000384102
0.00471178
-0.00029702
0.00418631
-0.000824248
0.00363301
-0.00119876
0.00305899
-0.00143623
0.00247276
-0.00156408
0.00188272
-0.00161291
0.00129408
-0.0016149
0.000712353
-0.00162992
0.000181548
-0.00186474
-1.46014e-05
-0.0027701
5.81106e-06
-0.00264514
-0.000313934
-0.00129666
-0.000581216
-0.00099625
-0.000775397
-0.000891077
-0.000948927
-0.00078522
-0.00112107
-0.000702901
-0.00130198
-0.000649243
-0.00150042
-0.000612844
-0.00172334
-0.000576834
-0.00197782
-0.000518755
-0.00227205
-0.000413091
-0.00261321
-0.000233221
-0.00301286
5.64957e-05
-0.00344603
0.000466752
-0.00400987
0.00100719
-0.00490667
0.00164283
-0.00619108
0.00227653
-0.00795207
0.00269218
-0.00998131
0.0025511
-0.00917236
0.000928128
-0.00356183
0.005383
0.00544375
0.00500211
0.00532774
0.00573501
0.00382913
0.0060809
0.00306924
0.00614846
0.00216857
0.00609851
0.0012709
0.00593765
0.000545056
0.00562449
1.62396e-05
0.00515868
-0.00035833
0.00458967
-0.00062964
0.00396255
-0.000808991
0.00331142
-0.000912828
0.002656
-0.00095737
0.00199501
-0.00095377
0.00129685
-0.000931613
0.000604672
-0.00117242
0.000268812
-0.00243413
0.000206285
-0.00258255
-0.000444592
-0.000645729
-0.000811656
-0.000629143
-0.00105035
-0.00065234
-0.00127645
-0.000559081
-0.00150359
-0.000475724
-0.00174157
-0.000411222
-0.0020038
-0.000350569
-0.00229528
-0.00028531
-0.00260622
-0.000207763
-0.00291024
-0.000109032
-0.00315829
1.48814e-05
-0.00334128
0.00023953
-0.00348075
0.000606273
-0.0036061
0.00113259
-0.00374096
0.00177774
-0.00383107
0.00236668
-0.00373226
0.00259341
-0.00320794
0.00202683
-0.00175545
-0.000524331
-0.00521811
-0.000723405
0.00620993
0.00159744
0.00300696
0.00292691
0.00249973
0.00391806
0.00207817
0.00469028
0.00139644
0.00513084
0.00083043
0.00526675
0.000409246
0.00516268
0.000120411
0.00490119
-9.67303e-05
0.00452332
-0.000251664
0.00406768
-0.000353234
0.00356677
-0.0004118
0.00304304
-0.00043352
0.00250686
-0.000417465
0.00194574
-0.000370365
0.00131799
-0.00054453
0.000516289
-0.00163232
-0.00023182
-0.00183439
-0.000843453
-3.40528e-05
-0.00119841
-0.000274151
-0.00146947
-0.000381232
-0.00170286
-0.000325655
-0.00190301
-0.000275532
-0.00207613
-0.00023807
-0.00222994
-0.000196715
-0.0023697
-0.000145515
-0.00249579
-8.16321e-05
-0.00260527
4.97163e-07
-0.00267954
8.91881e-05
-0.00265307
0.0002131
-0.00247903
0.000432282
-0.00211972
0.00077333
-0.00159719
0.00125525
-0.000921696
0.00169123
0.000170142
0.00150161
0.0014629
0.000734103
0.00164083
-0.000702217
-0.00346858
-0.00937906
-0.0119276
-0.00567859
-0.00264584
-0.000124004
0.00197423
0.00339078
0.00424186
0.0046726
0.00481552
0.00474237
0.00451536
0.00418787
0.00380296
0.00339756
0.00300948
0.00266976
0.00215717
0.000558191
-0.00124385
-0.0012473
-0.00149085
-0.00184145
-0.00213655
-0.00238158
-0.00258919
-0.00275553
-0.00287083
-0.00292254
-0.00289262
-0.00277479
-0.00253396
-0.00207502
-0.00127619
3.37825e-06
0.00171727
0.003241
0.0039975
0.00331887
)
;

boundaryField
{
    floor
    {
        type            calculated;
        value           nonuniform List<scalar> 
29
(
0
0
0
0
0
0
0
0
0
0
0
0
0
0
0
0
0
0
0
0
-6.7459e-06
-1.68829e-05
-2.49917e-05
-3.24776e-05
-3.3174e-06
-3.95135e-06
-1.04087e-05
-1.54956e-05
-1.66019e-05
)
;
    }
    ceiling
    {
        type            calculated;
        value           nonuniform List<scalar> 
43
(
-4.14482e-05
-4.02485e-05
-3.89931e-05
-2.57086e-05
-2.20282e-05
-1.99699e-05
-2.00167e-05
-2.05547e-05
-2.13861e-05
-2.24063e-05
-2.34794e-05
-2.45377e-05
-2.56313e-05
-2.67845e-05
-2.8002e-05
-2.92633e-05
-3.05288e-05
-3.18168e-05
-3.32343e-05
-3.23238e-05
-3.05671e-05
-3.05658e-05
-3.05979e-05
-3.05254e-05
-3.04649e-05
-3.04188e-05
-3.03424e-05
-3.0182e-05
-2.98813e-05
-2.93815e-05
-2.86089e-05
-2.76873e-05
-2.66176e-05
-2.54611e-05
-2.42721e-05
-2.2619e-05
-2.20758e-05
-2.23632e-05
-2.35493e-05
-2.44341e-05
3.48918e-06
1.11249e-06
-4.27429e-05
)
;
    }
    sWall
    {
        type            calculated;
        value           uniform -0.000242863;
    }
    nWall
    {
        type            calculated;
        value           nonuniform List<scalar> 6(-6.33931e-05 -7.48089e-05 -7.73141e-05 -9.91393e-05 -0.000108669 -0.000125238);
    }
    sideWalls
    {
        type            empty;
        value           nonuniform 0();
    }
    glass1
    {
        type            calculated;
        value           nonuniform List<scalar> 9(-6.99095e-05 -0.000184723 -0.000276638 -0.000350758 -0.00041183 -0.000463402 -0.000508001 -0.00056436 -0.000628886);
    }
    glass2
    {
        type            calculated;
        value           nonuniform List<scalar> 2(-0.000354321 -0.00039527);
    }
    sun
    {
        type            calculated;
        value           uniform 0;
    }
    heatsource1
    {
        type            calculated;
        value           nonuniform List<scalar> 3(2.06639e-07 2.06475e-07 2.0649e-07);
    }
    heatsource2
    {
        type            calculated;
        value           nonuniform List<scalar> 4(5.14203e-08 5.16566e-08 0 0);
    }
    Table_master
    {
        type            calculated;
        value           nonuniform List<scalar> 9(-1.54973e-07 -1.55063e-07 -1.55084e-07 -1.55102e-07 -1.55117e-07 -1.55131e-07 -1.55143e-07 -1.5515e-07 -1.55134e-07);
    }
    Table_slave
    {
        type            calculated;
        value           nonuniform List<scalar> 9(1.55004e-07 1.54952e-07 1.54862e-07 1.54781e-07 1.5472e-07 1.5469e-07 1.54706e-07 1.54729e-07 1.54816e-07);
    }
    inlet
    {
        type            calculated;
        value           uniform -0.00594001;
    }
    outlet
    {
        type            calculated;
        value           nonuniform List<scalar> 2(0.00966343 0.0025888);
    }
}


// ************************************************************************* //
