/*--------------------------------*- C++ -*----------------------------------*\
  =========                 |
  \\      /  F ield         | OpenFOAM: The Open Source CFD Toolbox
   \\    /   O peration     | Website:  https://openfoam.org
    \\  /    A nd           | Version:  6
     \\/     M anipulation  |
\*---------------------------------------------------------------------------*/
FoamFile
{
    version     2.0;
    format      ascii;
    class       volScalarField;
    location    "1600";
    object      alphat;
}
// * * * * * * * * * * * * * * * * * * * * * * * * * * * * * * * * * * * * * //

dimensions      [1 -1 -1 0 0 0 0];

internalField   nonuniform List<scalar> 
459
(
0.00276627
0.00269055
0.00259562
0.00250863
0.00243395
0.0023685
0.00230982
0.00225543
0.00220276
0.00214943
0.00209296
0.00203014
0.00195583
0.00185918
0.00173177
0.000265244
0.0002814
0.00029483
0.000271078
0.000243854
0.000223668
0.000200328
0.000184181
0.000181544
0.000185157
0.000194491
0.000210296
0.000235002
0.000266057
0.000287843
0.000313768
0.000331126
0.000350266
0.000315013
0.00314977
0.00351381
0.00354502
0.00343765
0.00336673
0.00334142
0.00334309
0.00332905
0.00328629
0.00321298
0.00310813
0.00296811
0.00277888
0.00249504
0.00210573
0.00164857
0.00143575
0.00044181
0.000632228
0.000732191
0.000828983
0.000885974
0.000794787
0.00033742
0.000234212
0.000246854
0.000300601
0.000393017
0.000529949
0.000716628
0.000929727
0.0011157
0.00147147
0.0014208
0.00133071
0.000412241
0.00337521
0.00393733
0.00363181
0.00327304
0.00313828
0.00314587
0.00322591
0.00332107
0.00339496
0.00342659
0.00340146
0.00330849
0.00313447
0.00284784
0.00247475
0.00212537
0.00144733
0.000670591
0.00168514
0.00164222
0.00155715
0.00135669
0.00107429
0.000363584
0.000254102
0.000271249
0.000307398
0.00034464
0.000385818
0.000434342
0.000494591
0.000574834
0.00158286
0.00142899
0.0010662
0.000536572
0.00354026
0.00426911
0.00329439
0.00267322
0.00266539
0.00290263
0.00319366
0.00340787
0.00353084
0.00357182
0.00354874
0.00346375
0.00330352
0.0030333
0.00268256
0.00235365
0.00179608
0.000900502
0.00217236
0.00212517
0.00189118
0.00153187
0.00116117
0.000841526
0.000609818
0.000631612
0.0006559
0.000678068
0.000701447
0.000729448
0.000765856
0.00081597
0.000891913
0.00268088
0.00284294
0.00249218
0.000856091
0.00368442
0.00438073
0.00262086
0.00223617
0.00315015
0.00402917
0.00456542
0.00461046
0.00427877
0.00394949
0.00371846
0.00354471
0.0033567
0.00307877
0.00272775
0.00239452
0.00198617
0.00203698
0.00284653
0.00320703
0.00315201
0.00307555
0.00305742
0.00310567
0.00320466
0.00333238
0.00337186
0.0033801
0.0033739
0.00337127
0.00339231
0.00345423
0.00357101
0.00377191
0.00379186
0.00368222
0.00314852
0.00128924
0.00112196
0.000969396
0.00383096
0.00426101
0.00199177
0.00277177
0.00455308
0.00511223
0.00525484
0.00508867
0.00448389
0.00400425
0.00369985
0.00348739
0.00327323
0.00298905
0.0026711
0.00240396
0.00222415
0.00284873
0.00367626
0.00416942
0.00428462
0.00438854
0.00451682
0.00465387
0.00477644
0.00485081
0.00486805
0.00483303
0.00474585
0.00461828
0.00447792
0.00435633
0.00426696
0.00419471
0.00409886
0.00393315
0.0036066
0.00297333
0.0022029
0.00102848
0.00400359
0.00397931
0.00193231
0.00254369
0.00432673
0.0046433
0.00455626
0.00437172
0.00407314
0.00376615
0.00352163
0.0033204
0.00311091
0.00286059
0.00261492
0.00247032
0.0025395
0.00357151
0.00441235
0.00481315
0.00501098
0.00519795
0.00537322
0.00552588
0.00565406
0.00575669
0.0058341
0.00587205
0.00584274
0.00571736
0.0054923
0.0052067
0.00491025
0.00462301
0.00432599
0.0039696
0.00349234
0.002872
0.00217872
0.0010377
0.0042473
0.00413188
0.00254524
0.00178385
0.00337459
0.0038173
0.00375597
0.00367191
0.00358387
0.00344374
0.00329276
0.00313999
0.00297147
0.00278377
0.00262746
0.00261694
0.00291206
0.00420984
0.00496433
0.0053216
0.00558491
0.00579036
0.00595058
0.00606965
0.0061702
0.00627401
0.00639801
0.00654625
0.00670084
0.00681093
0.00680037
0.00662626
0.00630403
0.0058674
0.00535031
0.00477428
0.00417895
0.00357683
0.00308637
0.00161989
0.00466349
0.00529162
0.0047944
0.00216034
0.00265702
0.00336825
0.00338855
0.00333702
0.00329508
0.00324154
0.00316754
0.00307697
0.00296782
0.00284707
0.00276409
0.0028488
0.00330509
0.00462984
0.00539158
0.00587418
0.00618603
0.0063879
0.00649365
0.00653365
0.00654578
0.00656519
0.0066218
0.00674058
0.0069402
0.00722083
0.00753328
0.00776815
0.0079127
0.00797667
0.00802672
0.00804953
0.00772121
0.00686561
0.00637528
0.00184583
0.00770652
0.00316379
0.00313694
0.0035002
0.00353491
0.00351519
0.00346607
0.00341277
0.00337031
0.003325
0.00326594
0.00319378
0.0031498
0.00327941
0.00383868
0.00485461
0.0057562
0.00638736
0.00677628
0.00699996
0.00708029
0.00706199
0.00699588
0.00692553
0.00688396
0.00689622
0.0069824
0.00715601
0.0074112
0.00768771
0.00796846
0.00821266
0.00834778
0.00823655
0.00779528
0.00701227
0.00581392
0.00187246
0.00359443
0.00299392
0.00403863
0.00382954
0.00369709
0.00356296
0.00343704
0.00331325
0.00327098
0.00327179
0.00328213
0.00327658
0.00326387
0.00332899
0.00366088
0.00436382
0.00529977
0.00621151
0.00686528
0.00721406
0.00731799
0.00727364
0.00716673
0.00705637
0.00697577
0.0069389
0.00694756
0.00699651
0.00707474
0.00715761
0.00722389
0.00728211
0.0072334
0.00703054
0.00662449
0.00595369
0.00536178
0.00188032
0.00161782
0.00164925
0.00223181
0.00134688
0.00134408
0.00132908
0.0013337
0.00134241
0.00135447
0.00136871
0.00138153
0.00139497
0.00140832
0.00141883
0.00142163
0.00140049
0.00137208
0.00136224
0.00137639
0.00141616
0.00148208
0.00154877
0.00159965
0.00162976
0.00164167
0.00164096
0.00163326
0.00162307
0.00161321
0.00160498
0.00159842
0.001594
0.00158935
0.00157761
0.0015626
0.00154328
0.00151451
0.00147007
0.00146412
0.00134118
)
;

boundaryField
{
    floor
    {
        type            compressible::alphatWallFunction;
        Prt             0.85;
        value           nonuniform List<scalar> 
29
(
0.00024215
3.19797e-05
3.4657e-05
3.68672e-05
3.29486e-05
2.83994e-05
2.49823e-05
2.0977e-05
1.81722e-05
1.77114e-05
1.83436e-05
1.99692e-05
2.26976e-05
2.69073e-05
3.21147e-05
3.57183e-05
3.99607e-05
4.27751e-05
4.58559e-05
4.01647e-05
4.01641e-05
5.56833e-05
7.48737e-05
0.000121949
0.000242147
3.19792e-05
6.03072e-05
9.4942e-05
0.000128302
)
;
    }
    ceiling
    {
        type            compressible::alphatWallFunction;
        Prt             0.85;
        value           nonuniform List<scalar> 
43
(
0.00022727
0.000231431
0.000307475
0.000190594
0.000190214
0.000188172
0.000188803
0.00018999
0.000191631
0.000193566
0.000195308
0.00019713
0.000198937
0.000200358
0.000200732
0.000197858
0.000193995
0.000192653
0.000194572
0.000199962
0.000208859
0.000217816
0.00022462
0.000228634
0.000230219
0.000230122
0.000229095
0.000227734
0.000226417
0.000225317
0.000224439
0.000223848
0.000223224
0.000221654
0.000219643
0.000217053
0.000213192
0.000207212
0.000206411
0.000189747
0.000607426
0.000681876
0.000478247
)
;
    }
    sWall
    {
        type            compressible::alphatWallFunction;
        Prt             0.85;
        value           uniform 0.000226392;
    }
    nWall
    {
        type            compressible::alphatWallFunction;
        Prt             0.85;
        value           nonuniform List<scalar> 6(0.000137937 0.000146259 0.000147552 0.000260402 0.000261426 0.000189459);
    }
    sideWalls
    {
        type            empty;
    }
    glass1
    {
        type            compressible::alphatWallFunction;
        Prt             0.85;
        value           nonuniform List<scalar> 9(0.000370726 0.000418324 0.000446019 0.000466169 0.000483686 0.000501417 0.000522219 0.00055146 0.000601072);
    }
    glass2
    {
        type            compressible::alphatWallFunction;
        Prt             0.85;
        value           nonuniform List<scalar> 2(0.000226327 0.000256173);
    }
    sun
    {
        type            compressible::alphatWallFunction;
        Prt             0.85;
        value           nonuniform List<scalar> 
14
(
0.000375419
0.000365867
0.000353858
0.000342814
0.000333301
0.000324938
0.00031742
0.000310433
0.000303649
0.000296764
0.000289452
0.000281293
0.000271607
0.000258949
)
;
    }
    heatsource1
    {
        type            compressible::alphatWallFunction;
        Prt             0.85;
        value           nonuniform List<scalar> 3(0.00018255 0.000159489 0.000138108);
    }
    heatsource2
    {
        type            compressible::alphatWallFunction;
        Prt             0.85;
        value           nonuniform List<scalar> 4(0.000230995 0.00020246 0.000202458 0.000204022);
    }
    Table_master
    {
        type            compressible::alphatWallFunction;
        Prt             0.85;
        value           nonuniform List<scalar> 9(4.80388e-05 3.01754e-05 3.30342e-05 3.89813e-05 4.50112e-05 5.15792e-05 5.92032e-05 6.85198e-05 8.07106e-05);
    }
    Table_slave
    {
        type            compressible::alphatWallFunction;
        Prt             0.85;
        value           nonuniform List<scalar> 9(8.59551e-05 8.92054e-05 9.28115e-05 9.60886e-05 9.95308e-05 0.000103635 0.000108944 0.000116201 0.0001271);
    }
    inlet
    {
        type            fixedValue;
        value           uniform 1.94e-05;
    }
    outlet
    {
        type            zeroGradient;
    }
}


// ************************************************************************* //
