/*--------------------------------*- C++ -*----------------------------------*\
  =========                 |
  \\      /  F ield         | OpenFOAM: The Open Source CFD Toolbox
   \\    /   O peration     | Website:  https://openfoam.org
    \\  /    A nd           | Version:  6
     \\/     M anipulation  |
\*---------------------------------------------------------------------------*/
FoamFile
{
    version     2.0;
    format      ascii;
    class       volScalarField;
    location    "200";
    object      epsilon;
}
// * * * * * * * * * * * * * * * * * * * * * * * * * * * * * * * * * * * * * //

dimensions      [0 2 -3 0 0 0 0];

internalField   nonuniform List<scalar> 
459
(
0.000153318
0.000178762
0.000173412
0.000191975
0.000209018
0.000224328
0.000238259
0.000251326
0.000264216
0.000276378
0.00028413
0.00028593
0.000281705
0.000274108
0.000265329
6.0181e-05
4.52122e-05
3.40403e-05
2.63837e-05
2.1809e-05
1.84452e-05
1.52381e-05
1.22057e-05
9.33652e-06
6.75215e-06
4.83053e-06
3.82327e-06
3.63046e-06
3.52833e-06
3.21186e-06
2.81536e-06
2.82111e-06
8.81674e-06
5.10278e-06
0.000511731
0.00102636
0.000168043
0.000148304
0.000147151
0.000148334
0.000151475
0.000157758
0.000168457
0.000183199
0.000197411
0.00020749
0.000210918
0.000210806
0.000223468
0.000282288
0.000213525
0.000120328
6.46096e-05
4.18617e-05
3.02417e-05
2.32695e-05
1.90345e-05
1.69686e-05
1.46884e-05
1.28122e-05
1.14771e-05
1.07273e-05
1.03662e-05
9.91479e-06
9.16845e-06
8.32143e-06
6.92983e-06
6.5503e-06
4.82442e-05
2.1036e-05
0.00112443
0.00320934
0.000263639
0.000149786
0.000145519
0.000151364
0.00016125
0.000175717
0.000195071
0.000218074
0.000239072
0.000251124
0.000249973
0.000239076
0.000231247
0.000245011
0.000364643
0.000195573
6.90949e-05
4.45234e-05
3.32883e-05
2.65149e-05
2.40427e-05
5.19977e-05
3.67961e-05
2.84383e-05
2.33244e-05
1.99048e-05
1.73955e-05
1.53695e-05
1.36115e-05
1.20629e-05
1.01253e-05
1.23058e-05
0.000116904
4.99301e-05
0.00213434
0.00748893
0.0005516
0.000164644
0.000149319
0.000160085
0.000176227
0.00019801
0.000226863
0.000262353
0.000293895
0.000308923
0.000302773
0.000280468
0.000252441
0.000231872
0.000247558
0.000340267
0.000115534
6.31146e-05
4.39247e-05
3.36172e-05
2.8359e-05
2.89246e-05
8.11069e-05
6.69766e-05
6.26432e-05
6.36982e-05
6.68361e-05
6.8028e-05
6.32185e-05
5.64884e-05
4.78139e-05
2.9297e-05
3.12594e-05
0.000242857
6.64994e-05
0.00368036
0.0140699
0.00134413
0.000215632
0.000154933
0.000164549
0.000185527
0.000217236
0.000264414
0.000327025
0.000377598
0.00039625
0.000382352
0.00034578
0.000298956
0.000254417
0.000222321
0.000188578
0.000104173
6.47459e-05
4.30854e-05
3.22041e-05
2.78603e-05
2.83086e-05
3.43299e-05
3.88786e-05
4.51012e-05
5.32137e-05
6.12562e-05
6.57378e-05
6.3304e-05
5.55143e-05
4.79991e-05
3.85446e-05
3.55056e-05
0.000117694
0.000162266
0.000124737
0.000155202
0.000247291
0.00593843
0.0211341
0.00354202
0.000494108
0.000223595
0.000194785
0.000206063
0.000242347
0.0003209
0.00043507
0.00050426
0.000516645
0.000485315
0.000427133
0.000357687
0.000291319
0.000233679
0.000173946
0.00011219
6.85426e-05
4.31822e-05
3.20428e-05
2.93929e-05
3.22797e-05
3.98286e-05
5.08236e-05
6.51983e-05
8.21095e-05
9.90219e-05
0.000111898
0.000115543
0.000101541
8.26108e-05
6.65729e-05
5.82365e-05
8.30379e-05
0.000114305
0.00012216
0.000302151
0.000330743
0.00891772
0.0252644
0.00868224
0.00228587
0.000982494
0.000552308
0.000421269
0.000410419
0.000534
0.000665222
0.000706947
0.000680473
0.000611888
0.000520836
0.000423408
0.000334935
0.000260586
0.000191921
0.000126156
7.4051e-05
4.54211e-05
3.513e-05
3.53193e-05
4.22705e-05
5.50904e-05
7.30071e-05
9.53248e-05
0.000121291
0.000149633
0.000178351
0.000205064
0.000220456
0.000198142
0.000184385
0.000192099
0.000242262
0.000332146
0.000430078
0.000692039
0.000701536
0.00976898
0.0301189
0.0159695
0.0102011
0.00585932
0.00325176
0.00200124
0.00146231
0.00128098
0.00116505
0.00104204
0.000905943
0.000762527
0.000618785
0.000484647
0.000374346
0.000289569
0.000214813
0.000139422
7.90096e-05
5.04735e-05
4.264e-05
4.56724e-05
5.62802e-05
7.32314e-05
9.58421e-05
0.000124009
0.000158363
0.000200188
0.000251336
0.000314448
0.000393009
0.000490895
0.00058964
0.000803518
0.00127753
0.0020319
0.00266162
0.00543993
0.00133515
0.00917409
0.0160325
0.0142778
0.0108436
0.00798663
0.00568142
0.00404828
0.00300004
0.00229332
0.0017933
0.00142276
0.0011325
0.000893024
0.000688158
0.000517639
0.000394968
0.000311693
0.000235299
0.000147675
8.49927e-05
6.01818e-05
5.32538e-05
5.67896e-05
6.77889e-05
8.46586e-05
0.000107339
0.000136687
0.000174341
0.000222906
0.000285689
0.00036628
0.000468522
0.000597645
0.000760223
0.000958329
0.0011822
0.00137579
0.00151986
0.00168869
0.00106295
0.00690347
0.0126762
0.00818569
0.00586233
0.00433844
0.00328427
0.00252911
0.00195548
0.001513
0.00116906
0.000894276
0.000666848
0.000489645
0.000388896
0.000333639
0.000260128
0.000158136
0.000107585
8.38327e-05
7.39771e-05
7.54348e-05
8.32103e-05
9.67608e-05
0.000116024
0.000141573
0.000174897
0.000218607
0.000276309
0.000353394
0.000455658
0.000586741
0.000745792
0.000925243
0.00111075
0.0012633
0.0013425
0.00114893
0.000713711
0.00514221
0.0100712
0.00673218
0.0049448
0.00373803
0.00286537
0.00218927
0.0016766
0.00128221
0.000979945
0.000741167
0.000541698
0.000404413
0.000408289
0.000436282
0.000377154
0.000285557
0.000230946
0.00019454
0.000170149
0.000158403
0.000160077
0.000172806
0.000194929
0.000224692
0.000259402
0.000295946
0.000334521
0.00038041
0.00044305
0.000531933
0.000652633
0.000793132
0.000927717
0.000994927
0.000979016
0.00103261
0.000757764
0.0025545
0.00328214
0.00399387
0.00487068
0.00408697
0.00348624
0.00263154
0.0020102
0.00149468
0.00107942
0.000809496
0.000605923
0.000438014
0.000290526
0.000161687
0.000149287
0.000169077
0.000169195
0.000154663
0.000144483
0.000140772
0.000142016
0.000146301
0.000153244
0.000162722
0.000174231
0.000187129
0.000201143
0.000217356
0.000238998
0.000271832
0.000323102
0.000399361
0.000522346
0.000652381
0.000748389
0.00075952
0.000645038
0.00054486
0.000415758
)
;

boundaryField
{
    floor
    {
        Cmu             0.09;
        kappa           0.41;
        E               9.8;
        type            epsilonWallFunction;
        value           nonuniform List<scalar> 
29
(
0.000265329
6.0181e-05
4.52122e-05
3.40403e-05
2.63837e-05
2.1809e-05
1.84452e-05
1.52381e-05
1.22057e-05
9.33652e-06
6.75215e-06
4.83053e-06
3.82327e-06
3.63046e-06
3.52833e-06
3.21186e-06
2.81536e-06
2.82111e-06
8.81674e-06
5.10278e-06
5.10278e-06
2.1036e-05
4.99301e-05
6.64994e-05
0.000265329
6.0181e-05
0.000120328
0.000195573
0.000340267
)
;
    }
    ceiling
    {
        Cmu             0.09;
        kappa           0.41;
        E               9.8;
        type            epsilonWallFunction;
        value           nonuniform List<scalar> 
43
(
0.0025545
0.00328214
0.00399387
0.00487068
0.00408697
0.00348624
0.00263154
0.0020102
0.00149468
0.00107942
0.000809496
0.000605923
0.000438014
0.000290526
0.000161687
0.000149287
0.000169077
0.000169195
0.000154663
0.000144483
0.000140772
0.000142016
0.000146301
0.000153244
0.000162722
0.000174231
0.000187129
0.000201143
0.000217356
0.000238998
0.000271832
0.000323102
0.000399361
0.000522346
0.000652381
0.000748389
0.00075952
0.000645038
0.00054486
0.000415758
0.00917409
0.0160325
0.00514221
)
;
    }
    sWall
    {
        Cmu             0.09;
        kappa           0.41;
        E               9.8;
        type            epsilonWallFunction;
        value           uniform 0.0025545;
    }
    nWall
    {
        Cmu             0.09;
        kappa           0.41;
        E               9.8;
        type            epsilonWallFunction;
        value           nonuniform List<scalar> 6(0.000247291 0.000330743 0.000701536 0.000713711 0.000757764 0.000415758);
    }
    sideWalls
    {
        type            empty;
    }
    glass1
    {
        Cmu             0.09;
        kappa           0.41;
        E               9.8;
        type            epsilonWallFunction;
        value           nonuniform List<scalar> 9(0.000153318 0.000511731 0.00112443 0.00213434 0.00368036 0.00593843 0.00891772 0.00976898 0.00917409);
    }
    glass2
    {
        Cmu             0.09;
        kappa           0.41;
        E               9.8;
        type            epsilonWallFunction;
        value           nonuniform List<scalar> 2(0.00133515 0.00106295);
    }
    sun
    {
        Cmu             0.09;
        kappa           0.41;
        E               9.8;
        type            epsilonWallFunction;
        value           nonuniform List<scalar> 
14
(
0.000153318
0.000178762
0.000173412
0.000191975
0.000209018
0.000224328
0.000238259
0.000251326
0.000264216
0.000276378
0.00028413
0.00028593
0.000281705
0.000274108
)
;
    }
    heatsource1
    {
        Cmu             0.09;
        kappa           0.41;
        E               9.8;
        type            epsilonWallFunction;
        value           nonuniform List<scalar> 3(0.000124737 0.000155202 0.000247291);
    }
    heatsource2
    {
        Cmu             0.09;
        kappa           0.41;
        E               9.8;
        type            epsilonWallFunction;
        value           nonuniform List<scalar> 4(0.000282288 0.000213525 0.000213525 0.000364643);
    }
    Table_master
    {
        Cmu             0.09;
        kappa           0.41;
        E               9.8;
        type            epsilonWallFunction;
        value           nonuniform List<scalar> 9(5.19977e-05 3.67961e-05 2.84383e-05 2.33244e-05 1.99048e-05 1.73955e-05 1.53695e-05 1.36115e-05 1.20629e-05);
    }
    Table_slave
    {
        Cmu             0.09;
        kappa           0.41;
        E               9.8;
        type            epsilonWallFunction;
        value           nonuniform List<scalar> 9(8.11069e-05 6.69766e-05 6.26432e-05 6.36982e-05 6.68361e-05 6.8028e-05 6.32185e-05 5.64884e-05 4.78139e-05);
    }
    inlet
    {
        type            turbulentMixingLengthDissipationRateInlet;
        mixingLength    0.01;
        phi             phi;
        k               k;
        value           uniform 0.000101881;
    }
    outlet
    {
        type            zeroGradient;
    }
}


// ************************************************************************* //
