/*--------------------------------*- C++ -*----------------------------------*\
  =========                 |
  \\      /  F ield         | OpenFOAM: The Open Source CFD Toolbox
   \\    /   O peration     | Website:  https://openfoam.org
    \\  /    A nd           | Version:  6
     \\/     M anipulation  |
\*---------------------------------------------------------------------------*/
FoamFile
{
    version     2.0;
    format      ascii;
    class       surfaceScalarField;
    location    "90";
    object      phi;
}
// * * * * * * * * * * * * * * * * * * * * * * * * * * * * * * * * * * * * * //

dimensions      [1 0 -1 0 0 0 0];

internalField   nonuniform List<scalar> 
852
(
0.00283118
-0.00284589
0.00392735
-0.00109617
0.00517603
-0.00124868
0.00601271
-0.000836685
0.00639808
-0.00038537
0.00651308
-0.000115011
0.0064708
4.22734e-05
0.0063164
0.000154396
0.0060696
0.000246792
0.00573571
0.000333888
0.00530039
0.000435303
0.00472121
0.000579169
0.00390331
0.000817887
0.00259264
0.00131065
0.00258789
-0.000378864
0.000371582
-0.000780921
0.000401789
-0.000316255
-0.000464913
0.000501099
-0.000817603
0.0012042
-0.000703355
0.00171133
-0.00050739
0.00201593
-0.000304864
0.00218002
-0.000164352
0.00228493
-0.000105167
0.00235907
-7.43979e-05
0.00240825
-4.9433e-05
0.00243332
-2.53043e-05
0.00242845
4.64204e-06
0.00237492
5.33169e-05
0.00222703
0.000147693
0.00190418
0.000322651
0.00133671
0.000567294
0.000407018
0.000929513
0.000397495
0.00144283
-0.00433096
0.00294991
-0.00260325
0.00411949
-0.00241827
0.00470188
-0.00141909
0.00496377
-0.000647287
0.00504012
-0.000191389
0.0049901
9.22558e-05
0.00485254
0.000291923
0.00465433
0.00044496
0.00440636
0.000581814
0.00410771
0.000733912
0.00375248
0.000934346
0.00335005
0.00122028
0.00304467
0.00161599
0.00350653
0.002126
0.00168485
0.00182158
0.00168473
-0.000116747
0.000470873
0.000364268
-7.94489e-05
0.0010048
-0.00110566
0.00148732
-0.00130034
0.00187694
-0.00109321
0.00214361
-0.000774307
0.00220484
-0.000366356
0.00222529
-0.000185068
0.00224591
-0.000126058
0.00226377
-9.25235e-05
0.00227739
-6.33147e-05
0.002287
-3.51605e-05
0.00228964
1.75831e-06
0.00227672
6.60204e-05
0.00219974
0.000224463
0.00189268
0.000629525
0.00140308
0.00105671
0.000793634
0.00153878
0.00116517
0.000709339
-0.00510991
0.00202555
-0.00391947
0.00288616
-0.00327889
0.00317362
-0.0017066
0.00327066
-0.000744375
0.00326749
-0.000188284
0.00320203
0.000157638
0.0031143
0.000379567
0.0030214
0.000537767
0.0029244
0.000678733
0.00282172
0.000836499
0.00271826
0.00103772
0.00263432
0.00130415
0.00259882
0.00165142
0.00257526
0.00214949
0.00189127
0.0025055
0.00357592
0.000344836
9.89117e-05
0.00170156
-0.00143636
0.00222399
-0.00162826
0.00245236
-0.0015289
0.00260014
-0.00124121
0.00271721
-0.000891617
0.00235075
0.00216556
0.00203937
0.00194671
0.00188327
0.00184799
0.00184965
0.0019156
0.00214001
0.00176206
0.00100727
0.0014121
0.00140648
0.000980571
0.00197012
0.00210474
0.000174214
-0.00538161
0.00093321
-0.00467848
0.00142563
-0.00377133
0.00151213
-0.00179316
0.0014897
-0.000722028
0.00144037
-0.00013906
0.00142423
0.000173656
0.00145225
0.000351417
0.00150634
0.000483536
0.00157301
0.000611935
0.00164977
0.000759607
0.00174366
0.00094371
0.0018683
0.0011794
0.00203863
0.00148098
0.00231387
0.00187416
0.00272391
0.00209538
0.00413549
0.00216425
0.00335757
0.000746719
0.00389737
-0.000440994
0.0035539
-0.00109301
0.00334399
-0.0014185
0.00317851
-0.0013636
0.00304941
-0.00111233
0.00290607
-0.000748524
0.00317657
-0.000270916
0.00323502
-5.88935e-05
0.00318302
5.15477e-05
0.00305066
0.000131887
0.00284882
0.000201361
0.00258083
0.000267506
0.00224078
0.000339573
0.00180753
0.000432779
0.00122299
0.000584106
0.00122977
0.00100024
0.00119258
0.00144345
0.00119221
0.00197029
0.00324334
-0.000386407
-0.00511978
-0.000355461
-0.00470944
9.71187e-06
-0.00413654
0.000117175
-0.00190069
7.01474e-05
-0.0006751
6.58226e-05
-0.000134865
0.000135989
0.000103337
0.000252173
0.000235074
0.00039497
0.000340577
0.000556895
0.000449849
0.000739675
0.000576672
0.000953275
0.000729961
0.0012172
0.000915332
0.00156681
0.00113124
0.00207954
0.00136132
0.00273026
0.00144454
0.00355066
0.00134375
0.00386988
0.000427388
0.00384447
-0.000415711
0.00363737
-0.000886057
0.00331779
-0.00109909
0.00300873
-0.00105474
0.00273939
-0.000843232
0.00252901
-0.000538415
0.00245637
-0.000198588
0.00234277
5.43895e-05
0.00218
0.000213983
0.00199093
0.000320609
0.00178389
0.000408049
0.001559
0.00049204
0.00131518
0.000583053
0.00105701
0.000690625
0.000827886
0.000812928
0.000804862
0.00102298
0.00103745
0.0012106
0.00178558
0.00122194
0.00306808
0.00196063
0.00146066
0.00160699
7.44257e-05
0.00138574
5.70701e-06
-0.0010261
-0.00424417
-0.00131162
-0.00442393
-0.0010381
-0.00441009
-0.000868813
-0.00207004
-0.000807163
-0.000736852
-0.000727783
-0.000214383
-0.000614451
-1.01605e-05
-0.000473131
9.35868e-05
-0.000307058
0.000174335
-0.00011476
0.000257387
0.000108876
0.000352877
0.000371712
0.000466969
0.000689402
0.000597492
0.00108769
0.00073281
0.00159882
0.000850055
0.00218492
0.000858312
0.00283894
0.000689621
0.00312228
0.00014392
0.00306407
-0.000357646
0.00284596
-0.000668114
0.00252818
-0.000781512
0.00219213
-0.000718933
0.00188245
-0.000533848
0.00162542
-0.000281698
0.00143029
-3.8087e-06
0.00126411
0.000220206
0.00111125
0.000366465
0.000961722
0.000469757
0.000812872
0.000556515
0.000665583
0.00063895
0.000525286
0.000722984
0.000406572
0.000808994
0.000336447
0.000882733
0.000404479
0.000954636
0.000632469
0.00098232
0.000940115
0.000914052
0.00119029
0.00171022
0.000660595
0.00213644
-0.000279531
0.00232562
-0.000340732
-0.00158296
-0.0028347
-0.00212533
-0.00388158
-0.00182812
-0.00470733
-0.00153512
-0.00236309
-0.00134832
-0.000923734
-0.00119695
-0.000365877
-0.00105146
-0.000155788
-0.000897362
-6.06793e-05
-0.000730579
7.38773e-06
-0.00054625
7.29005e-05
-0.000335019
0.000141493
-8.32962e-05
0.000215097
0.000218499
0.000295556
0.000575905
0.000375267
0.000994673
0.000431157
0.00144187
0.000410985
0.00185419
0.000277169
0.0020017
-3.73489e-06
0.00191457
-0.000270698
0.00168485
-0.000438605
0.00137973
-0.000476641
0.00105494
-0.000394447
0.000751553
-0.000230798
0.000492041
-2.2556e-05
0.000304156
0.000183685
0.000181983
0.000341969
8.94468e-05
0.000458582
9.14902e-06
0.000549634
-6.25354e-05
0.000627781
-0.000122252
0.000698257
-0.000161875
0.000762211
-0.000168489
0.000815233
-0.000128286
0.000842178
-7.95892e-06
0.000833986
0.000169362
0.000804691
0.000314141
0.00076901
0.000482688
0.00154141
0.000276303
0.00234255
-0.000264444
0.00286607
-0.00066472
-0.00185869
-0.0011681
-0.00285708
-0.0028832
-0.00250719
-0.00505725
-0.00191405
-0.00295627
-0.0016533
-0.00118454
-0.00150049
-0.00051877
-0.00136701
-0.000289374
-0.00123346
-0.000194344
-0.00109198
-0.000134225
-0.000936888
-8.23439e-05
-0.000763884
-3.16616e-05
-0.00056882
1.98928e-05
-0.00034514
7.17399e-05
-8.834e-05
0.000118331
0.000192159
0.000150522
0.000458263
0.000144739
0.000650705
8.45681e-05
0.000683163
-3.63816e-05
0.000567558
-0.000155318
0.000344952
-0.000216267
6.70497e-05
-0.000199049
-0.000217039
-0.000110714
-0.000467446
1.92209e-05
-0.000649233
0.000158814
-0.000750574
0.000284583
-0.000800919
0.000391859
-0.000823732
0.000480936
-0.00082986
0.000555303
-0.000820336
0.000617806
-0.000790999
0.000668481
-0.000733944
0.000704736
-0.000639305
0.000720195
-0.000500852
0.000703354
-0.000319235
0.000652032
-0.00011417
0.000599324
9.01961e-05
0.000564395
0.000520354
0.00111098
0.000893782
0.00196884
0.00186292
0.0018966
0.000848859
-0.0014283
-0.00436016
-0.00236827
-0.00704916
-0.00161705
-0.00370753
-0.00173376
-0.00106786
-0.001753
-0.000499578
-0.00169693
-0.000345509
-0.00162092
-0.000270424
-0.00153884
-0.000216395
-0.00145056
-0.000170725
-0.00135227
-0.000130075
-0.00124006
-9.24559e-05
-0.00111383
-5.46405e-05
-0.000981502
-1.41501e-05
-0.000854197
2.30534e-05
-0.000749473
3.98355e-05
-0.000697213
3.21017e-05
-0.000733243
-5.91807e-07
-0.000858547
-3.02942e-05
-0.00104661
-2.85262e-05
-0.00125831
1.22904e-05
-0.00144943
8.00003e-05
-0.00158638
0.000155734
-0.00166064
0.000232609
-0.00168443
0.000307889
-0.00167109
0.000378032
-0.00163119
0.000440545
-0.00156979
0.000493411
-0.00148684
0.00053439
-0.00137904
0.000560221
-0.00124098
0.000566236
-0.00106725
0.000546069
-0.000857776
0.000493512
-0.000619616
0.000413555
-0.000354674
0.000334117
-6.7636e-05
0.000277142
0.000509127
0.000533987
0.00120431
0.00127335
0.0019519
0.00114863
0.00242966
0.00148929
-0.00227035
-0.00130351
-0.000914769
-0.00194693
-0.000424472
-0.00206762
-0.000378905
-0.00208613
-0.000327032
-0.00208193
-0.000274678
-0.00207345
-0.000224935
-0.00206376
-0.000180501
-0.00205184
-0.000142096
-0.0020363
-0.000108125
-0.00201625
-7.48377e-05
-0.00199521
-3.53637e-05
-0.00198103
8.67695e-06
-0.00198313
4.17181e-05
-0.00201336
6.20831e-05
-0.00208327
6.9027e-05
-0.00218664
7.27574e-05
-0.0023034
8.7867e-05
-0.00240726
0.000115753
-0.00247747
0.000149766
-0.00251026
0.00018807
-0.00250659
0.000228457
-0.00246959
0.000270393
-0.00240362
0.000311556
-0.0023125
0.000348927
-0.00219887
0.000379289
-0.00206432
0.000399353
-0.00190998
0.000405426
-0.00173734
0.000393154
-0.00154954
0.000357854
-0.00135289
0.000296497
-0.00115258
0.000212906
-0.000947449
0.000128684
-0.000787586
0.000116997
-0.000649743
0.000395841
-0.0004266
0.00104982
-0.000103247
0.000824818
0.00226173
-0.00236817
3.48005e-05
-0.00244674
-0.000836187
-0.00230036
-0.000570844
-0.00231112
-0.000368148
-0.00237463
-0.000263542
-0.00245524
-0.000194107
-0.00253819
-0.000142046
-0.00261727
-0.000101506
-0.0026908
-6.86753e-05
-0.0027586
-4.04594e-05
-0.00281903
-1.45698e-05
-0.00286564
1.10547e-05
-0.00289522
3.80419e-05
-0.00292033
6.65738e-05
-0.00294805
8.95175e-05
-0.00298455
0.000105207
-0.00302862
0.000116474
-0.00306921
0.000128072
-0.00309507
0.000141198
-0.00310074
0.000154995
-0.00308284
0.00016971
-0.00304036
0.000185503
-0.00297283
0.000202376
-0.00288089
0.000219127
-0.00276643
0.000233968
-0.00263269
0.000245053
-0.00248458
0.000250759
-0.00232936
0.000249738
-0.0021777
0.000241032
-0.00204461
0.000224315
-0.00194829
0.000199745
-0.00190268
0.000166868
-0.00190195
0.000127541
-0.00189932
0.000113935
-0.00174415
0.000240215
-0.00123749
0.000542663
-0.0010064
0.000593155
0.00117293
-0.00196991
-7.31643e-05
-0.000145397
-0.00107676
-0.00174036
-0.00220006
-0.00255436
-0.00283874
-0.00307077
-0.00326211
-0.00342058
-0.00355087
-0.00365537
-0.00373431
-0.00378626
-0.00380973
-0.00381043
-0.00379577
-0.00377031
-0.00373379
-0.00368471
-0.00362234
-0.00354567
-0.00345353
-0.00334473
-0.00321928
-0.00307898
-0.00292747
-0.00277003
-0.00261329
-0.0024649
-0.00233294
-0.00222548
-0.00215121
-0.00211677
-0.00209558
-0.00194535
-0.00148801
-0.000977451
)
;

boundaryField
{
    floor
    {
        type            calculated;
        value           nonuniform List<scalar> 
29
(
0
0
0
0
0
0
0
0
0
0
0
0
0
0
0
0
0
0
0
0
9.32626e-06
2.57732e-05
4.08004e-05
5.34088e-05
4.71931e-06
6.98452e-06
1.71431e-05
2.68387e-05
3.11016e-05
)
;
    }
    ceiling
    {
        type            calculated;
        value           nonuniform List<scalar> 
43
(
0.000176174
0.000189994
0.000106907
9.52021e-05
9.27872e-05
9.1572e-05
9.07501e-05
9.02339e-05
8.99229e-05
8.9746e-05
8.96695e-05
8.96784e-05
8.97442e-05
8.97779e-05
8.97507e-05
8.97688e-05
8.99086e-05
9.02095e-05
9.06532e-05
9.1175e-05
9.17056e-05
9.21902e-05
9.25924e-05
9.28966e-05
9.30969e-05
9.31919e-05
9.31788e-05
9.3054e-05
9.28198e-05
9.24955e-05
9.21333e-05
9.18354e-05
9.17606e-05
9.20554e-05
9.25434e-05
9.21515e-05
8.9382e-05
8.46797e-05
8.19084e-05
8.86179e-05
5.20713e-05
4.86534e-05
6.30133e-05
)
;
    }
    sWall
    {
        type            calculated;
        value           uniform 0.000184434;
    }
    nWall
    {
        type            calculated;
        value           nonuniform List<scalar> 6(6.78508e-05 6.6203e-05 5.88959e-05 6.41104e-05 8.17709e-05 0.000106151);
    }
    sideWalls
    {
        type            empty;
        value           nonuniform 0();
    }
    glass1
    {
        type            calculated;
        value           nonuniform List<scalar> 9(1.4717e-05 4.22505e-05 6.9613e-05 9.74884e-05 0.000124573 0.000150487 0.000173499 0.000192088 0.000208136);
    }
    glass2
    {
        type            calculated;
        value           nonuniform List<scalar> 2(0.000348836 0.000370582);
    }
    sun
    {
        type            calculated;
        value           uniform 0;
    }
    heatsource1
    {
        type            calculated;
        value           nonuniform List<scalar> 3(2.01115e-07 2.01592e-07 2.00804e-07);
    }
    heatsource2
    {
        type            calculated;
        value           nonuniform List<scalar> 4(5.0649e-08 5.08602e-08 0 0);
    }
    Table_master
    {
        type            calculated;
        value           nonuniform List<scalar> 9(-1.51283e-07 -1.51447e-07 -1.51487e-07 -1.51501e-07 -1.51501e-07 -1.51491e-07 -1.51471e-07 -1.51424e-07 -1.5133e-07);
    }
    Table_slave
    {
        type            calculated;
        value           nonuniform List<scalar> 9(1.50826e-07 1.50833e-07 1.50787e-07 1.50759e-07 1.50759e-07 1.50783e-07 1.5083e-07 1.50903e-07 1.51015e-07);
    }
    inlet
    {
        type            calculated;
        value           uniform -0.00626811;
    }
    outlet
    {
        type            calculated;
        value           nonuniform List<scalar> 2(0.00160922 -0.00208697);
    }
}


// ************************************************************************* //
