/*--------------------------------*- C++ -*----------------------------------*\
  =========                 |
  \\      /  F ield         | OpenFOAM: The Open Source CFD Toolbox
   \\    /   O peration     | Website:  https://openfoam.org
    \\  /    A nd           | Version:  6
     \\/     M anipulation  |
\*---------------------------------------------------------------------------*/
FoamFile
{
    version     2.0;
    format      ascii;
    class       volScalarField;
    location    "100";
    object      alphat;
}
// * * * * * * * * * * * * * * * * * * * * * * * * * * * * * * * * * * * * * //

dimensions      [1 -1 -1 0 0 0 0];

internalField   nonuniform List<scalar> 
459
(
0.00081196
0.000848894
0.000839856
0.000866923
0.000889564
0.000908243
0.000923888
0.000937418
0.000949748
0.000961943
0.00097116
0.000976673
0.000978674
0.000979256
0.000979688
0.00068678
0.000678277
0.000670496
0.000662867
0.000652769
0.000636854
0.00061244
0.000586758
0.00056231
0.000539047
0.000517015
0.000496192
0.000476447
0.000457495
0.00043882
0.000419627
0.000398314
0.000375834
0.000335601
0.00121724
0.00192377
0.00160484
0.00182879
0.00194271
0.00206739
0.0021932
0.00230827
0.00239607
0.00243548
0.00244238
0.0023899
0.00224448
0.00196081
0.00149978
0.00102014
0.00096977
0.000846896
0.00179644
0.00241353
0.0027041
0.00278393
0.00263509
0.00209996
0.00183426
0.00163318
0.00147308
0.0013396
0.00122424
0.00111973
0.00101786
0.000911646
0.000813262
0.000729756
0.000771894
0.000397189
0.00158667
0.00281778
0.00176739
0.00253198
0.00269519
0.00281557
0.00290878
0.00297902
0.00303008
0.00305781
0.00306645
0.00303483
0.00293515
0.00273089
0.00237689
0.00185086
0.00113384
0.00100914
0.00299089
0.00354233
0.00370138
0.00366794
0.00308811
0.000770055
0.000676478
0.000606948
0.000553843
0.000512019
0.000478194
0.000450525
0.000428407
0.000412906
0.000481313
0.00058278
0.000863459
0.000439762
0.00196828
0.00417558
0.0016954
0.00285263
0.00309755
0.00318078
0.00321766
0.00323164
0.00323958
0.00324749
0.00325649
0.00325627
0.00323425
0.00317105
0.00301705
0.00266141
0.0019641
0.00117753
0.00328383
0.00367954
0.00384071
0.00390057
0.00385098
0.00324942
0.000761578
0.000705814
0.000681695
0.000669786
0.000660022
0.000645604
0.000623318
0.000598904
0.000567534
0.000554742
0.000589113
0.000958138
0.000479458
0.00235965
0.00600758
0.00192967
0.00277827
0.003269
0.00334287
0.00334329
0.0033165
0.00329091
0.00328401
0.00328709
0.00330206
0.00332031
0.0033405
0.00336667
0.00341198
0.00348108
0.00348342
0.00358469
0.00363764
0.00370216
0.00377239
0.003827
0.00374607
0.00325123
0.00320389
0.00323257
0.00324905
0.0032192
0.00312348
0.00291872
0.0025455
0.00206714
0.00154808
0.0011465
0.00107576
0.000670893
0.000608006
0.000757873
0.000855803
0.00275782
0.00799003
0.00300015
0.00238975
0.00320581
0.00339222
0.00342468
0.00339356
0.00332925
0.00327606
0.00326372
0.0032824
0.00330503
0.00332449
0.00334003
0.00335938
0.00338405
0.0033947
0.00341966
0.00351028
0.00357971
0.00363467
0.00372778
0.00383431
0.00389857
0.00399977
0.00407982
0.00410693
0.00406775
0.00396627
0.00380751
0.00352053
0.00307882
0.00249767
0.00192164
0.00145761
0.00103814
0.000840746
0.00118077
0.000889107
0.00317617
0.00962212
0.00547769
0.00259382
0.0024106
0.00285412
0.00321254
0.00343006
0.00353304
0.00325717
0.00323961
0.00325472
0.00327219
0.00328376
0.00328265
0.00326761
0.0032432
0.00324223
0.00332676
0.00348514
0.00356411
0.00359579
0.00366733
0.00378149
0.00391192
0.0040344
0.00411344
0.0041272
0.00407037
0.0039682
0.00385387
0.00374263
0.00348175
0.0030366
0.00252426
0.00202926
0.00161626
0.00146704
0.00146442
0.00103657
0.0033072
0.0101771
0.00759777
0.00512848
0.00345904
0.00278964
0.00280625
0.00309053
0.00327532
0.00324426
0.003218
0.0032115
0.00321457
0.00321457
0.00320029
0.00316887
0.00313657
0.00315603
0.00329538
0.00352431
0.00361738
0.00362705
0.00366026
0.00372605
0.00380279
0.00386297
0.00387998
0.00383961
0.00375062
0.00364927
0.00358444
0.00358858
0.00362583
0.00337473
0.00307364
0.00289978
0.00295541
0.00325581
0.0038718
0.00157958
0.00326109
0.00402699
0.00442978
0.00439933
0.00402057
0.00358062
0.00327179
0.00313063
0.00308146
0.00306951
0.00308079
0.00309927
0.00311109
0.003106
0.00307916
0.00303791
0.00301476
0.0030753
0.00328204
0.00358459
0.00370107
0.0037004
0.00369933
0.00370613
0.00370543
0.00367997
0.00361351
0.00349283
0.00331785
0.00311636
0.00293161
0.00278384
0.00266808
0.00258598
0.00253475
0.00251847
0.00248332
0.00237529
0.00221669
0.0015149
0.00223629
0.00330112
0.0036365
0.00359355
0.00345932
0.00333986
0.00325191
0.00318275
0.00312936
0.00308276
0.00303433
0.00297833
0.00291572
0.00286259
0.00286516
0.00299864
0.00330763
0.00370456
0.003857
0.00387815
0.00387027
0.00384269
0.00378553
0.00368924
0.00354999
0.00337047
0.00315879
0.00293257
0.00273049
0.00260145
0.00254199
0.00252177
0.00252039
0.00250964
0.00244624
0.00231106
0.00210534
0.0013299
0.00239227
0.00363441
0.00386331
0.00380037
0.00366104
0.00351752
0.00339498
0.00327492
0.00313651
0.0029986
0.00287139
0.00276176
0.00267969
0.00265271
0.00274919
0.00305313
0.00355341
0.00409694
0.00433845
0.00442731
0.00445389
0.00445195
0.00442382
0.00435602
0.00423146
0.00404004
0.00378671
0.00349343
0.00319597
0.00295468
0.00279731
0.00271532
0.00268152
0.00265705
0.00258578
0.00257856
0.00281014
0.00138055
0.00211205
0.00221471
0.00230614
0.00245637
0.00231172
0.00214434
0.00200491
0.00187747
0.0017577
0.00164752
0.0015495
0.00145686
0.00136555
0.00127295
0.00117791
0.00108264
0.000999507
0.000963306
0.0010274
0.00108979
0.00110316
0.00110344
0.00109974
0.00109361
0.00108379
0.00106891
0.00104919
0.00102744
0.00100922
0.00100185
0.00101157
0.0010348
0.00106949
0.00111496
0.00116871
0.0012299
0.00125097
0.00121571
0.00115777
0.00110136
)
;

boundaryField
{
    floor
    {
        type            compressible::alphatWallFunction;
        Prt             0.85;
        value           nonuniform List<scalar> 
29
(
0.000139492
9.73078e-05
9.60553e-05
9.49076e-05
9.37807e-05
9.22863e-05
8.99245e-05
8.62869e-05
8.24408e-05
7.87602e-05
7.52394e-05
7.18876e-05
6.87031e-05
6.56679e-05
6.27397e-05
5.98391e-05
5.68417e-05
5.34921e-05
4.9934e-05
4.34958e-05
4.34952e-05
5.33125e-05
5.99825e-05
6.61286e-05
0.000139491
9.73067e-05
0.000120583
0.00014364
0.000167114
)
;
    }
    ceiling
    {
        type            compressible::alphatWallFunction;
        Prt             0.85;
        value           nonuniform List<scalar> 
43
(
0.000291777
0.000305037
0.000316793
0.000336044
0.000317571
0.000296024
0.000277933
0.000261276
0.000245507
0.000230897
0.000217808
0.000205352
0.000192988
0.000180353
0.000167276
0.000154045
0.000142388
0.000137275
0.000146308
0.000155041
0.000156908
0.00015695
0.000156435
0.000155582
0.000154214
0.000152138
0.000149379
0.00014633
0.000143771
0.000142734
0.000144103
0.000147367
0.000152225
0.000158564
0.000166022
0.000174461
0.000177357
0.000172511
0.000164508
0.000156674
0.000437183
0.000530869
0.000327792
)
;
    }
    sWall
    {
        type            compressible::alphatWallFunction;
        Prt             0.85;
        value           uniform 0.000290665;
    }
    nWall
    {
        type            compressible::alphatWallFunction;
        Prt             0.85;
        value           nonuniform List<scalar> 6(0.000121684 0.000126447 0.000147311 0.000187838 0.000194725 0.000156367);
    }
    sideWalls
    {
        type            empty;
    }
    glass1
    {
        type            compressible::alphatWallFunction;
        Prt             0.85;
        value           nonuniform List<scalar> 9(0.000112542 0.000168723 0.000218203 0.000268084 0.000318241 0.000368425 0.000420372 0.000436607 0.000431116);
    }
    glass2
    {
        type            compressible::alphatWallFunction;
        Prt             0.85;
        value           nonuniform List<scalar> 2(0.000220449 0.000211857);
    }
    sun
    {
        type            compressible::alphatWallFunction;
        Prt             0.85;
        value           nonuniform List<scalar> 
14
(
0.000115576
0.000120878
0.000119578
0.000123462
0.0001267
0.000129364
0.00013159
0.000133512
0.00013526
0.000136987
0.00013829
0.000139068
0.000139351
0.000139432
)
;
    }
    heatsource1
    {
        type            compressible::alphatWallFunction;
        Prt             0.85;
        value           nonuniform List<scalar> 3(8.5686e-05 0.000107784 0.000121934);
    }
    heatsource2
    {
        type            compressible::alphatWallFunction;
        Prt             0.85;
        value           nonuniform List<scalar> 4(0.000145254 0.000138155 0.000138153 0.00016113);
    }
    Table_master
    {
        type            compressible::alphatWallFunction;
        Prt             0.85;
        value           nonuniform List<scalar> 9(0.000109559 9.58598e-05 8.55315e-05 7.75447e-05 7.11874e-05 6.59982e-05 6.17187e-05 5.82739e-05 5.58461e-05);
    }
    Table_slave
    {
        type            compressible::alphatWallFunction;
        Prt             0.85;
        value           nonuniform List<scalar> 9(0.000108329 0.000100179 9.66296e-05 9.48719e-05 9.34288e-05 9.12932e-05 8.79795e-05 8.43325e-05 7.9619e-05);
    }
    inlet
    {
        type            fixedValue;
        value           uniform 1.94e-05;
    }
    outlet
    {
        type            zeroGradient;
    }
}


// ************************************************************************* //
