// -*- C++ -*-
// File generated by PyFoam - sorry for the ugliness

FoamFile
{
 version 2.0;
 format ascii;
 class volScalarField;
 location "100";
 object T;
}

dimensions [ 0 0 0 1 0 0 0 ];

internalField nonuniform List<scalar> 459
(
  304.365
  304.102
  304.097
  304.1
  304.102
  304.104
  304.105
  304.106
  304.107
  304.107
  304.106
  304.103
  304.098
  304.091
  304.083
  303.983
  303.974
  303.97
  303.966
  303.964
  303.963
  303.962
  303.961
  303.961
  303.961
  303.961
  303.961
  303.962
  303.963
  303.964
  303.965
  303.967
  303.969
  303.979
  304.561
  304.134
  304.12
  304.129
  304.136
  304.143
  304.149
  304.153
  304.156
  304.157
  304.154
  304.145
  304.131
  304.11
  304.084
  304.063
  304.043
  303.987
  303.976
  303.971
  303.968
  303.966
  303.963
  303.959
  303.954
  303.951
  303.948
  303.946
  303.945
  303.944
  303.944
  303.944
  303.946
  303.949
  303.954
  303.97
  304.756
  304.174
  304.146
  304.162
  304.178
  304.194
  304.207
  304.218
  304.225
  304.228
  304.224
  304.21
  304.186
  304.154
  304.116
  304.081
  304.052
  303.996
  303.986
  303.983
  303.982
  303.981
  303.978
  303.968
  303.959
  303.952
  303.947
  303.943
  303.94
  303.938
  303.937
  303.937
  303.939
  303.941
  303.946
  303.965
  304.942
  304.224
  304.17
  304.191
  304.217
  304.242
  304.265
  304.284
  304.298
  304.305
  304.301
  304.283
  304.251
  304.206
  304.155
  304.102
  304.055
  304.026
  304.006
  303.999
  303.999
  304
  304.001
  304
  304
  303.999
  304
  304
  304
  304
  303.998
  303.996
  303.993
  303.972
  303.956
  303.95
  303.963
  305.116
  304.287
  304.193
  304.213
  304.245
  304.278
  304.31
  304.34
  304.363
  304.375
  304.374
  304.355
  304.317
  304.264
  304.203
  304.14
  304.084
  304.042
  304.016
  304.008
  304.013
  304.019
  304.022
  304.024
  304.027
  304.028
  304.03
  304.031
  304.031
  304.03
  304.026
  304.02
  304.011
  303.994
  303.973
  303.958
  303.961
  304.001
  304.046
  304.053
  305.269
  304.365
  304.225
  304.226
  304.259
  304.296
  304.332
  304.368
  304.401
  304.424
  304.43
  304.412
  304.37
  304.312
  304.245
  304.175
  304.109
  304.056
  304.022
  304.015
  304.025
  304.035
  304.042
  304.047
  304.05
  304.052
  304.054
  304.055
  304.054
  304.052
  304.047
  304.039
  304.027
  304.011
  303.99
  303.97
  303.964
  303.98
  303.993
  304.02
  305.382
  304.494
  304.323
  304.263
  304.273
  304.303
  304.336
  304.37
  304.406
  304.449
  304.463
  304.444
  304.401
  304.34
  304.271
  304.199
  304.127
  304.067
  304.025
  304.018
  304.034
  304.049
  304.059
  304.066
  304.07
  304.072
  304.074
  304.074
  304.073
  304.07
  304.064
  304.054
  304.041
  304.025
  304.005
  303.986
  303.976
  303.979
  303.985
  304.008
  305.578
  304.893
  304.682
  304.502
  304.407
  304.377
  304.381
  304.401
  304.44
  304.476
  304.48
  304.453
  304.402
  304.338
  304.269
  304.2
  304.133
  304.072
  304.026
  304.019
  304.041
  304.06
  304.073
  304.08
  304.085
  304.088
  304.089
  304.088
  304.086
  304.083
  304.077
  304.069
  304.056
  304.042
  304.027
  304.013
  304.008
  304.015
  304.027
  304.125
  305.846
  305.557
  305.337
  305.096
  304.897
  304.758
  304.671
  304.624
  304.598
  304.555
  304.498
  304.434
  304.367
  304.3
  304.235
  304.173
  304.115
  304.06
  304.02
  304.019
  304.046
  304.068
  304.082
  304.09
  304.095
  304.098
  304.099
  304.099
  304.098
  304.095
  304.093
  304.091
  304.092
  304.095
  304.103
  304.119
  304.142
  304.167
  304.185
  304.228
  302.132
  303.425
  304.03
  304.26
  304.345
  304.373
  304.37
  304.355
  304.326
  304.288
  304.246
  304.202
  304.158
  304.115
  304.073
  304.032
  304.004
  304.016
  304.049
  304.072
  304.086
  304.095
  304.101
  304.105
  304.108
  304.11
  304.111
  304.112
  304.113
  304.115
  304.118
  304.123
  304.131
  304.144
  304.161
  304.178
  304.191
  304.205
  302.205
  303.311
  303.737
  303.952
  304.059
  304.107
  304.121
  304.122
  304.117
  304.106
  304.093
  304.076
  304.058
  304.038
  304.016
  303.992
  303.983
  304.014
  304.048
  304.071
  304.085
  304.095
  304.102
  304.107
  304.111
  304.115
  304.118
  304.121
  304.123
  304.126
  304.129
  304.133
  304.139
  304.148
  304.159
  304.171
  304.167
  304.189
  302.781
  302.738
  302.737
  303.388
  303.713
  303.848
  303.908
  303.939
  303.951
  303.956
  303.96
  303.964
  303.966
  303.967
  303.967
  303.965
  303.958
  303.945
  303.96
  304.009
  304.041
  304.06
  304.071
  304.079
  304.085
  304.09
  304.095
  304.099
  304.103
  304.108
  304.112
  304.117
  304.121
  304.126
  304.131
  304.139
  304.146
  304.148
  304.148
  304.184
)
;

boundaryField
{
  floor
  {
    type wallHeatTransfer;
    Tinf uniform 305.2;
    alphaWall uniform 0.24;
    value nonuniform List<scalar> 29
(
  304.225
  304.182
  304.176
  304.174
  304.173
  304.173
  304.175
  304.18
  304.186
  304.192
  304.199
  304.205
  304.212
  304.219
  304.227
  304.235
  304.243
  304.253
  304.265
  304.294
  304.294
  304.256
  304.235
  304.219
  304.225
  304.182
  304.158
  304.145
  304.156
)
;
  }
  ceiling
  {
    type wallHeatTransfer;
    Tinf uniform 303.2;
    alphaWall uniform 0.24;
    value nonuniform List<scalar> 43
(
  302.811
  302.769
  302.767
  303.376
  303.679
  303.803
  303.856
  303.882
  303.89
  303.892
  303.892
  303.892
  303.89
  303.887
  303.882
  303.875
  303.863
  303.849
  303.867
  303.914
  303.943
  303.96
  303.97
  303.976
  303.981
  303.984
  303.987
  303.989
  303.991
  303.995
  303.999
  304.005
  304.012
  304.019
  304.027
  304.038
  304.046
  304.046
  304.041
  304.07
  305.715
  305.459
  302.268
)
;
  }
  sWall
  {
    type wallHeatTransfer;
    Tinf uniform 315.2;
    alphaWall uniform 0.36;
    value uniform 304.05;
  }
  nWall
  {
    type wallHeatTransfer;
    Tinf uniform 307.2;
    alphaWall uniform 0.36;
    value nonuniform List<scalar> 6
(
  304.671
  304.629
  304.558
  304.637
  304.612
  304.682
)
;
  }
  sideWalls
  {
    type empty;
  }
  glass1
  {
    type wallHeatTransfer;
    Tinf uniform 315.2;
    alphaWall uniform 4.3;
    value nonuniform List<scalar> 9
(
  312.564
  311.887
  311.42
  311.036
  310.719
  310.451
  310.201
  310.215
  310.381
)
;
  }
  glass2
  {
    type wallHeatTransfer;
    Tinf uniform 307.2;
    alphaWall uniform 4.3;
    value nonuniform List<scalar> 2
(
  306.08
  306.142
)
;
  }
  sun
  {
    type wallHeatTransfer;
    Tinf uniform 305.2;
    alphaWall uniform 0.24;
    value nonuniform List<scalar> 14
(
  304.486
  304.256
  304.254
  304.252
  304.251
  304.251
  304.25
  304.249
  304.249
  304.248
  304.246
  304.243
  304.238
  304.232
)
;
  }
  heatsource1
  {
    type fixedGradient;
    gradient uniform 0;
  }
  heatsource2
  {
    type fixedGradient;
    gradient uniform 0;
  }
  Table_master
  {
    type zeroGradient;
  }
  Table_slave
  {
    type zeroGradient;
  }
  inlet
  {
    type fixedValue;
    value uniform 290.15;
  }
  outlet
  {
    type zeroGradient;
  }
} 	// ************************************************************************* //

