// -*- C++ -*-
// File generated by PyFoam - sorry for the ugliness

FoamFile
{
 version 2.0;
 format ascii;
 class volVectorField;
 location "500";
 object U;
}

dimensions [ 0 1 -1 0 0 0 0 ];

internalField nonuniform List<vector> 459
(
  (0.0663696 0.078414 0)
  (-0.153897 0.0148948 0)
  (-0.163251 0.0148127 0)
  (-0.191908 0.0120714 0)
  (-0.216763 0.00852381 0)
  (-0.237327 0.00463394 0)
  (-0.25292 0.000382069 0)
  (-0.262785 -0.00436561 0)
  (-0.265919 -0.00978882 0)
  (-0.260922 -0.016168 0)
  (-0.24631 -0.0240497 0)
  (-0.219433 -0.0338308 0)
  (-0.178898 -0.0472865 0)
  (-0.134325 -0.0682337 0)
  (-0.121084 -0.0974995 0)
  (0.0774465 -0.0404823 0)
  (0.0511039 -0.025753 0)
  (0.0654325 -0.0160431 0)
  (0.0798482 -0.0107621 0)
  (0.0871348 -0.00766893 0)
  (0.0902371 -0.00540513 0)
  (0.0913754 -0.00359292 0)
  (0.0909784 -0.00246517 0)
  (0.0898074 -0.00185633 0)
  (0.0884481 -0.00149566 0)
  (0.0870749 -0.00123074 0)
  (0.0856362 -0.000986895 0)
  (0.0839849 -0.00067443 0)
  (0.0818062 -0.00011166 0)
  (0.0783866 0.00109802 0)
  (0.0723318 0.00352113 0)
  (0.0621021 0.00640578 0)
  (0.0504853 0.00928864 0)
  (-0.00585678 0.0251135 0)
  (0.266469 0.166256 0)
  (-0.161863 0.0458082 0)
  (-0.137683 0.0467465 0)
  (-0.170218 0.0419137 0)
  (-0.195457 0.0361623 0)
  (-0.216271 0.0297634 0)
  (-0.232287 0.0224193 0)
  (-0.242915 0.0137282 0)
  (-0.247229 0.00327531 0)
  (-0.243796 -0.00924648 0)
  (-0.232478 -0.0230664 0)
  (-0.212462 -0.0377803 0)
  (-0.185275 -0.0545827 0)
  (-0.157934 -0.07588 0)
  (-0.137994 -0.0941504 0)
  (-0.105123 -0.0751748 0)
  (-0.0585707 -0.065482 0)
  (0.0825672 -0.0637307 0)
  (0.0359993 -0.0327581 0)
  (0.0458837 -0.0155396 0)
  (0.0582523 -0.0084492 0)
  (0.0651623 -0.00504569 0)
  (0.068929 -0.00200896 0)
  (0.0710785 0.00152007 0)
  (0.0714258 0.00338299 0)
  (0.0713565 0.00400547 0)
  (0.0714738 0.00414818 0)
  (0.0717114 0.00418165 0)
  (0.0719269 0.00426386 0)
  (0.0720675 0.00457742 0)
  (0.072064 0.00550735 0)
  (0.0713325 0.00801413 0)
  (0.0672698 0.014842 0)
  (0.0567968 0.021099 0)
  (0.0499499 0.0258049 0)
  (-0.0478465 0.0524631 0)
  (0.445662 0.252092 0)
  (-0.200745 0.0798276 0)
  (-0.105452 0.077902 0)
  (-0.141856 0.0663937 0)
  (-0.164122 0.0555366 0)
  (-0.18294 0.0439083 0)
  (-0.197808 0.0307547 0)
  (-0.208158 0.0155542 0)
  (-0.212933 -0.00196408 0)
  (-0.210399 -0.0215209 0)
  (-0.200631 -0.0426532 0)
  (-0.184054 -0.0639629 0)
  (-0.162996 -0.0847746 0)
  (-0.141227 -0.104021 0)
  (-0.118589 -0.114874 0)
  (-0.0888651 -0.107838 0)
  (-0.0659607 -0.108296 0)
  (0.0604698 -0.0804519 0)
  (0.016719 -0.0438744 0)
  (0.026767 -0.0253152 0)
  (0.0382117 -0.0176444 0)
  (0.0461473 -0.0130164 0)
  (0.0515946 -0.0089036 0)
  (0.0545038 -0.00668625 0)
  (0.0540747 -0.00493228 0)
  (0.0538534 -0.00411183 0)
  (0.0546294 -0.00372167 0)
  (0.0558599 -0.00347336 0)
  (0.0572023 -0.00323454 0)
  (0.0587477 -0.00284556 0)
  (0.0610827 -0.00192486 0)
  (0.0656815 0.00156882 0)
  (0.0649319 0.0201246 0)
  (0.051917 0.0336237 0)
  (0.0548162 0.0428662 0)
  (-0.0858994 0.0800286 0)
  (0.600253 0.322909 0)
  (-0.25321 0.114411 0)
  (-0.067925 0.105286 0)
  (-0.110197 0.0881806 0)
  (-0.126739 0.0746459 0)
  (-0.141861 0.0603387 0)
  (-0.154558 0.0439427 0)
  (-0.164163 0.0245466 0)
  (-0.169259 0.00148162 0)
  (-0.167371 -0.0250551 0)
  (-0.158823 -0.053142 0)
  (-0.145257 -0.080058 0)
  (-0.129232 -0.103892 0)
  (-0.11325 -0.122841 0)
  (-0.0974514 -0.13343 0)
  (-0.0814892 -0.133165 0)
  (-0.0685398 -0.115547 0)
  (-0.0399458 -0.0391078 0)
  (0.0133365 -0.0793698 0)
  (0.00990991 -0.053348 0)
  (0.0165145 -0.0353085 0)
  (0.0250924 -0.0260862 0)
  (0.0326836 -0.0199612 0)
  (0.0394509 -0.013785 0)
  (0.0481472 -0.0110779 0)
  (0.0595916 -0.0100873 0)
  (0.0699331 -0.00909478 0)
  (0.0785238 -0.00786199 0)
  (0.0849219 -0.00616399 0)
  (0.0883145 -0.00391715 0)
  (0.0872605 -0.00104945 0)
  (0.0807634 0.00265432 0)
  (0.0665627 0.00782798 0)
  (0.0533581 0.0300578 0)
  (0.0407668 0.0487993 0)
  (0.0596118 0.0632183 0)
  (-0.126858 0.103415 0)
  (0.728551 0.380096 0)
  (-0.305959 0.147311 0)
  (-0.0278781 0.122406 0)
  (-0.0763673 0.102767 0)
  (-0.0858205 0.088249 0)
  (-0.0957846 0.0724079 0)
  (-0.104778 0.0536986 0)
  (-0.112266 0.0309554 0)
  (-0.116614 0.00316957 0)
  (-0.11394 -0.0293307 0)
  (-0.105635 -0.0630891 0)
  (-0.0946023 -0.0933711 0)
  (-0.0830607 -0.117882 0)
  (-0.0726332 -0.135829 0)
  (-0.0634221 -0.146615 0)
  (-0.0539964 -0.149839 0)
  (-0.0410322 -0.139386 0)
  (-0.0201916 -0.10259 0)
  (0.00108288 -0.0855028 0)
  (0.00397079 -0.05951 0)
  (0.00839758 -0.0426175 0)
  (0.0142351 -0.0332439 0)
  (0.0205533 -0.027135 0)
  (0.0275571 -0.022004 0)
  (0.0359702 -0.0178622 0)
  (0.0453389 -0.0153559 0)
  (0.0541129 -0.0133727 0)
  (0.0619045 -0.0108217 0)
  (0.0683184 -0.00692093 0)
  (0.0726228 -0.00120391 0)
  (0.0735497 0.00586899 0)
  (0.0702665 0.0138668 0)
  (0.0628057 0.023436 0)
  (0.0536989 0.0404262 0)
  (0.0409471 0.0609948 0)
  (0.0676204 0.0833922 0)
  (-0.0345139 0.117806 0)
  (0.0411985 0.0214386 0)
  (-0.0748809 -0.0423061 0)
  (-0.282496 -0.0651347 0)
  (0.817289 0.430231 0)
  (-0.351048 0.174409 0)
  (0.00497984 0.122368 0)
  (-0.0396228 0.110408 0)
  (-0.0426843 0.0964577 0)
  (-0.0473988 0.0796778 0)
  (-0.0515953 0.0599321 0)
  (-0.0554151 0.0357114 0)
  (-0.0573528 0.00476516 0)
  (-0.0500897 -0.0337716 0)
  (-0.041602 -0.0720999 0)
  (-0.0339747 -0.103491 0)
  (-0.027989 -0.126794 0)
  (-0.0242331 -0.14275 0)
  (-0.0224626 -0.152426 0)
  (-0.0204992 -0.156181 0)
  (-0.015488 -0.147876 0)
  (-0.00727165 -0.118698 0)
  (-0.00112963 -0.0879942 0)
  (-0.000796 -0.0614899 0)
  (0.000668064 -0.0462427 0)
  (0.003294 -0.0378994 0)
  (0.00712717 -0.03266 0)
  (0.0121266 -0.0286335 0)
  (0.0182548 -0.0255465 0)
  (0.0250476 -0.023563 0)
  (0.0319387 -0.0216216 0)
  (0.0386684 -0.0186621 0)
  (0.0450475 -0.0136944 0)
  (0.0506501 -0.00584554 0)
  (0.0549854 0.00466172 0)
  (0.0557948 0.0161987 0)
  (0.0542949 0.028689 0)
  (0.0528837 0.0446501 0)
  (0.048768 0.0645191 0)
  (0.0760707 0.0901845 0)
  (0.0458887 0.112227 0)
  (0.0940877 0.0720909 0)
  (0.120799 0.0449862 0)
  (-0.145971 -0.017083 0)
  (0.842846 0.475143 0)
  (-0.372668 0.165592 0)
  (0.0251006 0.0784574 0)
  (0.0108399 0.109281 0)
  (0.00849665 0.106216 0)
  (0.00541019 0.0852328 0)
  (0.00542361 0.0618097 0)
  (0.006198 0.0361412 0)
  (0.00983621 0.00106046 0)
  (0.0259777 -0.0434546 0)
  (0.0327612 -0.0804765 0)
  (0.0345248 -0.10851 0)
  (0.0326814 -0.128358 0)
  (0.0278211 -0.14155 0)
  (0.0206769 -0.149824 0)
  (0.01378 -0.154518 0)
  (0.00912856 -0.149578 0)
  (0.00608529 -0.121933 0)
  (0.000928885 -0.0859298 0)
  (-0.00482047 -0.0587292 0)
  (-0.00751677 -0.0457864 0)
  (-0.00883882 -0.0391217 0)
  (-0.00856967 -0.0351672 0)
  (-0.00702512 -0.0324641 0)
  (-0.00440026 -0.0305785 0)
  (-0.000982861 -0.0292252 0)
  (0.00304426 -0.0276465 0)
  (0.00745854 -0.0250186 0)
  (0.0124477 -0.0203089 0)
  (0.0181174 -0.0122323 0)
  (0.0260406 0.000261477 0)
  (0.0327985 0.0139251 0)
  (0.0375535 0.0271566 0)
  (0.043912 0.0415431 0)
  (0.0499488 0.0577068 0)
  (0.0758697 0.0788708 0)
  (0.0862744 0.0883759 0)
  (0.123237 0.0573008 0)
  (0.166396 0.0426084 0)
  (-0.0365639 0.0938558 0)
  (0.940474 0.490625 0)
  (-0.127633 0.147796 0)
  (0.0871765 0.00841787 0)
  (0.127891 0.0446233 0)
  (0.107336 0.0711185 0)
  (0.0909374 0.0609374 0)
  (0.0882913 0.0373881 0)
  (0.0913708 0.00892583 0)
  (0.105873 -0.0252267 0)
  (0.116974 -0.0562148 0)
  (0.116663 -0.0829206 0)
  (0.108489 -0.104027 0)
  (0.0953593 -0.119439 0)
  (0.0790911 -0.130064 0)
  (0.0610886 -0.137518 0)
  (0.0445083 -0.143532 0)
  (0.0303939 -0.141422 0)
  (0.0181644 -0.114261 0)
  (0.0027224 -0.0762668 0)
  (-0.0105043 -0.0509973 0)
  (-0.0175801 -0.0412734 0)
  (-0.0229163 -0.0366826 0)
  (-0.0265327 -0.0341204 0)
  (-0.0289534 -0.0325599 0)
  (-0.0304922 -0.0316038 0)
  (-0.0314017 -0.030902 0)
  (-0.0318043 -0.0299626 0)
  (-0.0316481 -0.0282363 0)
  (-0.0306681 -0.0251303 0)
  (-0.0283349 -0.0199989 0)
  (-0.0230821 -0.0121321 0)
  (-0.00874912 -0.000762973 0)
  (0.000279919 0.0115494 0)
  (0.0122041 0.0215002 0)
  (0.0240128 0.0294873 0)
  (0.0474979 0.0391408 0)
  (0.0681991 0.0324013 0)
  (0.0899888 -0.00365291 0)
  (0.152783 0.0391177 0)
  (-0.445107 0.21566 0)
  (1.06806 0.451612 0)
  (0.517657 0.301756 0)
  (0.519704 0.232708 0)
  (0.490269 0.194436 0)
  (0.40845 0.168125 0)
  (0.337167 0.130087 0)
  (0.296343 0.0873213 0)
  (0.275307 0.046135 0)
  (0.259275 0.00713415 0)
  (0.235912 -0.028991 0)
  (0.209141 -0.05857 0)
  (0.180584 -0.0804113 0)
  (0.1509 -0.095492 0)
  (0.120755 -0.105796 0)
  (0.0909286 -0.113852 0)
  (0.0653219 -0.122477 0)
  (0.0430447 -0.123837 0)
  (0.0245232 -0.0959485 0)
  (0.000379034 -0.0584902 0)
  (-0.0192048 -0.0395482 0)
  (-0.0299843 -0.0340794 0)
  (-0.0386213 -0.0317055 0)
  (-0.0458415 -0.0303404 0)
  (-0.0522606 -0.0294945 0)
  (-0.0582521 -0.0289246 0)
  (-0.0641027 -0.0283356 0)
  (-0.0700269 -0.0273064 0)
  (-0.0761956 -0.0253054 0)
  (-0.0828179 -0.0216997 0)
  (-0.0902266 -0.0157945 0)
  (-0.0987794 -0.00694447 0)
  (-0.108497 0.0050997 0)
  (-0.116582 0.0190539 0)
  (-0.131545 0.0350073 0)
  (-0.156919 0.0532333 0)
  (-0.194634 0.0722411 0)
  (-0.249373 0.0868189 0)
  (-0.313043 0.0942687 0)
  (-0.384972 0.0956758 0)
  (-0.652561 0.0913296 0)
  (-0.24207 0.0992722 0)
  (0.174908 0.171521 0)
  (0.266051 0.16568 0)
  (0.263596 0.134739 0)
  (0.264222 0.0944877 0)
  (0.265699 0.0531829 0)
  (0.261045 0.016546 0)
  (0.24793 -0.0131442 0)
  (0.226395 -0.0353514 0)
  (0.199051 -0.0512963 0)
  (0.16778 -0.0624746 0)
  (0.134196 -0.0705818 0)
  (0.0996555 -0.0781308 0)
  (0.0701683 -0.089589 0)
  (0.0398868 -0.0956659 0)
  (0.0173179 -0.0636025 0)
  (-0.0105389 -0.0307567 0)
  (-0.0315944 -0.0229674 0)
  (-0.0439393 -0.0220887 0)
  (-0.053992 -0.0220639 0)
  (-0.0633378 -0.0221023 0)
  (-0.0724215 -0.0221106 0)
  (-0.0814825 -0.0219833 0)
  (-0.0906984 -0.0215119 0)
  (-0.10013 -0.0203538 0)
  (-0.109674 -0.0180302 0)
  (-0.119035 -0.013952 0)
  (-0.127682 -0.0074926 0)
  (-0.134746 0.0019084 0)
  (-0.139016 0.0143616 0)
  (-0.141446 0.0303193 0)
  (-0.143301 0.0499824 0)
  (-0.145869 0.0723582 0)
  (-0.149861 0.093248 0)
  (-0.152181 0.101124 0)
  (-0.13422 0.0733455 0)
  (-0.0834429 -0.0309897 0)
  (-0.290434 -0.220774 0)
  (-0.121419 0.252 0)
  (0.090522 0.180304 0)
  (0.107231 0.13185 0)
  (0.13832 0.10763 0)
  (0.171391 0.0786766 0)
  (0.19549 0.0490896 0)
  (0.206189 0.0253962 0)
  (0.204666 0.00939574 0)
  (0.193429 -0.00274867 0)
  (0.174741 -0.0122636 0)
  (0.150633 -0.0198996 0)
  (0.122495 -0.0267505 0)
  (0.0910748 -0.0361056 0)
  (0.0623773 -0.0570905 0)
  (0.0151461 -0.071703 0)
  (-0.0178081 -0.0126348 0)
  (-0.0345962 0.0289377 0)
  (-0.0498679 0.0250469 0)
  (-0.0595246 0.0199114 0)
  (-0.0681595 0.0178349 0)
  (-0.0766734 0.0163469 0)
  (-0.0850623 0.0148753 0)
  (-0.0933136 0.0135085 0)
  (-0.10139 0.0123861 0)
  (-0.109165 0.0116422 0)
  (-0.116389 0.0114118 0)
  (-0.122685 0.01184 0)
  (-0.127492 0.0130932 0)
  (-0.129841 0.0154058 0)
  (-0.12835 0.0209435 0)
  (-0.121398 0.0309809 0)
  (-0.107976 0.0462 0)
  (-0.0884677 0.0661508 0)
  (-0.0644264 0.0862003 0)
  (-0.0390768 0.0977299 0)
  (0.0039818 0.0796564 0)
  (0.146882 0.00306074 0)
  (-0.210552 -0.132989 0)
  (-0.146681 -0.363207 0)
  (-0.441656 -0.0999513 0)
  (-0.321301 0.15161 0)
  (-0.169024 0.0589007 0)
  (-0.0836055 0.0342698 0)
  (0.0158743 0.0321793 0)
  (0.0801076 0.0120233 0)
  (0.12534 -0.00885534 0)
  (0.152288 -0.0276379 0)
  (0.161937 -0.0443215 0)
  (0.159044 -0.0573002 0)
  (0.14665 -0.0681281 0)
  (0.127656 -0.0783079 0)
  (0.103932 -0.0894051 0)
  (0.0757056 -0.104315 0)
  (0.0478337 -0.12882 0)
  (-0.0350335 -0.135249 0)
  (-0.0646306 -0.121378 0)
  (-0.0675913 -0.115975 0)
  (-0.0699502 -0.112319 0)
  (-0.0757494 -0.107317 0)
  (-0.082675 -0.101136 0)
  (-0.0896967 -0.0946048 0)
  (-0.0966291 -0.0880961 0)
  (-0.103414 -0.081715 0)
  (-0.10993 -0.0754347 0)
  (-0.115937 -0.0691299 0)
  (-0.121048 -0.0625804 0)
  (-0.124699 -0.0554586 0)
  (-0.126113 -0.0472944 0)
  (-0.124173 -0.03748 0)
  (-0.116847 -0.026783 0)
  (-0.101221 -0.0145508 0)
  (-0.0751509 0.000205987 0)
  (-0.0396389 0.0182759 0)
  (0.0175495 0.0411115 0)
  (0.0694774 0.0429102 0)
  (0.11824 0.0217464 0)
  (0.174824 -0.0174977 0)
  (-0.189381 -0.0840648 0)
)
;

boundaryField
{
  floor
  {
    type noSlip;
  }
  ceiling
  {
    type noSlip;
  }
  sWall
  {
    type noSlip;
  }
  nWall
  {
    type noSlip;
  }
  sideWalls
  {
    type empty;
  }
  glass1
  {
    type noSlip;
  }
  glass2
  {
    type noSlip;
  }
  sun
  {
    type noSlip;
  }
  heatsource1
  {
    type noSlip;
  }
  heatsource2
  {
    type noSlip;
  }
  Table_master
  {
    type noSlip;
  }
  Table_slave
  {
    type noSlip;
  }
  inlet
  {
    type fixedValue;
    value uniform (0.277164 -0.114805 0);
  }
  outlet
  {
    type zeroGradient;
  }
} 	// ************************************************************************* //

