/*--------------------------------*- C++ -*----------------------------------*\
  =========                 |
  \\      /  F ield         | OpenFOAM: The Open Source CFD Toolbox
   \\    /   O peration     | Website:  https://openfoam.org
    \\  /    A nd           | Version:  6
     \\/     M anipulation  |
\*---------------------------------------------------------------------------*/
FoamFile
{
    version     2.0;
    format      ascii;
    class       surfaceScalarField;
    location    "200";
    object      phi;
}
// * * * * * * * * * * * * * * * * * * * * * * * * * * * * * * * * * * * * * //

dimensions      [1 0 -1 0 0 0 0];

internalField   nonuniform List<scalar> 
852
(
-0.0029749
0.00303103
-0.00406421
0.00108931
-0.00486951
0.000805296
-0.00547171
0.000602194
-0.00583801
0.000366296
-0.0059416
0.000103588
-0.00575883
-0.000182774
-0.00528392
-0.000474906
-0.00455712
-0.000726809
-0.00366093
-0.000896189
-0.00269801
-0.000962924
-0.00177267
-0.00092534
-0.000981549
-0.000791126
-0.000392852
-0.000588703
-0.000391308
-0.000772814
0.000775435
-0.00052413
-0.000248698
7.94058e-05
-0.000603549
0.000606592
-0.0005272
0.000983476
-0.000376898
0.001235
-0.000251539
0.00137772
-0.000142734
0.00144815
-7.04465e-05
0.0014886
-4.04632e-05
0.00151493
-2.63526e-05
0.00153144
-1.65227e-05
0.00153963
-8.21036e-06
0.00153773
1.89092e-06
0.00151719
2.05182e-05
0.00145487
6.23035e-05
0.00131128
0.000143567
0.00106824
0.000243026
0.000744829
0.000323392
0.000748261
-0.00212803
0.00531044
-0.00317104
0.00213232
-0.00399221
0.00162646
-0.00458634
0.00119633
-0.00494948
0.000729429
-0.00506118
0.000215288
-0.00489561
-0.000348351
-0.00445653
-0.000913981
-0.00379825
-0.00138509
-0.00300958
-0.00168486
-0.00218445
-0.00178805
-0.00140556
-0.00170423
-0.000742151
-0.00145454
-0.000253179
-0.00107768
7.06424e-06
-0.000651558
0.000180622
-0.000173616
0.000180562
0.000214497
0.000568629
0.000648908
-0.000683121
0.000943843
-0.000898495
0.00118786
-0.000771227
0.00138254
-0.000571592
0.00151017
-0.000379178
0.00153498
-0.000167563
0.00154077
-7.62535e-05
0.00154755
-4.72552e-05
0.00155322
-3.20366e-05
0.00155699
-2.03103e-05
0.00155913
-1.03647e-05
0.00155888
2.11914e-06
0.00155261
2.67689e-05
0.00151137
0.000103525
0.00133528
0.000319648
0.00103063
0.000547658
0.00064329
0.00071071
0.00140059
-0.00148992
0.00703226
-0.00237847
0.00302087
-0.00310302
0.002351
-0.00361123
0.00170454
-0.00392445
0.00104265
-0.00401317
0.000304
-0.00382938
-0.000532137
-0.00338901
-0.00135435
-0.00277241
-0.00200169
-0.00207749
-0.00237977
-0.00138372
-0.00248183
-0.000746189
-0.00234176
-0.000203922
-0.00199681
0.000222347
-0.00150395
0.000493925
-0.000923139
0.000581687
-0.000261384
0.000762242
0.0014955
-0.000918385
0.00172536
-0.00091299
0.00170576
-0.000878908
0.0017072
-0.000772672
0.00173753
-0.000601938
0.00178773
-0.000429394
0.00162031
0.0015442
0.00149708
0.00146518
0.00144501
0.00143478
0.00143703
0.00146394
0.0015676
0.00128972
0.000597511
0.000956729
0.000880629
0.000539942
0.00112748
0.0019544
-0.00103692
0.00836993
-0.00172949
0.00371344
-0.00220597
0.00282747
-0.00253525
0.00203382
-0.00272698
0.00123437
-0.00272179
0.000298815
-0.00245374
-0.000800193
-0.00198715
-0.00182094
-0.00142802
-0.00256082
-0.000864606
-0.00294318
-0.000345098
-0.00300133
0.000109009
-0.00279586
0.000491184
-0.00237898
0.000818705
-0.00183147
0.00111513
-0.00121957
0.00146267
-0.000608932
0.00234307
-0.000118163
0.00263912
-0.000288591
0.00230462
-0.000583888
0.00214425
-0.000752624
0.00198663
-0.000721299
0.00184823
-0.000634278
0.00175431
-0.00050803
0.00166871
-0.000343811
0.00180449
-0.000135946
0.00187382
-6.94994e-05
0.00192143
-4.77741e-05
0.00195241
-3.11486e-05
0.00195472
-2.47752e-06
0.00190972
4.4835e-05
0.00179409
0.000115453
0.00157531
0.00021861
0.00119753
0.000377612
0.00106354
0.00073148
0.000784328
0.00115982
0.0003722
0.00153959
0.00234484
-0.000722067
0.00945146
-0.00123505
0.00422642
-0.00132794
0.00292036
-0.00137825
0.00208413
-0.00136741
0.00122353
-0.00114319
7.4594e-05
-0.000713982
-0.00122941
-0.000235847
-0.00229907
0.000200381
-0.00299704
0.000557541
-0.00330033
0.000830532
-0.00327431
0.0010319
-0.00299723
0.00119217
-0.00253925
0.00133802
-0.00197733
0.00150067
-0.00138222
0.00172606
-0.000834325
0.00205339
-0.000445499
0.00214372
-0.000378932
0.0020408
-0.000480975
0.00184521
-0.00055704
0.00166051
-0.000536611
0.00149703
-0.000470803
0.0013689
-0.000379917
0.00129156
-0.000266476
0.00130803
-0.000152432
0.00133522
-9.67104e-05
0.00136629
-7.88511e-05
0.00140007
-6.49503e-05
0.00142776
-3.01879e-05
0.00143194
4.06377e-05
0.00139351
0.00015387
0.0012993
0.000312799
0.00114958
0.000527313
0.00102155
0.000859495
0.000888224
0.00129313
0.000590157
0.00183764
0.000561613
0.00237337
-0.000944495
0.00150589
-0.00140633
0.000461615
-0.0013601
-0.000622949
0.0104835
-0.00095691
0.00456038
-0.000512471
0.00247591
-9.54636e-05
0.00166711
0.000313465
0.000814591
0.000857382
-0.000469332
0.00138475
-0.00175677
0.00176714
-0.00268146
0.00197857
-0.00320846
0.00205206
-0.00337381
0.0020227
-0.00324495
0.0019248
-0.00289932
0.00180038
-0.00241484
0.00168719
-0.00186414
0.00161379
-0.00130882
0.0015995
-0.000820038
0.00162955
-0.000475555
0.00158875
-0.000338148
0.00144767
-0.0003399
0.00125103
-0.000360408
0.00106329
-0.000348887
0.000904383
-0.000311905
0.000784326
-0.000259872
0.000715813
-0.000197976
0.000705893
-0.000142527
0.000729507
-0.000120339
0.000772668
-0.000122029
0.000830504
-0.000122803
0.000898499
-9.8201e-05
0.00096327
-2.4152e-05
0.00100829
0.000108833
0.00103136
0.000289709
0.00103812
0.000520532
0.00107267
0.000824925
0.00118206
0.00118372
0.00137994
0.00163973
0.0018408
0.00191249
0.00211432
0.00123236
0.00173321
0.000842704
0.000428758
-0.000655617
0.0115932
-0.000498403
0.00440316
0.000698531
0.00127898
0.00159151
0.000774127
0.00244001
-3.39197e-05
0.00323474
-0.00126406
0.00371449
-0.00223652
0.00387565
-0.00284261
0.00377259
-0.00310539
0.00347861
-0.00307983
0.00306652
-0.00283285
0.00260093
-0.00243372
0.0021402
-0.00195411
0.00173033
-0.00145428
0.00139523
-0.000973737
0.00114928
-0.000574093
0.000979936
-0.000306221
0.000830416
-0.000188638
0.000663229
-0.000172723
0.000488036
-0.000185227
0.00032857
-0.000189433
0.000197912
-0.000181261
0.000103467
-0.000165441
5.28715e-05
-0.000147396
4.7627e-05
-0.000137298
7.41891e-05
-0.000146918
0.000121333
-0.00016919
0.000186448
-0.000187936
0.000272864
-0.000184636
0.000385351
-0.000136658
0.000510554
-1.639e-05
0.000639408
0.000160836
0.000784384
0.000375537
0.000978401
0.000630889
0.00126834
0.000893761
0.00171482
0.00119323
0.0023914
0.00123589
0.00294059
0.000683148
0.00296282
0.000820449
0.00345116
0.00267971
0.00942194
0.00343603
0.00364684
0.00397327
0.000741736
0.00493293
-0.000185541
0.00588133
-0.000982324
0.0063409
-0.00172363
0.00634112
-0.00223673
0.00596512
-0.00246661
0.00531494
-0.00245519
0.00449924
-0.00226412
0.00361697
-0.00195058
0.00274632
-0.00156308
0.00195126
-0.00115905
0.00127734
-0.000780365
0.000737252
-0.000433663
0.000350684
-0.000187539
9.9786e-05
-5.53369e-05
-7.18623e-05
-1.70029e-05
-0.000213549
-3.10488e-05
-0.000341416
-5.73738e-05
-0.000453212
-7.76506e-05
-0.000544024
-9.04634e-05
-0.000609753
-9.97273e-05
-0.000647055
-0.00011011
-0.000657329
-0.000127041
-0.000650332
-0.000153932
-0.000633822
-0.000185718
-0.000608711
-0.000213066
-0.000567817
-0.000225549
-0.0004935
-0.000210995
-0.000359961
-0.000149948
-0.000181741
-1.74041e-05
3.17666e-05
0.000162009
0.000303429
0.000359206
0.000638735
0.000558436
0.00107616
0.000755789
0.00155537
0.000756666
0.00175365
0.000484846
0.00103191
0.00154217
0.00472827
0.00998019
0.0136194
0.0125362
0.00182495
0.0118695
0.000481082
0.0110917
-0.000204431
0.0100219
-0.000653831
0.0087003
-0.000915116
0.00724577
-0.00101206
0.00575973
-0.000969134
0.00432686
-0.000831237
0.00301396
-0.000637687
0.0018584
-0.000407524
0.000892037
-0.000192694
0.000122543
-1.08864e-05
-0.000415335
0.000104196
-0.000728227
0.000125336
-0.000896516
0.000112937
-0.000997276
8.37416e-05
-0.00107626
4.79227e-05
-0.00114983
1.61791e-05
-0.00121967
-7.82291e-06
-0.00128334
-2.68076e-05
-0.00133862
-4.44641e-05
-0.00138515
-6.35993e-05
-0.00142671
-8.5505e-05
-0.00147248
-0.000108177
-0.00153211
-0.000126107
-0.00161436
-0.00013083
-0.00172842
-0.000111511
-0.00188336
-5.60686e-05
-0.00208401
5.06795e-05
-0.00231978
0.000218351
-0.00262033
0.000462537
-0.00306078
0.000799635
-0.00372931
0.00122695
-0.00469065
0.00171712
-0.00606095
0.00212695
-0.00772736
0.00215124
-0.00725061
0.0010654
-0.00225159
0.00464774
0.00339088
0.00357102
0.00155786
0.00378057
-0.000413957
0.00367937
-0.000552623
0.00317047
-0.000406229
0.0024448
-0.000286406
0.00161556
-0.00013991
0.000748756
3.55424e-05
-7.48099e-05
0.000185851
-0.000746928
0.000264573
-0.00121171
0.000272065
-0.00149051
0.0002679
-0.00163241
0.000246082
-0.00171509
0.000207999
-0.00176861
0.000166447
-0.00181232
0.000127434
-0.00185736
9.29392e-05
-0.00190565
6.44544e-05
-0.00195528
4.17965e-05
-0.00200555
2.34434e-05
-0.00205799
7.95322e-06
-0.00211482
-6.78335e-06
-0.00217898
-2.13637e-05
-0.00225396
-3.32135e-05
-0.00234231
-3.77805e-05
-0.00244405
-2.91077e-05
-0.00255583
2.55619e-07
-0.00266897
5.7056e-05
-0.00277296
0.000154652
-0.00286575
0.00031112
-0.0029527
0.000549462
-0.00303725
0.000884175
-0.00311287
0.00130255
-0.0031308
0.00173503
-0.0030358
0.00203193
-0.00263443
0.00174986
-0.00138147
-0.000187581
-0.00356305
-0.000457022
0.00391617
0.000255486
0.000845372
-0.00034532
0.000186836
-0.00093796
3.99955e-05
-0.00142004
7.58263e-05
-0.0018411
0.00013463
-0.00217715
0.000196114
-0.00239337
0.000251734
-0.00249865
0.00029111
-0.00253319
0.000299097
-0.00253181
0.000270669
-0.00249807
0.000234135
-0.00245028
0.000198275
-0.00240824
0.000165951
-0.00238088
0.00013907
-0.00237066
0.00011719
-0.00237677
9.90371e-05
-0.00239603
8.36921e-05
-0.00242473
7.04794e-05
-0.00246011
5.88099e-05
-0.00250025
4.80791e-05
-0.00254509
3.80362e-05
-0.00259495
2.84806e-05
-0.00264747
1.92809e-05
-0.00269776
1.24966e-05
-0.00273867
1.17814e-05
-0.00276047
2.20442e-05
-0.00275713
5.36926e-05
-0.00271468
0.00011219
-0.00261164
0.000208056
-0.00241848
0.000356282
-0.00210953
0.000575207
-0.00166456
0.000857559
-0.00105121
0.00112166
-0.000102999
0.0010837
0.00115312
0.000493725
0.00157103
-0.000605513
-0.00191541
-0.00717574
-0.0100994
-0.00614145
-0.0052782
-0.0050823
-0.00503731
-0.00495892
-0.00482361
-0.00462837
-0.0043789
-0.00409133
-0.00379702
-0.00353229
-0.00330506
-0.0031145
-0.00295691
-0.00282673
-0.00271888
-0.00262956
-0.00255591
-0.00249574
-0.00244744
-0.00241001
-0.00238272
-0.00236503
-0.0023565
-0.00235466
-0.00235336
-0.00234156
-0.00229781
-0.00219521
-0.00199638
-0.00164894
-0.0010822
-0.000232746
0.000881118
0.00195701
0.00244262
0.00182852
)
;

boundaryField
{
    floor
    {
        type            calculated;
        value           nonuniform List<scalar> 
29
(
0
0
0
0
0
0
0
0
0
0
0
0
0
0
0
0
0
0
0
0
-3.44966e-06
-9.05232e-06
-1.38951e-05
-1.82572e-05
-1.55258e-06
-2.63477e-06
-7.70559e-06
-8.49812e-06
-7.46413e-06
)
;
    }
    ceiling
    {
        type            calculated;
        value           nonuniform List<scalar> 
43
(
-4.43073e-05
-4.30326e-05
-4.17593e-05
-1.79016e-05
-9.08844e-06
-5.02467e-06
-2.57947e-06
-7.0548e-07
8.57398e-07
2.23767e-06
3.52632e-06
4.76987e-06
5.91416e-06
6.89369e-06
7.69335e-06
8.34042e-06
8.87337e-06
9.3228e-06
9.70528e-06
1.00259e-05
1.02861e-05
1.04885e-05
1.06362e-05
1.07299e-05
1.07665e-05
1.07392e-05
1.06402e-05
1.04668e-05
1.02237e-05
9.92187e-06
9.57856e-06
9.20803e-06
8.82404e-06
8.44287e-06
8.0917e-06
7.77893e-06
7.79614e-06
8.09402e-06
8.5755e-06
9.92582e-06
1.06116e-05
7.64674e-06
-6.82477e-05
)
;
    }
    sWall
    {
        type            calculated;
        value           uniform -0.000273581;
    }
    nWall
    {
        type            calculated;
        value           nonuniform List<scalar> 6(-4.64455e-05 -5.56637e-05 -5.96002e-05 -7.00248e-05 -7.66166e-05 -9.6838e-05);
    }
    sideWalls
    {
        type            empty;
        value           nonuniform 0();
    }
    glass1
    {
        type            calculated;
        value           nonuniform List<scalar> 9(-5.61369e-05 -0.000151384 -0.000231897 -0.00030076 -0.000359458 -0.000409075 -0.000454151 -0.000508405 -0.000568866);
    }
    glass2
    {
        type            calculated;
        value           nonuniform List<scalar> 2(-0.00024522 -0.000270762);
    }
    sun
    {
        type            calculated;
        value           uniform 0;
    }
    heatsource1
    {
        type            calculated;
        value           nonuniform List<scalar> 3(2.03894e-07 2.03845e-07 2.03865e-07);
    }
    heatsource2
    {
        type            calculated;
        value           nonuniform List<scalar> 4(5.11568e-08 5.1227e-08 0 0);
    }
    Table_master
    {
        type            calculated;
        value           nonuniform List<scalar> 9(-1.52935e-07 -1.5304e-07 -1.53074e-07 -1.53097e-07 -1.53112e-07 -1.53121e-07 -1.53126e-07 -1.53117e-07 -1.53082e-07);
    }
    Table_slave
    {
        type            calculated;
        value           nonuniform List<scalar> 9(1.52799e-07 1.52831e-07 1.52815e-07 1.52802e-07 1.52799e-07 1.528e-07 1.52817e-07 1.52861e-07 1.52941e-07);
    }
    inlet
    {
        type            calculated;
        value           uniform -0.00621364;
    }
    outlet
    {
        type            calculated;
        value           nonuniform List<scalar> 2(0.0074936 0.00296663);
    }
}


// ************************************************************************* //
