/*--------------------------------*- C++ -*----------------------------------*\
  =========                 |
  \\      /  F ield         | OpenFOAM: The Open Source CFD Toolbox
   \\    /   O peration     | Website:  https://openfoam.org
    \\  /    A nd           | Version:  6
     \\/     M anipulation  |
\*---------------------------------------------------------------------------*/
FoamFile
{
    version     2.0;
    format      ascii;
    class       volScalarField;
    location    "400";
    object      alphat;
}
// * * * * * * * * * * * * * * * * * * * * * * * * * * * * * * * * * * * * * //

dimensions      [1 -1 -1 0 0 0 0];

internalField   nonuniform List<scalar> 
459
(
0.00123664
0.00135064
0.00137421
0.00143954
0.00149981
0.00155587
0.00161033
0.00166564
0.00170608
0.00172563
0.00171831
0.00168001
0.00161068
0.00151738
0.00141644
0.000543555
0.000669361
0.000747753
0.000736799
0.000708247
0.000673132
0.000631627
0.000591192
0.000554563
0.000521985
0.000493066
0.000467298
0.00044437
0.000423705
0.000404582
0.000386046
0.000366657
0.000353022
0.0003217
0.00168969
0.00410136
0.00391646
0.00455854
0.00518395
0.00581287
0.0063789
0.00679351
0.00717192
0.00748408
0.00768406
0.0077154
0.00749346
0.00681398
0.00499582
0.00143926
0.000881845
0.00059644
0.00122254
0.00166356
0.00196841
0.00212092
0.00210806
0.00172347
0.00149771
0.00133392
0.001207
0.00110527
0.00102196
0.00094869
0.000880146
0.00081375
0.000755086
0.0007035
0.000823659
0.000423308
0.00206708
0.00560533
0.0048515
0.00612975
0.00676217
0.00722819
0.0075869
0.0078569
0.00815023
0.00846028
0.00875196
0.00896713
0.00904299
0.00889834
0.00831178
0.00650105
0.00139748
0.00120842
0.00169656
0.00213139
0.00250381
0.00274563
0.00266065
0.000903047
0.000799275
0.000715913
0.000648577
0.000593636
0.000548327
0.00051067
0.000479385
0.000453919
0.000488811
0.000564429
0.000921471
0.000490219
0.00242975
0.00718998
0.0048556
0.00650685
0.00709618
0.00729296
0.00739935
0.00751483
0.00773139
0.00803652
0.00839979
0.00874621
0.00901283
0.00914291
0.00903486
0.00844182
0.00646689
0.00169713
0.00210599
0.00269366
0.0032276
0.00362609
0.00385541
0.00360131
0.00101593
0.000926504
0.000862692
0.000814249
0.000773173
0.000735274
0.000698959
0.000660865
0.000616591
0.000579309
0.000591392
0.00104732
0.000541739
0.00279956
0.00922824
0.00534674
0.00623917
0.00704419
0.00711756
0.00703713
0.00705744
0.00724545
0.00754885
0.0079582
0.00836864
0.00869727
0.00886678
0.00884262
0.00857611
0.00789178
0.00647476
0.00596947
0.00576826
0.00566602
0.00559351
0.00551155
0.00530069
0.00450022
0.00412139
0.00390332
0.00373394
0.00355249
0.00328799
0.0029238
0.00247713
0.00197724
0.00146739
0.00108084
0.00107639
0.00072275
0.000669996
0.000811586
0.000909985
0.00319119
0.0114427
0.00739571
0.00615901
0.0067505
0.00703381
0.00688008
0.00691604
0.00706359
0.00733869
0.00773983
0.00818631
0.00855125
0.00872367
0.00866057
0.00839744
0.00801768
0.00759632
0.00733083
0.00713085
0.00693093
0.00672995
0.00652632
0.00628621
0.00593586
0.00562308
0.00534356
0.00507345
0.00479725
0.00449755
0.0041131
0.0036264
0.00303592
0.00237338
0.00178029
0.00132508
0.00100069
0.000852508
0.00121887
0.000948309
0.0035484
0.0129966
0.0104125
0.00794821
0.00747349
0.00745609
0.00725239
0.00709333
0.00711445
0.00736491
0.00780141
0.00829759
0.00868726
0.00883569
0.00870329
0.0083717
0.00802423
0.00782097
0.00774682
0.00763165
0.00740855
0.00710465
0.0067499
0.00636607
0.00597537
0.00562128
0.00529935
0.00499931
0.00472077
0.00447043
0.0042477
0.00392669
0.0034639
0.00289344
0.00234088
0.00184076
0.00147547
0.00135998
0.00138738
0.00107255
0.00361618
0.0115984
0.0102844
0.00946847
0.00884513
0.00808657
0.00741978
0.00709511
0.00716691
0.00757061
0.00815897
0.00873654
0.00910516
0.00914127
0.00885441
0.00839748
0.00802917
0.00789858
0.00785093
0.00758633
0.00713974
0.00660269
0.00605543
0.00556056
0.00514704
0.00480884
0.00452409
0.00428306
0.00408905
0.00395147
0.00388008
0.00384664
0.0035996
0.00322475
0.00289129
0.00271573
0.00281059
0.00324008
0.00400856
0.00168389
0.00351697
0.00417769
0.00465316
0.00480007
0.00487951
0.00508992
0.00554745
0.00628274
0.00722589
0.00821652
0.00906917
0.00961463
0.00971908
0.00937535
0.00875305
0.0081754
0.00784701
0.00758656
0.00721762
0.00665813
0.00598924
0.00533284
0.0047731
0.00433474
0.00399889
0.00373286
0.00351131
0.00332087
0.00315371
0.00300211
0.00285767
0.00272047
0.00260973
0.00252755
0.0024974
0.00251198
0.00250428
0.00241116
0.00225785
0.00158586
0.00180411
0.00365021
0.00563246
0.007327
0.00869016
0.00978265
0.0105237
0.0108698
0.0108409
0.0104532
0.0097107
0.00875436
0.0078339
0.00719004
0.00672164
0.00619506
0.00556876
0.00491342
0.00431483
0.0038324
0.00346775
0.00319259
0.00297872
0.00280722
0.00266827
0.00255799
0.00247523
0.00242018
0.00239593
0.00240179
0.00242214
0.00245367
0.0024885
0.0024995
0.00244171
0.00229877
0.00208336
0.00131993
0.0023679
0.00590987
0.00875944
0.00982598
0.0103999
0.0106343
0.0104739
0.00995754
0.00918279
0.00826418
0.00733442
0.00650668
0.00581912
0.00523956
0.00467935
0.00414537
0.00369296
0.00334249
0.00308142
0.00287835
0.00271047
0.00256667
0.00244882
0.00235774
0.00229256
0.00225267
0.00223672
0.00224145
0.00227431
0.00233252
0.00241237
0.00250598
0.00259545
0.00265766
0.00264114
0.00267498
0.00271954
0.00134562
0.00209116
0.00221664
0.00230552
0.00246394
0.00237404
0.00226559
0.00219557
0.00210699
0.00198359
0.0018292
0.00165274
0.00146633
0.00128356
0.00112087
0.000993832
0.000903521
0.000841366
0.000798611
0.000769314
0.000749839
0.000738006
0.000732372
0.000732545
0.000738741
0.000750185
0.000766625
0.000788313
0.000815635
0.000849228
0.000890253
0.000937605
0.000991267
0.0010519
0.00112011
0.00119556
0.00128476
0.00131583
0.00128348
0.00120566
0.00112384
)
;

boundaryField
{
    floor
    {
        type            compressible::alphatWallFunction;
        Prt             0.85;
        value           nonuniform List<scalar> 
29
(
0.00019973
7.58863e-05
9.46999e-05
0.000106201
0.000104602
0.000100424
9.52563e-05
8.91059e-05
8.30665e-05
7.75516e-05
7.26084e-05
6.8188e-05
6.4222e-05
6.06696e-05
5.74479e-05
5.44487e-05
5.1524e-05
4.84454e-05
4.62678e-05
4.12231e-05
4.12225e-05
5.73863e-05
6.77518e-05
7.56111e-05
0.000199727
7.58854e-05
8.38537e-05
0.00017133
0.000237323
)
;
    }
    ceiling
    {
        type            compressible::alphatWallFunction;
        Prt             0.85;
        value           nonuniform List<scalar> 
43
(
0.000288871
0.000305082
0.00031651
0.00033688
0.000325456
0.000311576
0.000302575
0.000291134
0.000275105
0.000254891
0.000231553
0.000206595
0.000181774
0.000159341
0.000141563
0.000128764
0.000119868
0.000113704
0.000109458
0.000106624
0.000104898
0.000104076
0.000104101
0.000105007
0.000106676
0.000109069
0.000112217
0.000116167
0.000121002
0.000126876
0.000133616
0.000141207
0.000149726
0.000159242
0.00016969
0.000181948
0.000186194
0.000181773
0.000171085
0.000159765
0.000468664
0.000549032
0.000324339
)
;
    }
    sWall
    {
        type            compressible::alphatWallFunction;
        Prt             0.85;
        value           uniform 0.000287661;
    }
    nWall
    {
        type            compressible::alphatWallFunction;
        Prt             0.85;
        value           nonuniform List<scalar> 6(0.00012937 0.000134809 0.000152279 0.000186429 0.000189927 0.000159443);
    }
    sideWalls
    {
        type            empty;
    }
    glass1
    {
        type            compressible::alphatWallFunction;
        Prt             0.85;
        value           nonuniform List<scalar> 9(0.000170979 0.000231292 0.00028029 0.000326558 0.00037305 0.000421634 0.000465455 0.000473848 0.000461973);
    }
    glass2
    {
        type            compressible::alphatWallFunction;
        Prt             0.85;
        value           nonuniform List<scalar> 2(0.000234019 0.000221077);
    }
    sun
    {
        type            compressible::alphatWallFunction;
        Prt             0.85;
        value           nonuniform List<scalar> 
14
(
0.000175234
0.000190806
0.000194009
0.000202857
0.000210979
0.000218502
0.000225781
0.000233146
0.000238513
0.000241103
0.000240132
0.000235053
0.000225825
0.000213337
)
;
    }
    heatsource1
    {
        type            compressible::alphatWallFunction;
        Prt             0.85;
        value           nonuniform List<scalar> 3(9.48966e-05 0.000115566 0.000129673);
    }
    heatsource2
    {
        type            compressible::alphatWallFunction;
        Prt             0.85;
        value           nonuniform List<scalar> 4(0.000202933 0.000125659 0.000125657 0.000197276);
    }
    Table_master
    {
        type            compressible::alphatWallFunction;
        Prt             0.85;
        value           nonuniform List<scalar> 9(0.00012868 0.000113783 0.000101649 9.1723e-05 8.35307e-05 7.67041e-05 7.0977e-05 6.61786e-05 6.22434e-05);
    }
    Table_slave
    {
        type            compressible::alphatWallFunction;
        Prt             0.85;
        value           nonuniform List<scalar> 9(0.00014466 0.000132021 0.000122915 0.000115949 0.000110004 0.000104484 9.91636e-05 9.35459e-05 8.69667e-05);
    }
    inlet
    {
        type            fixedValue;
        value           uniform 1.94e-05;
    }
    outlet
    {
        type            zeroGradient;
    }
}


// ************************************************************************* //
