/*--------------------------------*- C++ -*----------------------------------*\
  =========                 |
  \\      /  F ield         | OpenFOAM: The Open Source CFD Toolbox
   \\    /   O peration     | Website:  https://openfoam.org
    \\  /    A nd           | Version:  6
     \\/     M anipulation  |
\*---------------------------------------------------------------------------*/
FoamFile
{
    version     2.0;
    format      ascii;
    class       volScalarField;
    location    "400";
    object      epsilon;
}
// * * * * * * * * * * * * * * * * * * * * * * * * * * * * * * * * * * * * * //

dimensions      [0 2 -3 0 0 0 0];

internalField   nonuniform List<scalar> 
459
(
0.000428719
0.000557124
0.000586722
0.000674419
0.000762684
0.000851413
0.000943944
0.00104453
0.00112238
0.0011613
0.00114643
0.00107136
0.000944027
0.000789258
0.000641996
3.63086e-05
6.77905e-05
9.44986e-05
9.04066e-05
8.03006e-05
6.89412e-05
5.69605e-05
4.67081e-05
3.85545e-05
3.21522e-05
2.70997e-05
2.307e-05
1.98387e-05
1.71982e-05
1.49736e-05
1.30088e-05
1.11459e-05
9.94856e-06
7.52976e-06
0.00109558
0.00158887
0.000528363
0.000511395
0.000534759
0.000571833
0.000625457
0.000699469
0.000773286
0.000825476
0.000836176
0.000795754
0.000708671
0.000597097
0.000526337
0.000673439
0.000154907
4.79746e-05
0.000117754
0.000119789
0.000106009
8.83689e-05
7.26621e-05
6.39925e-05
5.17864e-05
4.11936e-05
3.28026e-05
2.63097e-05
2.1301e-05
1.74492e-05
1.44902e-05
1.23266e-05
1.10431e-05
1.05147e-05
2.46012e-05
1.71541e-05
0.00200959
0.00392859
0.000664329
0.000489982
0.000510584
0.000569053
0.000655305
0.000767123
0.000877308
0.000953553
0.000975251
0.000937573
0.000849719
0.000729588
0.000625701
0.000565268
0.000616499
0.000398799
0.000269685
0.000196461
0.000147834
0.000114158
9.41205e-05
0.000166469
0.000115423
8.2944e-05
6.1672e-05
4.72896e-05
3.7267e-05
3.01043e-05
2.49035e-05
2.1142e-05
1.60731e-05
1.33902e-05
4.37773e-05
2.66421e-05
0.00326994
0.00818314
0.00107503
0.000502608
0.000501363
0.000583536
0.000714989
0.0008882
0.00103858
0.00112565
0.00114061
0.00108922
0.000986285
0.000842314
0.000708174
0.000606622
0.000576604
0.00110439
0.000602352
0.000354837
0.000233979
0.000166248
0.000125058
0.000105698
0.000237109
0.000179859
0.000145206
0.0001221
0.000104543
8.99142e-05
7.72411e-05
6.5289e-05
5.30268e-05
3.14411e-05
2.05268e-05
6.77762e-05
3.59579e-05
0.00501093
0.014584
0.00216401
0.000620643
0.000526568
0.000629744
0.000855791
0.00113008
0.00130471
0.00137391
0.00135809
0.00127468
0.00113627
0.000959655
0.000774176
0.0006052
0.000473541
0.000406917
0.000321983
0.000247573
0.000189525
0.000146568
0.000115921
9.6555e-05
9.31505e-05
8.67413e-05
8.03585e-05
7.41051e-05
6.75352e-05
6.05262e-05
5.36213e-05
4.71206e-05
4.11727e-05
3.2903e-05
2.51261e-05
5.01729e-05
3.97282e-05
6.80676e-05
0.000121037
0.000170626
0.00743407
0.0216174
0.00488826
0.001253
0.000832535
0.000925946
0.00136036
0.00164891
0.00175066
0.00174225
0.00166628
0.00153325
0.00134427
0.00111232
0.000866189
0.000639892
0.000462582
0.00034635
0.000270081
0.000212445
0.000166299
0.000131364
0.000106862
9.1782e-05
8.51805e-05
8.26015e-05
8.10369e-05
7.88895e-05
7.51359e-05
6.89268e-05
6.02917e-05
5.13207e-05
4.31192e-05
3.58032e-05
3.09276e-05
3.93898e-05
4.09436e-05
5.15068e-05
0.000222953
0.000193045
0.0102358
0.0258109
0.010017
0.00410484
0.00276414
0.00258137
0.00270138
0.00262923
0.00246987
0.00229117
0.00210211
0.00188178
0.0016118
0.00129957
0.000978205
0.0006894
0.000469619
0.000327534
0.000241131
0.000184298
0.000143546
0.000115472
9.8152e-05
8.96701e-05
8.79838e-05
9.00258e-05
9.31805e-05
9.61337e-05
9.78466e-05
9.67448e-05
8.97438e-05
7.90165e-05
6.84002e-05
5.93436e-05
5.55239e-05
6.12903e-05
7.70762e-05
0.000122519
0.000287503
0.00027925
0.0108572
0.0280939
0.0156668
0.0106975
0.008016
0.00626112
0.00493291
0.0040204
0.00341691
0.00300212
0.0026649
0.00232066
0.00192597
0.0014929
0.00106861
0.000701843
0.00044032
0.000283827
0.000195383
0.000147826
0.000118571
0.000101217
9.27683e-05
9.1049e-05
9.42351e-05
0.000100632
0.000109162
0.000119617
0.000132122
0.000146566
0.000161903
0.000170471
0.000178107
0.000195353
0.000232146
0.000345008
0.000633412
0.00120409
0.00361299
0.0010823
0.0100186
0.0167466
0.0133543
0.0101309
0.00779435
0.00622359
0.00520224
0.00455474
0.00411955
0.00374718
0.0033291
0.00281286
0.00220001
0.00157133
0.00101546
0.000568145
0.000320809
0.000206313
0.000148363
0.000117085
9.95884e-05
9.09282e-05
8.85068e-05
9.06788e-05
9.64033e-05
0.00010513
0.00011691
0.000132449
0.000153032
0.000180495
0.000217268
0.000266971
0.000335325
0.000439406
0.000593898
0.000806225
0.00105323
0.00127332
0.00144206
0.000905312
0.00375795
0.00579825
0.00654254
0.0065893
0.00636678
0.00597516
0.00538243
0.00459576
0.0036798
0.00270242
0.00168355
0.000939061
0.000518696
0.00029094
0.00018196
0.000131358
0.000105943
9.23334e-05
8.52219e-05
8.21877e-05
8.18949e-05
8.3699e-05
8.74443e-05
9.32915e-05
0.00010175
0.000113728
0.000130603
0.000154384
0.000188009
0.000235747
0.000302524
0.000395203
0.000517645
0.000659961
0.000786487
0.000847185
0.000811627
0.000521924
0.00282274
0.0063558
0.00708329
0.00585993
0.00527554
0.00464612
0.00376827
0.00282031
0.00196794
0.00128951
0.000786559
0.000457673
0.000276298
0.000185793
0.00014481
0.000127181
0.000119508
0.00011586
0.000113716
0.000112167
0.000111006
0.000110498
0.000111253
0.000113778
0.000118628
0.000126613
0.000138937
0.000157398
0.000184674
0.000224111
0.000280138
0.000357335
0.000456472
0.000569729
0.000656441
0.000750997
0.000749782
0.000552934
0.00199586
0.00237528
0.0026725
0.00332133
0.00299469
0.00261295
0.00238366
0.00211023
0.0017631
0.00138401
0.00102163
0.000713867
0.000479001
0.000319059
0.000222443
0.000167163
0.000134992
0.000115447
0.000103206
9.55682e-05
9.11177e-05
8.90499e-05
8.91159e-05
9.13997e-05
9.57165e-05
0.000102151
0.000111072
0.000123029
0.000138869
0.000159987
0.000186902
0.000220871
0.000263938
0.0003187
0.000387554
0.000480983
0.000516778
0.000479615
0.000397565
0.000322118
)
;

boundaryField
{
    floor
    {
        Cmu             0.09;
        kappa           0.41;
        E               9.8;
        type            epsilonWallFunction;
        value           nonuniform List<scalar> 
29
(
0.000641996
3.63086e-05
6.77905e-05
9.44986e-05
9.04066e-05
8.03006e-05
6.89412e-05
5.69605e-05
4.67081e-05
3.85545e-05
3.21522e-05
2.70997e-05
2.307e-05
1.98387e-05
1.71982e-05
1.49736e-05
1.30088e-05
1.11459e-05
9.94856e-06
7.52976e-06
7.52976e-06
1.71541e-05
2.66421e-05
3.59579e-05
0.000641996
3.63086e-05
4.79746e-05
0.000398799
0.00110439
)
;
    }
    ceiling
    {
        Cmu             0.09;
        kappa           0.41;
        E               9.8;
        type            epsilonWallFunction;
        value           nonuniform List<scalar> 
43
(
0.00199586
0.00237528
0.0026725
0.00332133
0.00299469
0.00261295
0.00238366
0.00211023
0.0017631
0.00138401
0.00102163
0.000713867
0.000479001
0.000319059
0.000222443
0.000167163
0.000134992
0.000115447
0.000103206
9.55682e-05
9.11177e-05
8.90499e-05
8.91159e-05
9.13997e-05
9.57165e-05
0.000102151
0.000111072
0.000123029
0.000138869
0.000159987
0.000186902
0.000220871
0.000263938
0.0003187
0.000387554
0.000480983
0.000516778
0.000479615
0.000397565
0.000322118
0.0100186
0.0167466
0.00282274
)
;
    }
    sWall
    {
        Cmu             0.09;
        kappa           0.41;
        E               9.8;
        type            epsilonWallFunction;
        value           uniform 0.00199586;
    }
    nWall
    {
        Cmu             0.09;
        kappa           0.41;
        E               9.8;
        type            epsilonWallFunction;
        value           nonuniform List<scalar> 6(0.000170626 0.000193045 0.00027925 0.000521924 0.000552934 0.000322118);
    }
    sideWalls
    {
        type            empty;
    }
    glass1
    {
        Cmu             0.09;
        kappa           0.41;
        E               9.8;
        type            epsilonWallFunction;
        value           nonuniform List<scalar> 9(0.000428719 0.00109558 0.00200959 0.00326994 0.00501093 0.00743407 0.0102358 0.0108572 0.0100186);
    }
    glass2
    {
        Cmu             0.09;
        kappa           0.41;
        E               9.8;
        type            epsilonWallFunction;
        value           nonuniform List<scalar> 2(0.0010823 0.000905312);
    }
    sun
    {
        Cmu             0.09;
        kappa           0.41;
        E               9.8;
        type            epsilonWallFunction;
        value           nonuniform List<scalar> 
14
(
0.000428719
0.000557124
0.000586722
0.000674419
0.000762684
0.000851413
0.000943944
0.00104453
0.00112238
0.0011613
0.00114643
0.00107136
0.000944027
0.000789258
)
;
    }
    heatsource1
    {
        Cmu             0.09;
        kappa           0.41;
        E               9.8;
        type            epsilonWallFunction;
        value           nonuniform List<scalar> 3(6.80676e-05 0.000121037 0.000170626);
    }
    heatsource2
    {
        Cmu             0.09;
        kappa           0.41;
        E               9.8;
        type            epsilonWallFunction;
        value           nonuniform List<scalar> 4(0.000673439 0.000154907 0.000154907 0.000616499);
    }
    Table_master
    {
        Cmu             0.09;
        kappa           0.41;
        E               9.8;
        type            epsilonWallFunction;
        value           nonuniform List<scalar> 9(0.000166469 0.000115423 8.2944e-05 6.1672e-05 4.72896e-05 3.7267e-05 3.01043e-05 2.49035e-05 2.1142e-05);
    }
    Table_slave
    {
        Cmu             0.09;
        kappa           0.41;
        E               9.8;
        type            epsilonWallFunction;
        value           nonuniform List<scalar> 9(0.000237109 0.000179859 0.000145206 0.0001221 0.000104543 8.99142e-05 7.72411e-05 6.5289e-05 5.30268e-05);
    }
    inlet
    {
        type            turbulentMixingLengthDissipationRateInlet;
        mixingLength    0.01;
        phi             phi;
        k               k;
        value           uniform 0.000101881;
    }
    outlet
    {
        type            zeroGradient;
    }
}


// ************************************************************************* //
