// -*- C++ -*-
// File generated by PyFoam - sorry for the ugliness

FoamFile
{
 version 2.0;
 format ascii;
 class volScalarField;
 location "700";
 object T;
}

dimensions [ 0 0 0 1 0 0 0 ];

internalField nonuniform List<scalar> 459
(
  303.636
  303.375
  303.363
  303.359
  303.356
  303.352
  303.348
  303.343
  303.337
  303.327
  303.315
  303.302
  303.291
  303.283
  303.28
  303.343
  303.323
  303.316
  303.316
  303.318
  303.32
  303.322
  303.325
  303.327
  303.329
  303.331
  303.333
  303.335
  303.336
  303.338
  303.34
  303.342
  303.344
  303.358
  303.815
  303.418
  303.396
  303.399
  303.403
  303.405
  303.404
  303.4
  303.39
  303.372
  303.347
  303.32
  303.296
  303.278
  303.267
  303.261
  303.257
  303.342
  303.312
  303.305
  303.305
  303.306
  303.308
  303.308
  303.308
  303.308
  303.307
  303.307
  303.306
  303.306
  303.306
  303.306
  303.308
  303.312
  303.317
  303.342
  304.001
  303.468
  303.43
  303.441
  303.456
  303.468
  303.476
  303.476
  303.464
  303.435
  303.392
  303.346
  303.307
  303.279
  303.265
  303.26
  303.259
  303.29
  303.292
  303.297
  303.303
  303.309
  303.312
  303.311
  303.31
  303.308
  303.307
  303.306
  303.304
  303.303
  303.302
  303.301
  303.301
  303.303
  303.307
  303.335
  304.187
  303.529
  303.464
  303.48
  303.507
  303.534
  303.556
  303.566
  303.552
  303.507
  303.441
  303.371
  303.315
  303.278
  303.261
  303.257
  303.26
  303.269
  303.277
  303.29
  303.303
  303.315
  303.324
  303.33
  303.335
  303.339
  303.343
  303.346
  303.348
  303.349
  303.35
  303.35
  303.348
  303.331
  303.317
  303.31
  303.333
  304.366
  303.607
  303.502
  303.511
  303.545
  303.587
  303.628
  303.653
  303.634
  303.569
  303.478
  303.384
  303.314
  303.272
  303.253
  303.253
  303.261
  303.274
  303.29
  303.307
  303.324
  303.338
  303.349
  303.357
  303.364
  303.369
  303.373
  303.376
  303.377
  303.376
  303.374
  303.369
  303.363
  303.349
  303.331
  303.317
  303.328
  303.387
  303.428
  303.435
  304.527
  303.707
  303.569
  303.552
  303.581
  303.626
  303.686
  303.717
  303.682
  303.595
  303.484
  303.379
  303.3
  303.255
  303.241
  303.247
  303.265
  303.287
  303.31
  303.333
  303.353
  303.368
  303.379
  303.387
  303.393
  303.397
  303.4
  303.402
  303.401
  303.399
  303.393
  303.385
  303.376
  303.362
  303.344
  303.327
  303.326
  303.352
  303.366
  303.399
  304.67
  303.868
  303.728
  303.684
  303.685
  303.714
  303.764
  303.763
  303.693
  303.575
  303.444
  303.332
  303.257
  303.223
  303.223
  303.245
  303.277
  303.311
  303.342
  303.368
  303.387
  303.401
  303.41
  303.416
  303.421
  303.423
  303.425
  303.425
  303.423
  303.418
  303.41
  303.4
  303.388
  303.374
  303.357
  303.34
  303.333
  303.341
  303.349
  303.377
  304.883
  304.283
  304.128
  304.022
  303.958
  303.934
  303.893
  303.791
  303.638
  303.47
  303.325
  303.226
  303.179
  303.178
  303.209
  303.256
  303.307
  303.351
  303.385
  303.408
  303.422
  303.432
  303.438
  303.442
  303.444
  303.446
  303.446
  303.444
  303.441
  303.437
  303.429
  303.418
  303.407
  303.394
  303.382
  303.369
  303.366
  303.378
  303.397
  303.523
  305.185
  304.907
  304.645
  304.414
  304.225
  304.061
  303.852
  303.588
  303.344
  303.167
  303.073
  303.052
  303.084
  303.15
  303.226
  303.301
  303.364
  303.402
  303.426
  303.441
  303.451
  303.457
  303.461
  303.464
  303.465
  303.466
  303.466
  303.464
  303.463
  303.461
  303.46
  303.462
  303.466
  303.474
  303.49
  303.514
  303.547
  303.579
  303.601
  303.654
  296.752
  299.181
  300.585
  301.158
  301.505
  301.842
  302.163
  302.455
  302.706
  302.91
  303.077
  303.225
  303.324
  303.385
  303.423
  303.445
  303.458
  303.467
  303.473
  303.478
  303.481
  303.483
  303.485
  303.487
  303.489
  303.49
  303.492
  303.494
  303.497
  303.5
  303.506
  303.515
  303.529
  303.549
  303.572
  303.594
  303.61
  303.627
  297.391
  299.435
  300.577
  301.295
  301.785
  302.164
  302.5
  302.785
  303.001
  303.161
  303.277
  303.357
  303.409
  303.44
  303.46
  303.472
  303.48
  303.485
  303.49
  303.493
  303.496
  303.499
  303.502
  303.504
  303.507
  303.509
  303.511
  303.514
  303.516
  303.519
  303.524
  303.531
  303.541
  303.554
  303.569
  303.586
  303.582
  303.609
  299.716
  299.638
  299.634
  301.342
  302.089
  302.489
  302.762
  302.964
  303.114
  303.224
  303.305
  303.365
  303.406
  303.434
  303.452
  303.463
  303.471
  303.476
  303.48
  303.483
  303.487
  303.49
  303.494
  303.497
  303.501
  303.504
  303.507
  303.511
  303.514
  303.517
  303.52
  303.523
  303.527
  303.532
  303.538
  303.548
  303.557
  303.562
  303.563
  303.601
)
;

boundaryField
{
  floor
  {
    type wallHeatTransfer;
    Tinf uniform 305.2;
    alphaWall uniform 0.24;
    value nonuniform List<scalar> 29
(
  303.467
  303.71
  303.645
  303.618
  303.624
  303.635
  303.648
  303.664
  303.681
  303.697
  303.712
  303.727
  303.742
  303.756
  303.769
  303.782
  303.795
  303.81
  303.821
  303.856
  303.856
  303.765
  303.72
  303.693
  303.467
  303.71
  303.684
  303.501
  303.438
)
;
  }
  ceiling
  {
    type wallHeatTransfer;
    Tinf uniform 303.2;
    alphaWall uniform 0.24;
    value nonuniform List<scalar> 43
(
  299.963
  299.88
  299.868
  301.458
  302.161
  302.538
  302.793
  302.982
  303.12
  303.222
  303.296
  303.349
  303.384
  303.406
  303.419
  303.426
  303.43
  303.432
  303.435
  303.438
  303.44
  303.444
  303.447
  303.45
  303.454
  303.458
  303.461
  303.465
  303.469
  303.474
  303.478
  303.483
  303.488
  303.494
  303.501
  303.512
  303.521
  303.525
  303.523
  303.555
  305.093
  304.838
  297.76
)
;
  }
  sWall
  {
    type wallHeatTransfer;
    Tinf uniform 315.2;
    alphaWall uniform 0.36;
    value uniform 301.313;
  }
  nWall
  {
    type wallHeatTransfer;
    Tinf uniform 307.2;
    alphaWall uniform 0.36;
    value nonuniform List<scalar> 6
(
  304.145
  304.097
  304.027
  304.146
  304.125
  304.187
)
;
  }
  sideWalls
  {
    type empty;
  }
  glass1
  {
    type wallHeatTransfer;
    Tinf uniform 315.2;
    alphaWall uniform 4.3;
    value nonuniform List<scalar> 9
(
  311.661
  311.02
  310.611
  310.295
  310.03
  309.791
  309.607
  309.671
  309.89
)
;
  }
  glass2
  {
    type wallHeatTransfer;
    Tinf uniform 307.2;
    alphaWall uniform 4.3;
    value nonuniform List<scalar> 2
(
  305.82
  305.91
)
;
  }
  sun
  {
    type wallHeatTransfer;
    Tinf uniform 305.2;
    alphaWall uniform 0.24;
    value nonuniform List<scalar> 14
(
  303.808
  303.564
  303.551
  303.541
  303.533
  303.525
  303.517
  303.508
  303.499
  303.488
  303.477
  303.467
  303.462
  303.461
)
;
  }
  heatsource1
  {
    type fixedGradient;
    gradient uniform 0;
  }
  heatsource2
  {
    type fixedGradient;
    gradient uniform 0;
  }
  Table_master
  {
    type zeroGradient;
  }
  Table_slave
  {
    type zeroGradient;
  }
  inlet
  {
    type fixedValue;
    value uniform 293.15;
  }
  outlet
  {
    type zeroGradient;
  }
} 	// ************************************************************************* //

