/*--------------------------------*- C++ -*----------------------------------*\
  =========                 |
  \\      /  F ield         | OpenFOAM: The Open Source CFD Toolbox
   \\    /   O peration     | Website:  https://openfoam.org
    \\  /    A nd           | Version:  6
     \\/     M anipulation  |
\*---------------------------------------------------------------------------*/
FoamFile
{
    version     2.0;
    format      ascii;
    class       volScalarField;
    location    "1700";
    object      nut;
}
// * * * * * * * * * * * * * * * * * * * * * * * * * * * * * * * * * * * * * //

dimensions      [0 2 -1 0 0 0 0];

internalField   nonuniform List<scalar> 
459
(
0.00107975
0.00117954
0.00120148
0.0012592
0.00131265
0.00136267
0.00141169
0.00145966
0.00149354
0.00150786
0.00149755
0.00145948
0.00139347
0.00130511
0.00120822
0.000474005
0.000579932
0.000652004
0.000647409
0.000624822
0.000595354
0.000558645
0.000522345
0.000489399
0.00046013
0.000434192
0.000411127
0.000390606
0.000372165
0.000355154
0.000338718
0.0003216
0.000309324
0.000281725
0.00147118
0.00358958
0.00343578
0.00399924
0.00455299
0.00510692
0.00559631
0.00596452
0.00629762
0.00656843
0.00673917
0.00676697
0.00658617
0.00603196
0.00450923
0.0012316
0.000726354
0.000513032
0.00107595
0.00148399
0.00177417
0.00192599
0.00191675
0.00154274
0.00133121
0.00117961
0.00106313
0.000970449
0.000894948
0.000829728
0.000768951
0.000710128
0.000657947
0.000612646
0.000717518
0.000367898
0.00179705
0.00490397
0.00426338
0.00534765
0.00588954
0.00629243
0.00660596
0.00685599
0.00712642
0.00740787
0.00766741
0.00785812
0.00792789
0.0077999
0.00726897
0.00560792
0.00122401
0.00102431
0.00146922
0.00187873
0.00224072
0.00248282
0.00241019
0.00079971
0.000706301
0.000631289
0.000570771
0.000521468
0.000480863
0.000447156
0.000419196
0.000396504
0.00042701
0.00049323
0.000806578
0.000425351
0.00210988
0.00626978
0.00427697
0.00566102
0.00613839
0.00630304
0.00641139
0.00654166
0.00675752
0.0070448
0.00737018
0.00767531
0.00790615
0.00800288
0.00789189
0.00732288
0.00537123
0.00146566
0.00181746
0.00234369
0.00284622
0.00323784
0.003471
0.0032439
0.000902309
0.000821577
0.000763781
0.000719754
0.000682391
0.000648168
0.000615322
0.000580875
0.000540927
0.000506984
0.000517648
0.000920568
0.000469864
0.00242893
0.00802475
0.00470502
0.00545217
0.00608455
0.00613168
0.00608523
0.00615655
0.00634704
0.00663812
0.00700214
0.00735861
0.00763293
0.0077645
0.00773146
0.00749127
0.00687561
0.00568549
0.00527563
0.00513604
0.00508232
0.00504442
0.0049817
0.00478363
0.00403851
0.00368193
0.00347556
0.00331651
0.00314856
0.0029059
0.00257748
0.00217784
0.00173284
0.00128324
0.000945342
0.000946082
0.000629978
0.000579172
0.000701407
0.000787344
0.0027672
0.00993639
0.00648169
0.00543441
0.00591074
0.00612911
0.00600001
0.00605844
0.00620099
0.00646049
0.00682615
0.00721552
0.00751685
0.00764283
0.00757255
0.00735238
0.00705782
0.00674953
0.00657273
0.00643798
0.0062854
0.00611408
0.0059262
0.00569661
0.0053625
0.00506499
0.00480061
0.00454583
0.0042853
0.0040016
0.00364477
0.00320123
0.00267062
0.0020827
0.00156186
0.0011672
0.000880203
0.000748612
0.00106703
0.000821675
0.00307491
0.0112759
0.00908734
0.00701575
0.00663669
0.00655806
0.00633947
0.00619924
0.00624205
0.00649329
0.00689765
0.00733163
0.00764897
0.00774662
0.00761366
0.00734601
0.00711336
0.00702956
0.00703089
0.00695703
0.00676552
0.00649353
0.00617411
0.00582363
0.00545586
0.00511309
0.00479631
0.00449894
0.0042228
0.00397548
0.00375734
0.00346142
0.00304844
0.0025447
0.00206031
0.00162695
0.00131087
0.00121738
0.00124249
0.000938938
0.00313454
0.0100365
0.0089182
0.00823637
0.0076331
0.0069349
0.00638714
0.00616729
0.00629714
0.00670228
0.00724245
0.00773877
0.00802314
0.00801476
0.00775245
0.00740187
0.00718741
0.00717924
0.00717545
0.00694938
0.00656452
0.00609603
0.00560347
0.00513547
0.00472344
0.00437398
0.00407549
0.00382289
0.00362069
0.00347706
0.00339848
0.00335855
0.00315335
0.0028333
0.00255395
0.00241732
0.00252245
0.00291157
0.00356412
0.00146446
0.00305138
0.003618
0.00401584
0.00411471
0.00419771
0.00442764
0.0048929
0.00560275
0.00647475
0.00735792
0.00808918
0.00851459
0.00853213
0.00818855
0.00766922
0.00730704
0.00710027
0.00691776
0.00661573
0.00614166
0.00556493
0.00497241
0.00443522
0.00398895
0.00363333
0.00334902
0.00311688
0.0029252
0.00276569
0.00262913
0.00250495
0.00239082
0.00230054
0.00223432
0.00221066
0.00222187
0.00220908
0.00211863
0.00197791
0.00137655
0.00148363
0.00305704
0.00496751
0.00656342
0.00781422
0.00877312
0.00938232
0.00962797
0.00954444
0.00912396
0.00845722
0.00762314
0.00691104
0.00646604
0.0061052
0.0056649
0.00512863
0.00455708
0.0040139
0.00354337
0.00316919
0.00287967
0.00265489
0.0024792
0.00234292
0.00224053
0.00216836
0.00212396
0.00210802
0.00211807
0.00214035
0.00217128
0.00220309
0.00221132
0.00215655
0.00202638
0.00183122
0.00114312
0.00198575
0.00512133
0.00765871
0.00863287
0.00912736
0.00928786
0.0090878
0.00858758
0.00789108
0.00709989
0.00634989
0.00568122
0.00514163
0.0046828
0.00422052
0.00376529
0.00336082
0.0030297
0.00277067
0.00256999
0.00240647
0.00226961
0.00215534
0.002067
0.00200577
0.00196988
0.00195723
0.00196484
0.00199776
0.00205278
0.00212644
0.00221152
0.00229159
0.00234673
0.00232915
0.00235268
0.00238393
0.00116569
0.00177708
0.00188295
0.00195791
0.00210856
0.00203962
0.00195587
0.00190148
0.00182465
0.00171433
0.00157709
0.00142246
0.00126147
0.00110494
0.000970329
0.00086853
0.000796278
0.000745179
0.00070839
0.000681683
0.000662646
0.00064981
0.000642312
0.000639635
0.00064201
0.000649878
0.000662776
0.000680602
0.000703685
0.000732581
0.000768144
0.000809424
0.000856491
0.000909844
0.000969935
0.00103627
0.00111502
0.00114055
0.00111116
0.00104352
0.000971741
)
;

boundaryField
{
    floor
    {
        type            nutkWallFunction;
        Cmu             0.09;
        kappa           0.41;
        E               9.8;
        value           nonuniform List<scalar> 
29
(
0.000144956
5.63744e-05
6.98305e-05
7.88112e-05
7.82424e-05
7.5439e-05
7.17631e-05
6.71526e-05
6.25569e-05
5.83515e-05
5.45859e-05
5.12237e-05
4.82126e-05
4.55155e-05
4.30764e-05
4.08125e-05
3.86119e-05
3.63052e-05
3.46411e-05
3.08671e-05
3.0867e-05
4.25093e-05
5.00713e-05
5.58407e-05
0.000144956
5.63744e-05
6.13713e-05
0.000123582
0.000174278
)
;
    }
    ceiling
    {
        type            nutkWallFunction;
        Cmu             0.09;
        kappa           0.41;
        E               9.8;
        value           nonuniform List<scalar> 
43
(
0.000208858
0.000220488
0.000228683
0.000245148
0.000237708
0.000228602
0.000222662
0.000214233
0.000202057
0.000186785
0.000169401
0.000151076
0.000133003
0.000117228
0.000105131
9.64457e-05
9.02473e-05
8.57535e-05
8.2474e-05
8.01268e-05
7.85397e-05
7.76108e-05
7.72789e-05
7.75734e-05
7.85481e-05
8.01428e-05
8.23408e-05
8.51767e-05
8.87114e-05
9.3039e-05
9.80327e-05
0.00010369
0.00011006
0.000117182
0.000124986
0.000134177
0.000137141
0.000133728
0.000125836
0.000117396
0.000345494
0.000404059
0.00023159
)
;
    }
    sWall
    {
        type            nutkWallFunction;
        Cmu             0.09;
        kappa           0.41;
        E               9.8;
        value           uniform 0.000208915;
    }
    nWall
    {
        type            nutkWallFunction;
        Cmu             0.09;
        kappa           0.41;
        E               9.8;
        value           nonuniform List<scalar> 6(9.53655e-05 9.95099e-05 0.000113518 0.000137448 0.000140061 0.000117401);
    }
    sideWalls
    {
        type            empty;
    }
    glass1
    {
        type            nutkWallFunction;
        Cmu             0.09;
        kappa           0.41;
        E               9.8;
        value           nonuniform List<scalar> 9(0.000130172 0.00017512 0.000211505 0.000245757 0.000280134 0.000316062 0.000348349 0.000354575 0.000345918);
    }
    glass2
    {
        type            nutkWallFunction;
        Cmu             0.09;
        kappa           0.41;
        E               9.8;
        value           nonuniform List<scalar> 2(0.000174215 0.000164265);
    }
    sun
    {
        type            nutkWallFunction;
        Cmu             0.09;
        kappa           0.41;
        E               9.8;
        value           nonuniform List<scalar> 
14
(
0.000130072
0.000141649
0.00014418
0.000150815
0.000156928
0.000162623
0.000168183
0.000173601
0.000177417
0.000179027
0.000177868
0.00017358
0.000166117
0.000156066
)
;
    }
    heatsource1
    {
        type            nutkWallFunction;
        Cmu             0.09;
        kappa           0.41;
        E               9.8;
        value           nonuniform List<scalar> 3(6.97369e-05 8.48978e-05 9.53653e-05);
    }
    heatsource2
    {
        type            nutkWallFunction;
        Cmu             0.09;
        kappa           0.41;
        E               9.8;
        value           nonuniform List<scalar> 4(0.000147641 8.7952e-05 8.7952e-05 0.00014677);
    }
    Table_master
    {
        type            nutkWallFunction;
        Cmu             0.09;
        kappa           0.41;
        E               9.8;
        value           nonuniform List<scalar> 9(9.686e-05 8.54984e-05 7.62449e-05 6.86827e-05 6.24495e-05 5.72616e-05 5.29134e-05 4.92755e-05 4.63004e-05);
    }
    Table_slave
    {
        type            nutkWallFunction;
        Cmu             0.09;
        kappa           0.41;
        E               9.8;
        value           nonuniform List<scalar> 9(0.000109161 9.94966e-05 9.25095e-05 8.7145e-05 8.25619e-05 7.83376e-05 7.42581e-05 6.9951e-05 6.4917e-05);
    }
    inlet
    {
        type            calculated;
        value           uniform 0.000100623;
    }
    outlet
    {
        type            calculated;
        value           nonuniform List<scalar> 2(0.00177708 0.00188295);
    }
}


// ************************************************************************* //
