// -*- C++ -*-
// File generated by PyFoam - sorry for the ugliness

FoamFile
{
 version 2.0;
 format ascii;
 class volVectorField;
 location "1700";
 object U;
}

dimensions [ 0 1 -1 0 0 0 0 ];

internalField nonuniform List<vector> 459
(
  (0.0330852 0.08542 0)
  (-0.166037 0.0256322 0)
  (-0.190566 0.0178402 0)
  (-0.221162 0.0123399 0)
  (-0.243501 0.00632844 0)
  (-0.256749 2.46874e-05 0)
  (-0.259578 -0.00662776 0)
  (-0.250763 -0.0136329 0)
  (-0.230959 -0.0205259 0)
  (-0.201603 -0.0262569 0)
  (-0.165669 -0.029984 0)
  (-0.126566 -0.0314392 0)
  (-0.0875407 -0.0311507 0)
  (-0.0533582 -0.0307738 0)
  (-0.0377234 -0.0320514 0)
  (-0.0025586 0.00740728 0)
  (-0.0223091 -0.017496 0)
  (0.00139628 -0.0261878 0)
  (0.0222312 -0.0193908 0)
  (0.0378824 -0.0130089 0)
  (0.0494314 -0.0082932 0)
  (0.0562438 -0.00497051 0)
  (0.0596396 -0.00323464 0)
  (0.0611822 -0.0024824 0)
  (0.0619934 -0.00212582 0)
  (0.0625113 -0.00189374 0)
  (0.0627838 -0.00169984 0)
  (0.0627467 -0.00146849 0)
  (0.0621959 -0.00101851 0)
  (0.0605618 3.1236e-05 0)
  (0.0566393 0.00222379 0)
  (0.0491073 0.00460453 0)
  (0.0413358 0.00665614 0)
  (-0.0104939 0.0203485 0)
  (0.205471 0.174531 0)
  (-0.154291 0.0670771 0)
  (-0.152551 0.0521278 0)
  (-0.183794 0.040677 0)
  (-0.205604 0.0278692 0)
  (-0.21881 0.0136966 0)
  (-0.222069 -0.00210267 0)
  (-0.213957 -0.0190968 0)
  (-0.195657 -0.0351773 0)
  (-0.168979 -0.0478408 0)
  (-0.137124 -0.0553003 0)
  (-0.103505 -0.057086 0)
  (-0.0713455 -0.053879 0)
  (-0.0444016 -0.0472649 0)
  (-0.027292 -0.0384164 0)
  (-0.0137202 -0.0188449 0)
  (-0.00719591 0.0131906 0)
  (0.0601645 0.0312584 0)
  (0.0315539 -0.0198223 0)
  (0.0385448 -0.0305087 0)
  (0.0492783 -0.0258236 0)
  (0.0576709 -0.0177411 0)
  (0.0632088 -0.0103718 0)
  (0.0653833 -0.00427393 0)
  (0.0656896 -0.000894804 0)
  (0.0656026 0.000554555 0)
  (0.0656833 0.00121862 0)
  (0.0658449 0.00163933 0)
  (0.065962 0.00201401 0)
  (0.0659918 0.00248958 0)
  (0.065879 0.00341974 0)
  (0.0650918 0.00570623 0)
  (0.0612131 0.0120194 0)
  (0.0514622 0.0174025 0)
  (0.0451739 0.0212275 0)
  (-0.0440281 0.0439659 0)
  (0.36341 0.260796 0)
  (-0.170067 0.106379 0)
  (-0.113949 0.083884 0)
  (-0.143749 0.0635147 0)
  (-0.162716 0.0425006 0)
  (-0.174546 0.0195746 0)
  (-0.177079 -0.0060446 0)
  (-0.168062 -0.0331853 0)
  (-0.149745 -0.0580905 0)
  (-0.124699 -0.0767041 0)
  (-0.096409 -0.0866312 0)
  (-0.0678412 -0.0877523 0)
  (-0.0412885 -0.0812253 0)
  (-0.0189608 -0.0686124 0)
  (-0.00269305 -0.0509517 0)
  (0.00976626 -0.0253283 0)
  (0.0165088 0.00900291 0)
  (0.105536 -0.0392446 0)
  (0.0728879 -0.0431273 0)
  (0.0689426 -0.0393578 0)
  (0.0711132 -0.0314942 0)
  (0.0726443 -0.022349 0)
  (0.073455 -0.0146915 0)
  (0.0717223 -0.0119827 0)
  (0.0677458 -0.00858077 0)
  (0.0650098 -0.00673756 0)
  (0.0637723 -0.0056935 0)
  (0.0632251 -0.00503285 0)
  (0.0629561 -0.00456839 0)
  (0.0630005 -0.00412252 0)
  (0.0638258 -0.00332436 0)
  (0.0666407 -0.000202604 0)
  (0.0645904 0.0169945 0)
  (0.0513284 0.0291877 0)
  (0.0508333 0.0378063 0)
  (-0.0735604 0.0690329 0)
  (0.505493 0.329979 0)
  (-0.203481 0.141025 0)
  (-0.0737249 0.110436 0)
  (-0.101285 0.0824096 0)
  (-0.114413 0.0554631 0)
  (-0.122276 0.0254901 0)
  (-0.121129 -0.00960249 0)
  (-0.108786 -0.0472646 0)
  (-0.0896508 -0.0802129 0)
  (-0.0669915 -0.103212 0)
  (-0.0440274 -0.114064 0)
  (-0.0225551 -0.113778 0)
  (-0.00335361 -0.104153 0)
  (0.0130279 -0.0869303 0)
  (0.0264409 -0.0650074 0)
  (0.0407814 -0.0390194 0)
  (0.0628757 -0.0124127 0)
  (0.0933956 1.64528e-05 0)
  (0.101059 -0.0329704 0)
  (0.0875189 -0.0382335 0)
  (0.0789707 -0.0339999 0)
  (0.0748163 -0.0277095 0)
  (0.0721096 -0.0203257 0)
  (0.0708358 -0.0117732 0)
  (0.0725836 -0.0069086 0)
  (0.0766819 -0.00546416 0)
  (0.0800716 -0.00465492 0)
  (0.0823725 -0.00402624 0)
  (0.0837804 -0.00320998 0)
  (0.0837314 -0.00194977 0)
  (0.0811594 -2.36135e-05 0)
  (0.0748258 0.0028418 0)
  (0.061953 0.00717872 0)
  (0.0510102 0.0273963 0)
  (0.0403437 0.0441701 0)
  (0.0537571 0.0576664 0)
  (-0.104084 0.0918083 0)
  (0.627501 0.38348 0)
  (-0.244276 0.169252 0)
  (-0.0346751 0.125091 0)
  (-0.0572062 0.0925906 0)
  (-0.0619605 0.0623355 0)
  (-0.0627141 0.0274742 0)
  (-0.0517976 -0.0162581 0)
  (-0.0338855 -0.0631874 0)
  (-0.0149609 -0.100719 0)
  (0.00274149 -0.124491 0)
  (0.0172326 -0.133198 0)
  (0.0285997 -0.129896 0)
  (0.0373653 -0.117625 0)
  (0.0442436 -0.0989174 0)
  (0.0503714 -0.0764377 0)
  (0.0577209 -0.0528354 0)
  (0.0688817 -0.0335548 0)
  (0.0793349 -0.0289012 0)
  (0.0809143 -0.0346883 0)
  (0.0743856 -0.0334426 0)
  (0.0663867 -0.0284708 0)
  (0.0602874 -0.0229002 0)
  (0.0559972 -0.0171715 0)
  (0.0537278 -0.0113064 0)
  (0.0538423 -0.00619944 0)
  (0.0559844 -0.00386112 0)
  (0.0583696 -0.00302278 0)
  (0.0606902 -0.00232255 0)
  (0.0628474 -0.000820346 0)
  (0.06446 0.00203868 0)
  (0.064355 0.00637752 0)
  (0.0619433 0.0123343 0)
  (0.0565383 0.0205636 0)
  (0.0499807 0.0359517 0)
  (0.040965 0.0544291 0)
  (0.062014 0.0748691 0)
  (-0.0172264 0.104017 0)
  (0.0455818 0.0340562 0)
  (-0.0610668 -0.0342445 0)
  (-0.268967 -0.0565442 0)
  (0.715187 0.428024 0)
  (-0.283589 0.188072 0)
  (-0.00560927 0.119923 0)
  (-0.0117887 0.0916918 0)
  (-0.00496548 0.0623444 0)
  (0.00525713 0.0207658 0)
  (0.0339517 -0.0335705 0)
  (0.0550341 -0.0817813 0)
  (0.0698712 -0.116159 0)
  (0.0784215 -0.13532 0)
  (0.0814583 -0.140465 0)
  (0.0804703 -0.134313 0)
  (0.076827 -0.119897 0)
  (0.0719351 -0.100202 0)
  (0.0672727 -0.0781246 0)
  (0.0642022 -0.0563509 0)
  (0.0636117 -0.0386013 0)
  (0.0631376 -0.0294475 0)
  (0.0591056 -0.0270739 0)
  (0.0515014 -0.0248818 0)
  (0.0432791 -0.0212464 0)
  (0.036703 -0.0172599 0)
  (0.0321945 -0.0133976 0)
  (0.0299215 -0.00973126 0)
  (0.0298624 -0.00691397 0)
  (0.0315415 -0.00598582 0)
  (0.034031 -0.00597877 0)
  (0.0369958 -0.00570987 0)
  (0.0402749 -0.00420694 0)
  (0.0436493 -0.000609587 0)
  (0.0466287 0.00536328 0)
  (0.0481849 0.013372 0)
  (0.0485315 0.023628 0)
  (0.0490814 0.0379013 0)
  (0.0483937 0.0557886 0)
  (0.0704043 0.0785729 0)
  (0.052292 0.0970241 0)
  (0.0915778 0.068161 0)
  (0.114534 0.0445807 0)
  (-0.127927 -0.00711377 0)
  (0.768011 0.468641 0)
  (-0.30216 0.17345 0)
  (0.0220682 0.0677298 0)
  (0.0494807 0.0629808 0)
  (0.0701689 0.0440252 0)
  (0.103062 -0.0035762 0)
  (0.134838 -0.0572447 0)
  (0.153183 -0.0982879 0)
  (0.159229 -0.124064 0)
  (0.155053 -0.135549 0)
  (0.143283 -0.13489 0)
  (0.126779 -0.124932 0)
  (0.10808 -0.108576 0)
  (0.0893411 -0.0887421 0)
  (0.0723167 -0.0680148 0)
  (0.0581147 -0.0484573 0)
  (0.0472461 -0.0327187 0)
  (0.0385992 -0.023167 0)
  (0.0301862 -0.0188431 0)
  (0.0216473 -0.0164482 0)
  (0.0139883 -0.0141445 0)
  (0.00817853 -0.0119908 0)
  (0.00441147 -0.0101566 0)
  (0.00268123 -0.00867434 0)
  (0.00282268 -0.00789451 0)
  (0.00433237 -0.00817405 0)
  (0.00659408 -0.00890474 0)
  (0.00939517 -0.00923122 0)
  (0.0127862 -0.00829187 0)
  (0.0168982 -0.00507746 0)
  (0.022668 0.00138987 0)
  (0.0283866 0.0101649 0)
  (0.0338294 0.0205194 0)
  (0.0408212 0.033119 0)
  (0.0486394 0.0477134 0)
  (0.0704262 0.0660446 0)
  (0.0840681 0.0742909 0)
  (0.115972 0.0522981 0)
  (0.15545 0.043985 0)
  (-0.0359463 0.0926429 0)
  (0.872784 0.469999 0)
  (-0.0644339 0.152118 0)
  (0.109965 -0.0138912 0)
  (0.181721 -0.0410826 0)
  (0.212313 -0.0527511 0)
  (0.243805 -0.0752742 0)
  (0.261604 -0.0975619 0)
  (0.262411 -0.113431 0)
  (0.247812 -0.120914 0)
  (0.221885 -0.120062 0)
  (0.189124 -0.112105 0)
  (0.153565 -0.0988558 0)
  (0.118354 -0.0820707 0)
  (0.0858848 -0.0639403 0)
  (0.0577719 -0.0463836 0)
  (0.0346371 -0.0306011 0)
  (0.0172729 -0.0187359 0)
  (0.00475467 -0.0120853 0)
  (-0.00484144 -0.0094764 0)
  (-0.0121695 -0.00869167 0)
  (-0.0179773 -0.00827193 0)
  (-0.0221986 -0.00804404 0)
  (-0.0249447 -0.00803653 0)
  (-0.0263683 -0.00829558 0)
  (-0.0267033 -0.00895211 0)
  (-0.0263546 -0.0100555 0)
  (-0.0257095 -0.0113172 0)
  (-0.0248775 -0.0122837 0)
  (-0.0237001 -0.0124517 0)
  (-0.0217785 -0.011223 0)
  (-0.018131 -0.00785038 0)
  (-0.00950515 -0.00167409 0)
  (-0.00122833 0.00630638 0)
  (0.00928127 0.0144352 0)
  (0.0209342 0.0214375 0)
  (0.0406388 0.0286874 0)
  (0.0595652 0.0221617 0)
  (0.0794687 -0.00484399 0)
  (0.138021 0.0392515 0)
  (-0.405029 0.20267 0)
  (1.01967 0.423079 0)
  (0.485094 0.279603 0)
  (0.499953 0.183076 0)
  (0.526377 0.111786 0)
  (0.507391 0.0604612 0)
  (0.465492 0.0132903 0)
  (0.416744 -0.026022 0)
  (0.363186 -0.0529376 0)
  (0.305111 -0.0666746 0)
  (0.245425 -0.0692451 0)
  (0.187594 -0.0640257 0)
  (0.134213 -0.0541798 0)
  (0.0868526 -0.0415876 0)
  (0.0470743 -0.0284701 0)
  (0.014964 -0.0166338 0)
  (-0.0105071 -0.00714621 0)
  (-0.0254839 -0.00289846 0)
  (-0.0347209 -0.00184733 0)
  (-0.0409222 -0.00234001 0)
  (-0.045723 -0.00332904 0)
  (-0.0496404 -0.00434125 0)
  (-0.0528153 -0.00533586 0)
  (-0.0553623 -0.00634187 0)
  (-0.0574508 -0.00739789 0)
  (-0.0593257 -0.0085394 0)
  (-0.061334 -0.00974345 0)
  (-0.0638261 -0.0108168 0)
  (-0.0670996 -0.0113929 0)
  (-0.0714674 -0.0109379 0)
  (-0.0773488 -0.00874158 0)
  (-0.0852777 -0.00398299 0)
  (-0.0952094 0.00387831 0)
  (-0.105337 0.0143274 0)
  (-0.120125 0.027593 0)
  (-0.143337 0.0438098 0)
  (-0.177481 0.0619194 0)
  (-0.22589 0.0780751 0)
  (-0.281539 0.0897225 0)
  (-0.349501 0.0968024 0)
  (-0.609152 0.0998854 0)
  (-0.150876 0.00199498 0)
  (0.121381 0.0017467 0)
  (0.200528 -0.0316031 0)
  (0.187519 -0.0417283 0)
  (0.171442 -0.0398737 0)
  (0.149366 -0.0350803 0)
  (0.119922 -0.0289411 0)
  (0.0861849 -0.0216048 0)
  (0.0516667 -0.0135409 0)
  (0.0168196 -0.00536316 0)
  (-0.016676 0.00224048 0)
  (-0.0390751 0.00654859 0)
  (-0.0545376 0.00888964 0)
  (-0.0637868 0.00939328 0)
  (-0.0689018 0.00856951 0)
  (-0.0724501 0.00764968 0)
  (-0.0752498 0.00689966 0)
  (-0.0777191 0.00632158 0)
  (-0.080186 0.00583301 0)
  (-0.0827838 0.0051747 0)
  (-0.0854916 0.00441105 0)
  (-0.0883959 0.00355617 0)
  (-0.0916225 0.00267296 0)
  (-0.0953103 0.00188473 0)
  (-0.099535 0.00142865 0)
  (-0.104294 0.00161866 0)
  (-0.109514 0.00279209 0)
  (-0.115016 0.00525984 0)
  (-0.120186 0.00954765 0)
  (-0.124297 0.0165484 0)
  (-0.127709 0.0273719 0)
  (-0.130638 0.042398 0)
  (-0.133751 0.0608173 0)
  (-0.137483 0.0792199 0)
  (-0.138783 0.0881079 0)
  (-0.121364 0.0670276 0)
  (-0.0784555 -0.023102 0)
  (-0.274014 -0.198326 0)
  (0.0154281 0.194633 0)
  (0.0413009 0.0703813 0)
  (0.000377358 0.00593201 0)
  (-0.0126192 -0.00216361 0)
  (-0.025959 -0.000199151 0)
  (-0.0408711 9.01604e-05 0)
  (-0.0571424 0.00118178 0)
  (-0.0726411 0.00343601 0)
  (-0.0848714 0.00556619 0)
  (-0.0916045 0.00592987 0)
  (-0.0959166 0.00402708 0)
  (-0.0977002 3.58485e-05 0)
  (-0.097994 -0.00448634 0)
  (-0.0974411 -0.00934457 0)
  (-0.0969441 -0.0145367 0)
  (-0.0970371 -0.0196016 0)
  (-0.0977511 -0.0242623 0)
  (-0.098996 -0.0282631 0)
  (-0.100649 -0.0314046 0)
  (-0.102629 -0.0335734 0)
  (-0.104993 -0.0349158 0)
  (-0.107647 -0.0353887 0)
  (-0.110492 -0.0349347 0)
  (-0.113438 -0.03374 0)
  (-0.116369 -0.0318513 0)
  (-0.119056 -0.0290512 0)
  (-0.121129 -0.0249271 0)
  (-0.122114 -0.0188729 0)
  (-0.121581 -0.010964 0)
  (-0.118649 -0.000888879 0)
  (-0.111957 0.0120795 0)
  (-0.100229 0.0285893 0)
  (-0.0830268 0.0481506 0)
  (-0.0611021 0.0668445 0)
  (-0.0373185 0.0777512 0)
  (0.00251028 0.0618839 0)
  (0.14273 -0.00825091 0)
  (-0.204923 -0.108509 0)
  (-0.0435076 -0.319853 0)
  (-0.413199 -0.1232 0)
  (-0.301242 0.064367 0)
  (-0.249798 -0.0172692 0)
  (-0.209987 -0.0226885 0)
  (-0.198719 -0.011709 0)
  (-0.194258 -0.00205886 0)
  (-0.19079 0.00593393 0)
  (-0.186275 0.013434 0)
  (-0.179807 0.0208906 0)
  (-0.171213 0.028387 0)
  (-0.160806 0.0358284 0)
  (-0.149729 0.0430503 0)
  (-0.13914 0.0500396 0)
  (-0.129832 0.0570684 0)
  (-0.122078 0.0640839 0)
  (-0.115918 0.0710352 0)
  (-0.111183 0.0777073 0)
  (-0.107633 0.0837057 0)
  (-0.105065 0.0886522 0)
  (-0.103298 0.0922931 0)
  (-0.102179 0.0944736 0)
  (-0.101621 0.0952689 0)
  (-0.101584 0.0946218 0)
  (-0.102023 0.0925 0)
  (-0.102857 0.0892932 0)
  (-0.103958 0.0853123 0)
  (-0.10511 0.0806623 0)
  (-0.105934 0.0753964 0)
  (-0.105758 0.0696179 0)
  (-0.103321 0.0645877 0)
  (-0.0967902 0.0612214 0)
  (-0.0837975 0.0604112 0)
  (-0.0625506 0.0631152 0)
  (-0.0335102 0.0698318 0)
  (0.0121889 0.0796529 0)
  (0.055139 0.0805763 0)
  (0.0959027 0.0678464 0)
  (0.160938 0.0421791 0)
  (-0.231906 -0.00791092 0)
)
;

boundaryField
{
  floor
  {
    type noSlip;
  }
  ceiling
  {
    type noSlip;
  }
  sWall
  {
    type noSlip;
  }
  nWall
  {
    type noSlip;
  }
  sideWalls
  {
    type empty;
  }
  glass1
  {
    type noSlip;
  }
  glass2
  {
    type noSlip;
  }
  sun
  {
    type noSlip;
  }
  heatsource1
  {
    type noSlip;
  }
  heatsource2
  {
    type noSlip;
  }
  Table_master
  {
    type noSlip;
  }
  Table_slave
  {
    type noSlip;
  }
  inlet
  {
    type fixedValue;
    value uniform (0.277164 -0.114805 0);
  }
  outlet
  {
    type zeroGradient;
  }
} 	// ************************************************************************* //

