/*--------------------------------*- C++ -*----------------------------------*\
  =========                 |
  \\      /  F ield         | OpenFOAM: The Open Source CFD Toolbox
   \\    /   O peration     | Website:  https://openfoam.org
    \\  /    A nd           | Version:  6
     \\/     M anipulation  |
\*---------------------------------------------------------------------------*/
FoamFile
{
    version     2.0;
    format      ascii;
    class       surfaceScalarField;
    location    "1700";
    object      phi;
}
// * * * * * * * * * * * * * * * * * * * * * * * * * * * * * * * * * * * * * //

dimensions      [1 0 -1 0 0 0 0];

internalField   nonuniform List<scalar> 
852
(
-0.00293599
0.00299224
-0.00397347
0.00103748
-0.00476188
0.000788406
-0.00537882
0.000616941
-0.00579514
0.000416322
-0.00598822
0.00019308
-0.00593618
-5.20388e-05
-0.00562136
-0.000314825
-0.00505577
-0.000565583
-0.00429102
-0.000764756
-0.00340759
-0.000883433
-0.00249431
-0.000913274
-0.00162612
-0.00086819
-0.000825214
-0.00080091
-0.000823773
-0.000674496
0.000677184
-0.000343216
-0.00033128
0.000264565
-0.000607781
0.00073695
-0.000472386
0.00104975
-0.000312798
0.00124368
-0.000193934
0.00134887
-0.000105188
0.00140106
-5.2197e-05
0.00143045
-2.93892e-05
0.00144833
-1.78775e-05
0.00145818
-9.85216e-06
0.0014611
-2.9191e-06
0.00145513
5.97019e-06
0.00143187
2.32622e-05
0.00136887
6.29985e-05
0.00122843
0.000140437
0.000996063
0.000232367
0.000705832
0.000290231
0.000709447
-0.00209446
0.00523818
-0.00309907
0.00204209
-0.00390444
0.00159377
-0.00450819
0.00122069
-0.00491465
0.000822782
-0.00511027
0.000388703
-0.00506981
-9.25036e-05
-0.00477859
-0.000606043
-0.00425967
-0.00108451
-0.00357416
-0.00145026
-0.00280417
-0.00165343
-0.00203031
-0.00168713
-0.00132495
-0.00157355
-0.000776507
-0.00134935
-0.000573105
-0.00102718
-7.82349e-05
-0.000494921
-7.82867e-05
0.000381046
0.000303791
0.000804315
-0.00075455
0.00105202
-0.000855491
0.00126001
-0.000680375
0.0014144
-0.000467187
0.00150431
-0.000283841
0.00151806
-0.000118943
0.00152181
-5.59482e-05
0.00152634
-3.3912e-05
0.00153012
-2.16649e-05
0.00153266
-1.23906e-05
0.00153391
-4.16807e-06
0.001533
6.87993e-06
0.00152637
2.98912e-05
0.00148522
0.000104149
0.00131037
0.000315287
0.00100826
0.000534475
0.000627511
0.000670979
0.00134627
-0.00146587
0.0069357
-0.00232881
0.00290503
-0.00303705
0.00230201
-0.00354815
0.00173179
-0.00389795
0.00117259
-0.00406857
0.000559316
-0.00401533
-0.000145741
-0.00371587
-0.000905502
-0.00321479
-0.00158559
-0.00258777
-0.00207728
-0.00191654
-0.00232465
-0.00126543
-0.00233825
-0.000685304
-0.00215367
-0.000227867
-0.00180679
7.67348e-05
-0.00133178
0.000277788
-0.000695975
0.000199501
0.00148231
-0.0011705
0.00169616
-0.000968402
0.00167548
-0.000834817
0.00167608
-0.000680969
0.00169766
-0.000488766
0.00170818
-0.000294368
0.00158939
0.0015336
0.00149984
0.00147833
0.00146609
0.00146207
0.0014691
0.00149915
0.00160345
0.00132295
0.000595787
0.000982088
0.000875336
0.000548719
0.00110435
0.00190919
-0.00102382
0.00825943
-0.00170564
0.00358685
-0.00216678
0.00276316
-0.00249395
0.00205896
-0.00271766
0.0013963
-0.00280597
0.000647624
-0.00268414
-0.000267565
-0.00233931
-0.00125034
-0.00185465
-0.00207025
-0.00131352
-0.00261841
-0.000783153
-0.00285502
-0.000299365
-0.00282204
0.000119977
-0.00257302
0.000469644
-0.00215646
0.00077653
-0.00163866
0.00114484
-0.00106429
0.00190337
-0.00055903
0.00243899
-0.000528339
0.00203694
-0.000768446
0.00191078
-0.000842249
0.00180208
-0.000726115
0.00170982
-0.000588706
0.00166044
-0.000439391
0.00164218
-0.000276108
0.0017561
-0.00011407
0.00182889
-7.29461e-05
0.00188807
-5.93347e-05
0.00193384
-4.59256e-05
0.00195223
-1.85358e-05
0.00192213
2.99477e-05
0.00181883
0.000103146
0.00161001
0.000208666
0.00124163
0.000368219
0.0011107
0.000726722
0.000824019
0.00116202
0.000386189
0.00154218
0.002314
-0.000717942
0.00933526
-0.00123447
0.00410338
-0.00132124
0.00284992
-0.00137284
0.00211056
-0.00139401
0.00141747
-0.00130544
0.000559054
-0.00102623
-0.000546777
-0.000617932
-0.00165863
-0.00018622
-0.00250197
0.00020242
-0.00300705
0.000521051
-0.00317365
0.000766952
-0.00306794
0.000952972
-0.00275904
0.00110736
-0.00231085
0.0012606
-0.0017919
0.00146414
-0.00126782
0.00174821
-0.000843108
0.00188588
-0.000666009
0.0017889
-0.000671464
0.00161507
-0.000668423
0.00146946
-0.000580506
0.00135109
-0.000470332
0.00127069
-0.000358988
0.00124123
-0.000246655
0.00128341
-0.000156253
0.00133164
-0.000121172
0.00138474
-0.000112437
0.00143926
-0.000100444
0.00148463
-6.39026e-05
0.00150126
1.33141e-05
0.00146864
0.00013576
0.00137489
0.000302417
0.00122076
0.000522355
0.00108622
0.000861255
0.000941896
0.00130634
0.000622018
0.00186205
0.000548729
0.00238729
-0.000969931
0.00151846
-0.00143236
0.000462221
-0.00138536
-0.000626708
0.0103688
-0.000980293
0.00445696
-0.000553399
0.00242303
-0.000187743
0.0017449
9.37279e-05
0.001136
0.000482792
0.000169989
0.000980575
-0.00104456
0.001401
-0.00207906
0.00168685
-0.00278782
0.00183386
-0.00315406
0.0018714
-0.00321119
0.00182795
-0.00302449
0.00173368
-0.00266477
0.00162469
-0.00220185
0.00153398
-0.0017012
0.00148721
-0.00122105
0.00147854
-0.000834436
0.00142445
-0.000611923
0.00128105
-0.000528068
0.00109175
-0.000479116
0.00092555
-0.000414308
0.000799219
-0.000344002
0.00071865
-0.000278418
0.00069129
-0.000219296
0.000714044
-0.000179008
0.0007627
-0.000169829
0.000826543
-0.00017628
0.00090096
-0.000174862
0.00098038
-0.000143322
0.00105284
-5.91504e-05
0.00110066
8.79387e-05
0.00111959
0.000283494
0.00111763
0.000524309
0.00114208
0.000836804
0.00124056
0.00120786
0.00142627
0.00167634
0.00186856
0.001945
0.00212934
0.00125768
0.00174118
0.000850379
0.000412392
-0.000681064
0.0115009
-0.00055991
0.00433581
0.000576112
0.00128701
0.00137172
0.000949291
0.00205664
0.000451082
0.0027573
-0.000530677
0.00330086
-0.00158812
0.00358745
-0.00236565
0.00362175
-0.00282212
0.00344919
-0.0029815
0.00313183
-0.00289384
0.00273084
-0.0026235
0.00229944
-0.00223337
0.00188435
-0.00178676
0.00152101
-0.00133786
0.00122555
-0.000925595
0.000996519
-0.000605406
0.000798776
-0.000414181
0.000599597
-0.000328889
0.000410153
-0.000289672
0.000255392
-0.000259548
0.000145064
-0.000233674
8.02908e-05
-0.000213645
6.13679e-05
-0.000200374
8.16484e-05
-0.000199289
0.000126218
-0.000214398
0.000185777
-0.00023584
0.000259334
-0.000248419
0.00035103
-0.000235019
0.000465779
-0.0001739
0.000591261
-3.7544e-05
0.000716861
0.000157894
0.000853517
0.000387653
0.00103905
0.000651268
0.00132164
0.000925279
0.00176278
0.0012352
0.00242895
0.00127883
0.00296967
0.000716949
0.00299322
0.00082683
0.0034668
0.00259536
0.0094102
0.00330044
0.00363072
0.00370326
0.000884196
0.0043929
0.000259647
0.00520755
-0.000363568
0.00583633
-0.00115946
0.00605713
-0.00180891
0.00589869
-0.00220721
0.00543782
-0.00236125
0.00476672
-0.0023104
0.00398079
-0.0021079
0.00316407
-0.00180678
0.00237806
-0.00144736
0.00167179
-0.0010805
0.00107808
-0.00074415
0.000603409
-0.00045092
0.000253032
-0.000255029
-1.67328e-06
-0.000159476
-0.000197505
-0.000133058
-0.000351198
-0.00013598
-0.000467384
-0.000143362
-0.000548308
-0.000152751
-0.000597514
-0.00016444
-0.000618583
-0.000179305
-0.000618191
-0.000199682
-0.000606357
-0.000226233
-0.000588835
-0.000253363
-0.000564697
-0.000272557
-0.000525624
-0.000274093
-0.0004529
-0.000246624
-0.000317426
-0.000173018
-0.000135055
-2.44777e-05
7.92962e-05
0.000173301
0.000349146
0.000381418
0.000685903
0.000588521
0.00113008
0.000791024
0.00161848
0.00079043
0.00182596
0.000509467
0.00108524
0.00156755
0.00480156
0.00996381
0.0135865
0.0124559
0.00201484
0.0117487
0.000966795
0.0110926
0.000292551
0.010212
-0.000278889
0.00906649
-0.00066339
0.0077607
-0.000901425
0.00638884
-0.000989389
0.00502449
-0.000946053
0.00373472
-0.000818125
0.00257223
-0.000644297
0.00155799
-0.000433119
0.000716555
-0.000239064
5.48644e-05
-8.246e-05
-0.000411292
1.52361e-05
-0.000699381
3.30594e-05
-0.000878035
1.91778e-05
-0.00100465
-6.44312e-06
-0.00110633
-3.4304e-05
-0.00118932
-6.03715e-05
-0.00125631
-8.57627e-05
-0.00131097
-0.00010978
-0.00135756
-0.000132713
-0.00140267
-0.000154569
-0.0014546
-0.000174303
-0.00152089
-0.000187078
-0.00160869
-0.000184751
-0.00172663
-0.000156157
-0.00188507
-8.81858e-05
-0.00208966
3.15738e-05
-0.0023273
0.000213163
-0.00262463
0.000470624
-0.00306368
0.000820475
-0.00373605
0.00126089
-0.00470822
0.00176319
-0.00609638
0.0021786
-0.00778203
0.00219511
-0.00730841
0.00109392
-0.0022308
0.00467904
0.00351312
0.00379319
0.00185264
0.00417528
-8.95399e-05
0.00418155
-0.000285163
0.00377753
-0.000259363
0.00314666
-0.000270554
0.00239546
-0.000238196
0.00159186
-0.000142448
0.000778106
-4.37568e-06
6.48313e-06
0.000127326
-0.000632453
0.000205817
-0.00108408
0.000212567
-0.00137102
0.000204476
-0.00153474
0.000178956
-0.00163752
0.000135842
-0.00171119
9.2841e-05
-0.00177254
5.49064e-05
-0.00183038
2.35364e-05
-0.0018895
-1.25522e-06
-0.00195171
-2.35528e-05
-0.00201776
-4.37259e-05
-0.0020895
-6.0971e-05
-0.0021702
-7.3871e-05
-0.00226229
-8.22124e-05
-0.00236671
-8.26632e-05
-0.00248236
-6.90992e-05
-0.00260524
-3.32763e-05
-0.00272767
3.4245e-05
-0.00283759
0.000141488
-0.00293174
0.000307318
-0.00301788
0.000556758
-0.00310146
0.000904056
-0.00317824
0.00133767
-0.00320277
0.00178772
-0.00312229
0.00209812
-0.00275695
0.00182977
-0.00149558
-0.000167449
-0.00365435
-0.000540777
0.0041186
0.000295615
0.00101625
-8.15765e-05
0.000287651
-0.000453772
8.70313e-05
-0.000782648
6.95128e-05
-0.00114242
8.92184e-05
-0.00150845
0.000127832
-0.00182782
0.000176923
-0.00205387
0.00022167
-0.00218026
0.000253718
-0.00223744
0.000262996
-0.00226282
0.000237949
-0.00226143
0.000203084
-0.00224972
0.000167242
-0.00224646
0.000132586
-0.00225649
0.000102868
-0.00227964
7.80552e-05
-0.00231365
5.75488e-05
-0.00235546
4.05526e-05
-0.00240624
2.72298e-05
-0.00246492
1.49546e-05
-0.00252933
3.43932e-06
-0.00259681
-6.39733e-06
-0.00266525
-1.37728e-05
-0.00273085
-1.70658e-05
-0.00278674
-1.3202e-05
-0.00282205
2.03274e-06
-0.00282646
3.8653e-05
-0.00278986
0.000104883
-0.0026906
0.000208061
-0.00249741
0.000363565
-0.0021836
0.000590246
-0.00173021
0.000884281
-0.0011092
0.00116671
-0.000149545
0.00113847
0.00114449
0.000535738
0.00157993
-0.000602888
-0.00199552
-0.00723277
-0.0101337
-0.00597235
-0.00493613
-0.00463729
-0.00454332
-0.00446949
-0.00437794
-0.00424938
-0.0040731
-0.00385328
-0.00360257
-0.00334369
-0.0031109
-0.00291387
-0.0027534
-0.00262814
-0.00253303
-0.00246306
-0.00241385
-0.00238181
-0.00236323
-0.00235701
-0.00236233
-0.00237746
-0.00239989
-0.00242549
-0.00244707
-0.0024532
-0.00242248
-0.00232525
-0.00212456
-0.00176809
-0.00118465
-0.000306928
0.000853429
0.00198552
0.00251464
0.00190474
)
;

boundaryField
{
    floor
    {
        type            calculated;
        value           nonuniform List<scalar> 
29
(
0
0
0
0
0
0
0
0
0
0
0
0
0
0
0
0
0
0
0
0
-3.6156e-06
-9.31254e-06
-1.41994e-05
-1.86238e-05
-1.44092e-06
-2.68881e-06
-7.65392e-06
-8.01997e-06
-7.27552e-06
)
;
    }
    ceiling
    {
        type            calculated;
        value           nonuniform List<scalar> 
43
(
-4.54276e-05
-4.41062e-05
-4.27966e-05
-1.99688e-05
-1.11907e-05
-6.93694e-06
-4.31483e-06
-2.33498e-06
-7.28493e-07
6.36208e-07
1.85626e-06
3.00186e-06
4.11896e-06
5.15981e-06
6.0528e-06
6.77006e-06
7.32781e-06
7.75703e-06
8.08569e-06
8.33453e-06
8.51868e-06
8.6479e-06
8.72831e-06
8.75767e-06
8.73178e-06
8.65708e-06
8.53765e-06
8.37494e-06
8.17013e-06
7.92377e-06
7.6547e-06
7.37344e-06
7.08831e-06
6.81017e-06
6.55861e-06
6.34794e-06
6.38074e-06
6.61782e-06
7.00685e-06
8.23285e-06
1.10783e-05
8.03095e-06
-6.47012e-05
)
;
    }
    sWall
    {
        type            calculated;
        value           uniform -0.000274861;
    }
    nWall
    {
        type            calculated;
        value           nonuniform List<scalar> 6(-4.71977e-05 -5.65755e-05 -6.11893e-05 -7.20318e-05 -7.8908e-05 -9.90094e-05);
    }
    sideWalls
    {
        type            empty;
        value           nonuniform 0();
    }
    glass1
    {
        type            calculated;
        value           nonuniform List<scalar> 9(-5.62577e-05 -0.000151473 -0.00023165 -0.000299917 -0.000357886 -0.000406785 -0.000451058 -0.000504688 -0.000564687);
    }
    glass2
    {
        type            calculated;
        value           nonuniform List<scalar> 2(-0.000249517 -0.000276044);
    }
    sun
    {
        type            calculated;
        value           uniform 0;
    }
    heatsource1
    {
        type            calculated;
        value           nonuniform List<scalar> 3(2.03965e-07 2.0392e-07 2.03937e-07);
    }
    heatsource2
    {
        type            calculated;
        value           nonuniform List<scalar> 4(5.10994e-08 5.12216e-08 0 0);
    }
    Table_master
    {
        type            calculated;
        value           nonuniform List<scalar> 9(-1.52972e-07 -1.53054e-07 -1.53083e-07 -1.53102e-07 -1.53116e-07 -1.53126e-07 -1.53129e-07 -1.53123e-07 -1.53091e-07);
    }
    Table_slave
    {
        type            calculated;
        value           nonuniform List<scalar> 9(1.5285e-07 1.52875e-07 1.52858e-07 1.52844e-07 1.52839e-07 1.52843e-07 1.52858e-07 1.52901e-07 1.5298e-07);
    }
    inlet
    {
        type            calculated;
        value           uniform -0.00617732;
    }
    outlet
    {
        type            calculated;
        value           nonuniform List<scalar> 2(0.00755306 0.00294508);
    }
}


// ************************************************************************* //
