/*--------------------------------*- C++ -*----------------------------------*\
  =========                 |
  \\      /  F ield         | OpenFOAM: The Open Source CFD Toolbox
   \\    /   O peration     | Website:  https://openfoam.org
    \\  /    A nd           | Version:  6
     \\/     M anipulation  |
\*---------------------------------------------------------------------------*/
FoamFile
{
    version     2.0;
    format      ascii;
    class       volScalarField;
    location    "600";
    object      nut;
}
// * * * * * * * * * * * * * * * * * * * * * * * * * * * * * * * * * * * * * //

dimensions      [0 2 -1 0 0 0 0];

internalField   nonuniform List<scalar> 
459
(
0.00121573
0.00134961
0.00140187
0.00148134
0.00156125
0.00164615
0.00171085
0.00174583
0.00174546
0.00170633
0.0015743
0.00144842
0.00130066
0.00114988
0.000997149
0.000389456
0.00045024
0.000501792
0.00054775
0.000567712
0.00053535
0.000421248
0.000307653
0.00025172
0.000228643
0.000218362
0.000218065
0.000226785
0.000242975
0.000263112
0.000282425
0.000291258
0.000302206
0.000312175
0.00156868
0.00416268
0.00420064
0.00491597
0.0056037
0.00608531
0.00651542
0.00686812
0.00712322
0.0072408
0.00713277
0.00676114
0.00617813
0.00499306
0.00330464
0.00120096
0.000981724
0.000400737
0.000962086
0.00150927
0.00196208
0.00226371
0.00218649
0.0011691
0.000914768
0.000802845
0.000728816
0.00068823
0.000671575
0.000673438
0.000695215
0.000733541
0.000731459
0.000639602
0.000566135
0.000368537
0.00185847
0.00570419
0.00528418
0.00602723
0.00642855
0.00671161
0.00700721
0.00735351
0.00776027
0.0081248
0.00829884
0.00823427
0.00792703
0.007201
0.00583494
0.00368849
0.00116101
0.000444874
0.00097626
0.00143013
0.00194576
0.00244482
0.00250809
0.000759143
0.000599043
0.000485131
0.000412307
0.00036732
0.000339184
0.000321294
0.000311103
0.000310744
0.000436559
0.000549207
0.000676687
0.00039516
0.00213446
0.007056
0.00558514
0.00627336
0.00638896
0.00647065
0.0066154
0.00692843
0.00743706
0.00793515
0.00828801
0.00842984
0.00835576
0.00801712
0.00718564
0.00563449
0.00288883
0.00125322
0.00107163
0.00114867
0.0014528
0.00202854
0.00269968
0.00297352
0.000964273
0.000911002
0.000867959
0.000830702
0.000797755
0.000765724
0.000732438
0.000696264
0.000655274
0.000650186
0.000654325
0.000697186
0.000456353
0.00241765
0.00873264
0.00633711
0.00662224
0.00655945
0.00640697
0.00637938
0.0066675
0.00719063
0.00775926
0.0081872
0.00838834
0.00837874
0.00818439
0.00771978
0.0067916
0.00511068
0.00367042
0.00327418
0.00335654
0.00369976
0.00420175
0.00470642
0.0050432
0.00482656
0.00465236
0.00450371
0.00432825
0.00407471
0.00376454
0.00340776
0.00300387
0.00255746
0.00213125
0.00177098
0.00148633
0.0010798
0.000539155
0.000541669
0.000520742
0.00271755
0.0106039
0.00839208
0.00764414
0.00706606
0.00653434
0.00635161
0.00662007
0.00719967
0.00783488
0.00829669
0.00849016
0.00846005
0.00830217
0.00806869
0.00763289
0.00683791
0.00610074
0.00593229
0.00615453
0.00653167
0.00685031
0.00708005
0.00718813
0.00714431
0.00700051
0.00675285
0.00642245
0.00602239
0.00556664
0.00506854
0.00453987
0.00399559
0.00347071
0.00300157
0.0025919
0.00220644
0.0018498
0.00185972
0.000747376
0.00296331
0.0117509
0.0107873
0.00887565
0.00740913
0.00652051
0.00632842
0.00672602
0.00745974
0.00819955
0.00869019
0.0088631
0.00882869
0.0087786
0.00877497
0.00868996
0.00844131
0.0082454
0.00829792
0.00849869
0.00869743
0.00877761
0.00873096
0.00858464
0.00834951
0.00804022
0.00766833
0.00723976
0.00676173
0.00624617
0.00570839
0.00515853
0.00458804
0.00402315
0.00359017
0.00333081
0.00316354
0.00289598
0.00273706
0.000924782
0.00299803
0.00965249
0.00883443
0.00731754
0.00624056
0.00586886
0.00619557
0.00703485
0.00806199
0.00891015
0.00937473
0.00951487
0.00956445
0.00976253
0.00985108
0.00982674
0.00974745
0.00971106
0.00973984
0.00976034
0.00970078
0.00952507
0.00924217
0.00888263
0.00847253
0.00802582
0.00754816
0.00704291
0.00651165
0.00595961
0.00538352
0.00472077
0.00380618
0.002839
0.00237029
0.00217971
0.00199927
0.0018059
0.00164118
0.00097677
0.00291326
0.00338394
0.00359423
0.00364061
0.00409469
0.0051249
0.00655425
0.00806021
0.00928654
0.00995053
0.0101528
0.0104046
0.0104484
0.0103669
0.0102521
0.0101461
0.0100675
0.00999109
0.00987508
0.00967966
0.00938646
0.00900186
0.00855055
0.00806177
0.00755696
0.00704508
0.00652563
0.00599583
0.00545249
0.00489388
0.00431513
0.00369358
0.00300244
0.00238295
0.00204526
0.00186674
0.00169192
0.00150866
0.00135886
0.00120604
0.000845263
0.00302593
0.00639018
0.0086992
0.0101184
0.0108199
0.0110894
0.0107917
0.0104354
0.0101775
0.00990248
0.00962767
0.00942507
0.00929054
0.00917167
0.00900624
0.00876263
0.00844148
0.00806255
0.00765258
0.00723583
0.00682783
0.00643359
0.00604987
0.00566896
0.00528152
0.0048772
0.00444666
0.00398818
0.00351873
0.00307836
0.0027155
0.00246261
0.00229845
0.00217775
0.00209973
0.00205029
0.00132363
0.00172031
0.0070634
0.00944564
0.0103443
0.0104531
0.0100742
0.00952112
0.00894262
0.00840979
0.007973
0.00765381
0.00745124
0.00733918
0.00727627
0.00722225
0.0071458
0.00703272
0.00688529
0.00671451
0.00653293
0.00635044
0.00617266
0.00600117
0.00583429
0.00566743
0.00549264
0.00529761
0.00506595
0.00478177
0.00444066
0.00406344
0.00369733
0.00338975
0.0031457
0.00296689
0.00305185
0.00342911
0.00158148
0.00175278
0.00180824
0.00193086
0.00212986
0.00212106
0.00205761
0.00196975
0.00186421
0.0017509
0.00165454
0.00158681
0.00154587
0.00152491
0.00151726
0.00151739
0.00152071
0.00152362
0.00152378
0.00152049
0.00151424
0.00150611
0.00149718
0.00148829
0.00147984
0.00147177
0.00146362
0.00145453
0.00144323
0.00142813
0.00140755
0.00138032
0.0013466
0.00130848
0.00126967
0.00123376
0.00120041
0.00117435
0.00119102
0.00125207
0.00122997
)
;

boundaryField
{
    floor
    {
        type            nutkWallFunction;
        Cmu             0.09;
        kappa           0.41;
        E               9.8;
        value           nonuniform List<scalar> 
29
(
0.000120407
4.53426e-05
5.32908e-05
5.99248e-05
6.57656e-05
6.82822e-05
6.41896e-05
4.95106e-05
3.43889e-05
2.66829e-05
2.3437e-05
2.19751e-05
2.193e-05
2.31668e-05
2.54504e-05
2.82658e-05
3.09411e-05
3.21594e-05
3.36549e-05
3.50027e-05
3.50026e-05
4.25914e-05
4.61153e-05
5.40731e-05
0.000120407
4.53425e-05
4.68287e-05
5.25932e-05
0.000150162
)
;
    }
    ceiling
    {
        type            nutkWallFunction;
        Cmu             0.09;
        kappa           0.41;
        E               9.8;
        value           nonuniform List<scalar> 
43
(
0.000206406
0.000212479
0.000225916
0.000247613
0.000246691
0.000239818
0.000230252
0.000218693
0.000206204
0.000195514
0.000187959
0.000183377
0.000181027
0.000180169
0.000180185
0.000180559
0.000180887
0.000180907
0.000180538
0.000179837
0.000178924
0.00017792
0.000176919
0.000175967
0.000175059
0.000174141
0.000173115
0.000171839
0.000170132
0.000167801
0.00016471
0.000160871
0.000156516
0.000152065
0.000147934
0.000144088
0.00014108
0.000143016
0.000150058
0.000147522
0.000331127
0.000380077
0.000202559
)
;
    }
    sWall
    {
        type            nutkWallFunction;
        Cmu             0.09;
        kappa           0.41;
        E               9.8;
        value           uniform 0.000206455;
    }
    nWall
    {
        type            nutkWallFunction;
        Cmu             0.09;
        kappa           0.41;
        E               9.8;
        value           nonuniform List<scalar> 6(6.23142e-05 9.04889e-05 0.000111821 0.000158247 0.000187387 0.00014753);
    }
    sideWalls
    {
        type            empty;
    }
    glass1
    {
        type            nutkWallFunction;
        Cmu             0.09;
        kappa           0.41;
        E               9.8;
        value           nonuniform List<scalar> 9(0.000145978 0.000186107 0.000218298 0.00024845 0.000278959 0.000310858 0.000336725 0.00034037 0.000331499);
    }
    glass2
    {
        type            nutkWallFunction;
        Cmu             0.09;
        kappa           0.41;
        E               9.8;
        value           nonuniform List<scalar> 2(0.000117999 0.000144758);
    }
    sun
    {
        type            nutkWallFunction;
        Cmu             0.09;
        kappa           0.41;
        E               9.8;
        value           nonuniform List<scalar> 
14
(
0.00014585
0.000161171
0.000167106
0.000176085
0.00018506
0.000194541
0.000201729
0.000205602
0.000205561
0.000201227
0.000186519
0.000172373
0.00015559
0.000138244
)
;
    }
    heatsource1
    {
        type            nutkWallFunction;
        Cmu             0.09;
        kappa           0.41;
        E               9.8;
        value           nonuniform List<scalar> 3(6.46595e-05 6.49747e-05 6.23205e-05);
    }
    heatsource2
    {
        type            nutkWallFunction;
        Cmu             0.09;
        kappa           0.41;
        E               9.8;
        value           nonuniform List<scalar> 4(0.000144149 0.00011859 0.00011859 0.000139535);
    }
    Table_master
    {
        type            nutkWallFunction;
        Cmu             0.09;
        kappa           0.41;
        E               9.8;
        value           nonuniform List<scalar> 9(9.19526e-05 7.22158e-05 5.77875e-05 4.83468e-05 4.24109e-05 3.8651e-05 3.62387e-05 3.48556e-05 3.48048e-05);
    }
    Table_slave
    {
        type            nutkWallFunction;
        Cmu             0.09;
        kappa           0.41;
        E               9.8;
        value           nonuniform List<scalar> 9(0.000116537 0.000110219 0.000105082 0.000100611 9.66368e-05 9.27543e-05 8.8699e-05 8.42666e-05 7.92107e-05);
    }
    inlet
    {
        type            calculated;
        value           uniform 0.000100623;
    }
    outlet
    {
        type            calculated;
        value           nonuniform List<scalar> 2(0.00175278 0.00180824);
    }
}


// ************************************************************************* //
