// -*- C++ -*-
// File generated by PyFoam - sorry for the ugliness

FoamFile
{
 version 2.0;
 format ascii;
 class volVectorField;
 location "600";
 object U;
}

dimensions [ 0 1 -1 0 0 0 0 ];

internalField nonuniform List<vector> 459
(
  (0.00849123 0.0866427 0)
  (-0.172745 0.0283003 0)
  (-0.20501 0.0133799 0)
  (-0.230327 0.00196378 0)
  (-0.23744 -0.00991647 0)
  (-0.223753 -0.0222847 0)
  (-0.191414 -0.0345751 0)
  (-0.144408 -0.0441995 0)
  (-0.090371 -0.0496289 0)
  (-0.038415 -0.0500487 0)
  (0.0198504 -0.0367863 0)
  (0.048675 -0.0232326 0)
  (0.0661568 -0.00928579 0)
  (0.0656742 0.00824852 0)
  (0.0569344 0.0404592 0)
  (-0.0239529 0.0157335 0)
  (-0.0360738 0.00553741 0)
  (-0.0435549 -0.000958231 0)
  (-0.0409488 -0.00517191 0)
  (-0.0329694 -0.0069436 0)
  (-0.0230335 -0.00600536 0)
  (-0.0159889 -0.00200629 0)
  (-0.0120568 0.00166488 0)
  (-0.0118136 0.00207708 0)
  (-0.013963 0.00154896 0)
  (-0.0168938 0.000687488 0)
  (-0.0195865 -0.000396035 0)
  (-0.0218702 -0.00163079 0)
  (-0.0236924 -0.00276818 0)
  (-0.0242479 -0.00348364 0)
  (-0.0215222 -0.00377418 0)
  (-0.0167589 -0.00424111 0)
  (-0.0166625 -0.00786924 0)
  (-0.0386327 -0.0172298 0)
  (0.162124 0.178232 0)
  (-0.15213 0.0789449 0)
  (-0.162448 0.0516954 0)
  (-0.18861 0.0274188 0)
  (-0.196385 -6.90363e-06 0)
  (-0.183741 -0.029933 0)
  (-0.153919 -0.057353 0)
  (-0.112396 -0.0760246 0)
  (-0.0664838 -0.0835049 0)
  (-0.0233459 -0.0797202 0)
  (0.0173207 -0.0609294 0)
  (0.0439901 -0.0378427 0)
  (0.0623507 -0.0133927 0)
  (0.073116 0.0133658 0)
  (0.0795313 0.044578 0)
  (0.0788271 0.0457085 0)
  (0.0524149 0.0476427 0)
  (-0.010182 0.0302184 0)
  (-0.015086 0.0159032 0)
  (-0.0147587 0.00276711 0)
  (-0.00542997 -0.00913503 0)
  (0.000730785 -0.0136104 0)
  (0.00807176 -0.0139288 0)
  (0.00912262 -0.00999932 0)
  (0.0121957 -0.00230351 0)
  (0.0144635 0.00274546 0)
  (0.0156177 0.00483055 0)
  (0.0160121 0.00539451 0)
  (0.0159605 0.00530797 0)
  (0.0154719 0.00510146 0)
  (0.0143293 0.00516058 0)
  (0.0115545 0.00542219 0)
  (0.00411717 0.00423852 0)
  (-0.00219336 -0.00203083 0)
  (-0.00681512 -0.0104179 0)
  (-0.0250387 -0.0239119 0)
  (0.303873 0.265419 0)
  (-0.156343 0.121572 0)
  (-0.121646 0.0812431 0)
  (-0.146602 0.0408137 0)
  (-0.152922 -0.00439203 0)
  (-0.137961 -0.0521385 0)
  (-0.107907 -0.0936962 0)
  (-0.0708622 -0.11864 0)
  (-0.0328541 -0.125017 0)
  (0.00110177 -0.113932 0)
  (0.029088 -0.0887641 0)
  (0.0503202 -0.0585449 0)
  (0.0656242 -0.0269729 0)
  (0.075431 0.00515058 0)
  (0.080955 0.0357765 0)
  (0.0768218 0.0535187 0)
  (0.0628977 0.0868711 0)
  (0.00891638 0.0213732 0)
  (0.0120843 0.00129976 0)
  (0.0300244 -0.0117327 0)
  (0.0383078 -0.0179888 0)
  (0.041403 -0.018476 0)
  (0.0431862 -0.0168943 0)
  (0.0329747 -0.017777 0)
  (0.0256193 -0.0121281 0)
  (0.024465 -0.00826321 0)
  (0.0264915 -0.00568413 0)
  (0.0293138 -0.00419509 0)
  (0.0321258 -0.00341075 0)
  (0.0348623 -0.00292567 0)
  (0.0379659 -0.00225947 0)
  (0.0414872 0.000277857 0)
  (0.0428675 0.00847241 0)
  (0.0382457 0.0102019 0)
  (0.029686 0.00675369 0)
  (0.00191589 -0.0106788 0)
  (0.433751 0.334908 0)
  (-0.177978 0.157462 0)
  (-0.0806985 0.107007 0)
  (-0.102548 0.0532479 0)
  (-0.102398 -0.00881514 0)
  (-0.0802731 -0.075182 0)
  (-0.0492906 -0.128416 0)
  (-0.0188686 -0.155584 0)
  (0.00972926 -0.158108 0)
  (0.0317996 -0.140692 0)
  (0.0495091 -0.11065 0)
  (0.0632927 -0.0748706 0)
  (0.0732932 -0.038139 0)
  (0.0806677 -0.00261718 0)
  (0.0872465 0.0305696 0)
  (0.095259 0.0581357 0)
  (0.107488 0.0916377 0)
  (0.129931 0.0715526 0)
  (0.0975426 0.0360328 0)
  (0.0940026 0.0127826 0)
  (0.0931823 -0.00474578 0)
  (0.0899392 -0.014686 0)
  (0.0862298 -0.0169607 0)
  (0.0835947 -0.0137502 0)
  (0.0867491 -0.00982256 0)
  (0.0917965 -0.00691291 0)
  (0.0948914 -0.00491677 0)
  (0.0955041 -0.00342216 0)
  (0.0942657 -0.00216788 0)
  (0.0917407 -0.00108423 0)
  (0.0880797 -4.94935e-05 0)
  (0.0830631 0.00121464 0)
  (0.076627 0.00269367 0)
  (0.0686391 0.00959458 0)
  (0.0626287 0.0146454 0)
  (0.0529272 0.0189303 0)
  (0.0404816 0.0290057 0)
  (0.547875 0.387664 0)
  (-0.20948 0.184808 0)
  (-0.0422761 0.121864 0)
  (-0.0564173 0.0590279 0)
  (-0.0392993 -0.0192896 0)
  (-0.00733424 -0.101859 0)
  (0.0215108 -0.159073 0)
  (0.0414751 -0.180982 0)
  (0.0562474 -0.177883 0)
  (0.0661104 -0.15598 0)
  (0.0725007 -0.122158 0)
  (0.0764064 -0.0831027 0)
  (0.0787803 -0.0440741 0)
  (0.0812654 -0.00794591 0)
  (0.0852186 0.0240601 0)
  (0.0926167 0.0488522 0)
  (0.105298 0.0639282 0)
  (0.116571 0.0419999 0)
  (0.113974 0.02383 0)
  (0.112767 0.00763274 0)
  (0.109753 -0.00473506 0)
  (0.103781 -0.0115 0)
  (0.0971164 -0.0130149 0)
  (0.0912374 -0.0107763 0)
  (0.0875816 -0.00618802 0)
  (0.0851622 -0.00239503 0)
  (0.0822615 0.00038846 0)
  (0.0786364 0.00254601 0)
  (0.074751 0.00424974 0)
  (0.0708862 0.00561823 0)
  (0.0672588 0.00686861 0)
  (0.0641191 0.00841434 0)
  (0.0619172 0.0109449 0)
  (0.0613256 0.0154233 0)
  (0.0626839 0.0198778 0)
  (0.0655397 0.0254635 0)
  (0.0696463 0.0349607 0)
  (0.0761804 0.0253918 0)
  (0.0937667 0.0213227 0)
  (-0.148776 0.0336091 0)
  (0.635851 0.429532 0)
  (-0.243025 0.200391 0)
  (-0.0104768 0.115673 0)
  (-0.00297257 0.0462557 0)
  (0.0444638 -0.0537771 0)
  (0.0768795 -0.130856 0)
  (0.0965825 -0.1771 0)
  (0.104786 -0.192731 0)
  (0.10482 -0.183813 0)
  (0.0994536 -0.157603 0)
  (0.0914362 -0.121189 0)
  (0.0828329 -0.0808938 0)
  (0.075339 -0.0421341 0)
  (0.0704971 -0.00786603 0)
  (0.0689617 0.0204247 0)
  (0.0726713 0.0400165 0)
  (0.0820604 0.0482303 0)
  (0.0910044 0.0371633 0)
  (0.0942095 0.0235438 0)
  (0.0937602 0.0105925 0)
  (0.0903545 0.000808539 0)
  (0.0849568 -0.0046646 0)
  (0.0784982 -0.00610953 0)
  (0.0721476 -0.00463877 0)
  (0.0664878 -0.00138851 0)
  (0.0614897 0.00185382 0)
  (0.0571225 0.00440923 0)
  (0.0531078 0.00629916 0)
  (0.0494542 0.00762072 0)
  (0.0463134 0.0084453 0)
  (0.0439447 0.00888136 0)
  (0.0428044 0.00916078 0)
  (0.0436391 0.00975277 0)
  (0.0473508 0.0115117 0)
  (0.0538649 0.0147086 0)
  (0.0619863 0.0194348 0)
  (0.0698289 0.0237541 0)
  (0.072853 0.020217 0)
  (0.095625 0.0342767 0)
  (-0.118433 0.0699028 0)
  (0.707087 0.466333 0)
  (-0.258186 0.180148 0)
  (0.0346699 0.0464148 0)
  (0.0948161 -0.0260551 0)
  (0.14485 -0.101801 0)
  (0.169915 -0.15801 0)
  (0.176104 -0.187123 0)
  (0.167069 -0.190093 0)
  (0.14749 -0.172738 0)
  (0.122665 -0.142316 0)
  (0.0972853 -0.105066 0)
  (0.0743843 -0.066033 0)
  (0.0561477 -0.0302232 0)
  (0.0431297 -0.000164272 0)
  (0.0377064 0.02193 0)
  (0.0399157 0.0353774 0)
  (0.0476603 0.0397731 0)
  (0.0553423 0.0329027 0)
  (0.0593935 0.022245 0)
  (0.0597335 0.0120856 0)
  (0.0570192 0.00468967 0)
  (0.0524219 0.000751915 0)
  (0.0468217 -9.57089e-05 0)
  (0.0409667 0.00126367 0)
  (0.0357029 0.00376943 0)
  (0.0314469 0.00626108 0)
  (0.0279286 0.00822552 0)
  (0.0249557 0.00959683 0)
  (0.0224702 0.0103656 0)
  (0.0205161 0.0104632 0)
  (0.0192518 0.00976648 0)
  (0.0190745 0.00812891 0)
  (0.0208181 0.00553753 0)
  (0.0252373 0.00266505 0)
  (0.0315264 0.000901749 0)
  (0.0378987 0.000756709 0)
  (0.0433493 0.000128415 0)
  (0.0484603 -0.00014779 0)
  (0.0811026 0.0387943 0)
  (-0.113166 0.120044 0)
  (0.814786 0.454375 0)
  (-0.0199719 0.148326 0)
  (0.139638 -0.0524857 0)
  (0.250692 -0.120309 0)
  (0.282067 -0.152986 0)
  (0.277409 -0.172324 0)
  (0.253208 -0.176092 0)
  (0.215166 -0.16389 0)
  (0.168781 -0.138833 0)
  (0.120866 -0.106689 0)
  (0.0773972 -0.0720344 0)
  (0.0414718 -0.0379954 0)
  (0.0156767 -0.00905765 0)
  (-0.000578424 0.0121062 0)
  (-0.00371351 0.0243646 0)
  (-9.95451e-05 0.0310463 0)
  (0.00755461 0.0323302 0)
  (0.0147195 0.0272817 0)
  (0.0189778 0.0197992 0)
  (0.0199571 0.0128479 0)
  (0.0181722 0.00792576 0)
  (0.0145875 0.00542925 0)
  (0.0102472 0.00506492 0)
  (0.00602642 0.00612336 0)
  (0.00249993 0.00781705 0)
  (-0.000170496 0.00948945 0)
  (-0.00213247 0.0108065 0)
  (-0.00357513 0.0116537 0)
  (-0.00469025 0.0119763 0)
  (-0.00571567 0.011681 0)
  (-0.00708811 0.0107008 0)
  (-0.00957736 0.0091848 0)
  (-0.0148043 0.00781933 0)
  (-0.0268394 0.00872687 0)
  (-0.0477991 0.015449 0)
  (-0.074595 0.0287173 0)
  (-0.104913 0.0467358 0)
  (-0.13636 0.0675709 0)
  (-0.185232 0.0878097 0)
  (-0.370816 0.0982554 0)
  (0.965513 0.406545 0)
  (0.45472 0.267455 0)
  (0.475288 0.155911 0)
  (0.4843 0.0393885 0)
  (0.439094 -0.0443408 0)
  (0.366943 -0.0905435 0)
  (0.288897 -0.105388 0)
  (0.211032 -0.0983673 0)
  (0.136105 -0.0773274 0)
  (0.0696969 -0.0508843 0)
  (0.0160142 -0.0240112 0)
  (-0.0241286 -0.000273276 0)
  (-0.042329 0.0123143 0)
  (-0.0480107 0.0191623 0)
  (-0.0468851 0.0233557 0)
  (-0.041737 0.0257059 0)
  (-0.0345838 0.0256306 0)
  (-0.0281195 0.0226047 0)
  (-0.024002 0.0182661 0)
  (-0.0225255 0.0142524 0)
  (-0.0231842 0.0114549 0)
  (-0.0251201 0.0100709 0)
  (-0.0274636 0.00988082 0)
  (-0.0295557 0.0104649 0)
  (-0.0310387 0.0113901 0)
  (-0.0318479 0.012324 0)
  (-0.0321028 0.0130884 0)
  (-0.0319894 0.0136118 0)
  (-0.0317584 0.0139034 0)
  (-0.0318101 0.0140879 0)
  (-0.0328073 0.0145584 0)
  (-0.0356284 0.0161562 0)
  (-0.0412144 0.019977 0)
  (-0.0504441 0.0265518 0)
  (-0.0631931 0.035703 0)
  (-0.0780777 0.0471039 0)
  (-0.092 0.0559944 0)
  (-0.104206 0.0482017 0)
  (-0.136584 -0.000719105 0)
  (-0.238337 -0.111874 0)
  (-0.0757062 -0.116834 0)
  (0.11568 -0.121677 0)
  (0.15388 -0.110514 0)
  (0.1202 -0.0851978 0)
  (0.0750473 -0.0573386 0)
  (0.0275727 -0.0314013 0)
  (-0.0247101 -0.00608541 0)
  (-0.0609725 0.00796551 0)
  (-0.0834494 0.015957 0)
  (-0.0929737 0.0194591 0)
  (-0.0952483 0.0207138 0)
  (-0.0934924 0.0216743 0)
  (-0.0891553 0.0225516 0)
  (-0.0832248 0.0230854 0)
  (-0.0767765 0.0227663 0)
  (-0.0711849 0.0213367 0)
  (-0.0673058 0.0194277 0)
  (-0.0651985 0.0177489 0)
  (-0.0644214 0.0166942 0)
  (-0.0643585 0.0163397 0)
  (-0.0644501 0.0165756 0)
  (-0.0643118 0.0172152 0)
  (-0.0637594 0.0180723 0)
  (-0.062774 0.0190083 0)
  (-0.0614327 0.0199573 0)
  (-0.0598501 0.0209278 0)
  (-0.0581622 0.0220169 0)
  (-0.0565266 0.0234388 0)
  (-0.0550771 0.0255547 0)
  (-0.0537581 0.0288292 0)
  (-0.05219 0.0336078 0)
  (-0.0498359 0.0399035 0)
  (-0.0461834 0.048032 0)
  (-0.0407039 0.0593882 0)
  (-0.0316055 0.0724218 0)
  (-0.0195093 0.0772329 0)
  (0.0171468 0.0404765 0)
  (-0.0309061 -0.115885 0)
  (0.13404 0.070174 0)
  (0.0308509 0.000150542 0)
  (-0.018476 -0.0448353 0)
  (-0.0653266 -0.0421362 0)
  (-0.102495 -0.0330153 0)
  (-0.128024 -0.026248 0)
  (-0.141278 -0.0235765 0)
  (-0.145939 -0.0250734 0)
  (-0.1465 -0.0278382 0)
  (-0.143945 -0.0309206 0)
  (-0.139802 -0.0338603 0)
  (-0.13472 -0.0358694 0)
  (-0.128887 -0.037031 0)
  (-0.122527 -0.037978 0)
  (-0.11609 -0.0394377 0)
  (-0.110212 -0.0418244 0)
  (-0.105323 -0.0449453 0)
  (-0.10147 -0.0483903 0)
  (-0.0984341 -0.0518067 0)
  (-0.0958932 -0.0549762 0)
  (-0.0935383 -0.0578087 0)
  (-0.0911374 -0.0603258 0)
  (-0.0885553 -0.0626345 0)
  (-0.0857465 -0.0648844 0)
  (-0.082733 -0.0672144 0)
  (-0.0795759 -0.0696929 0)
  (-0.0763388 -0.0722304 0)
  (-0.0730216 -0.0744539 0)
  (-0.0694306 -0.0755836 0)
  (-0.0650008 -0.0744784 0)
  (-0.0586996 -0.0700889 0)
  (-0.0491166 -0.0621943 0)
  (-0.0347073 -0.0516724 0)
  (-0.0149553 -0.0404035 0)
  (0.0175697 -0.0382442 0)
  (0.04762 -0.0666731 0)
  (0.0869673 -0.123475 0)
  (0.0126546 -0.183691 0)
  (0.805046 0.125585 0)
  (-0.180542 -0.394654 0)
  (-0.327171 0.0840601 0)
  (-0.238541 0.0953108 0)
  (-0.235581 0.102831 0)
  (-0.240063 0.110866 0)
  (-0.239993 0.119604 0)
  (-0.234516 0.129019 0)
  (-0.225338 0.139013 0)
  (-0.214668 0.148386 0)
  (-0.204228 0.156916 0)
  (-0.194695 0.164291 0)
  (-0.186286 0.17043 0)
  (-0.178685 0.175546 0)
  (-0.171388 0.180146 0)
  (-0.164055 0.184855 0)
  (-0.156653 0.190148 0)
  (-0.149407 0.196177 0)
  (-0.14256 0.202757 0)
  (-0.136234 0.209563 0)
  (-0.130421 0.216292 0)
  (-0.125032 0.222738 0)
  (-0.119943 0.228822 0)
  (-0.115026 0.234582 0)
  (-0.110173 0.240153 0)
  (-0.105304 0.245726 0)
  (-0.100369 0.251511 0)
  (-0.0953247 0.257698 0)
  (-0.0901074 0.264397 0)
  (-0.0845837 0.271537 0)
  (-0.078453 0.278768 0)
  (-0.0711303 0.285482 0)
  (-0.0617674 0.291125 0)
  (-0.0496396 0.295756 0)
  (-0.0348733 0.300509 0)
  (-0.0188326 0.308002 0)
  (0.00184843 0.314826 0)
  (0.0197993 0.332057 0)
  (0.0544276 0.371017 0)
  (-0.154726 0.451003 0)
)
;

boundaryField
{
  floor
  {
    type noSlip;
  }
  ceiling
  {
    type noSlip;
  }
  sWall
  {
    type noSlip;
  }
  nWall
  {
    type noSlip;
  }
  sideWalls
  {
    type empty;
  }
  glass1
  {
    type noSlip;
  }
  glass2
  {
    type noSlip;
  }
  sun
  {
    type noSlip;
  }
  heatsource1
  {
    type noSlip;
  }
  heatsource2
  {
    type noSlip;
  }
  Table_master
  {
    type noSlip;
  }
  Table_slave
  {
    type noSlip;
  }
  inlet
  {
    type fixedValue;
    value uniform (0.3 0 0);
  }
  outlet
  {
    type zeroGradient;
  }
} 	// ************************************************************************* //

