/*--------------------------------*- C++ -*----------------------------------*\
  =========                 |
  \\      /  F ield         | OpenFOAM: The Open Source CFD Toolbox
   \\    /   O peration     | Website:  https://openfoam.org
    \\  /    A nd           | Version:  6
     \\/     M anipulation  |
\*---------------------------------------------------------------------------*/
FoamFile
{
    version     2.0;
    format      ascii;
    class       surfaceScalarField;
    location    "200";
    object      phi;
}
// * * * * * * * * * * * * * * * * * * * * * * * * * * * * * * * * * * * * * //

dimensions      [1 0 -1 0 0 0 0];

internalField   nonuniform List<scalar> 
852
(
0.0050694
-0.00504892
0.00890643
-0.00383673
0.0109382
-0.00203143
0.01201
-0.00107155
0.0126334
-0.000623046
0.0129557
-0.000322065
0.0130118
-5.57868e-05
0.0128246
0.000187572
0.0124022
0.000422644
0.0117308
0.000671663
0.0107745
0.000956629
0.00946426
0.00131053
0.00765404
0.00181051
0.00493999
0.00271434
0.00493796
0.000178614
-0.000180218
0.000225541
-4.69132e-05
0.000270047
-4.45068e-05
0.000251799
1.82383e-05
0.000224025
2.77617e-05
0.00022081
3.20353e-06
0.000242252
-2.14508e-05
0.000271415
-2.91691e-05
0.000297656
-2.6246e-05
0.000317495
-1.98439e-05
0.000328282
-1.0792e-05
0.000325476
2.7992e-06
0.000302976
2.24922e-05
0.000259458
4.35086e-05
0.000201068
5.83794e-05
0.00011667
8.4396e-05
-8.68329e-08
0.000116776
-0.000161079
0.000161029
-0.000162753
0.00453089
-0.00952241
0.00709315
-0.00639868
0.0084811
-0.00341907
0.00928817
-0.00187832
0.00979396
-0.00112853
0.0100897
-0.000617529
0.0101998
-0.00016556
0.0101173
0.000270326
0.00982983
0.000710435
0.00932064
0.00118115
0.00857311
0.00170446
0.00758218
0.00230175
0.00639298
0.003
0.0053069
0.0038007
0.00562466
0.00462049
0.00208819
0.0035367
0.00208842
-4.92914e-05
-0.00013512
1.09072e-05
-0.00010707
-6.88161e-05
3.52312e-05
-0.000119058
6.84896e-05
-0.000153809
6.25224e-05
-0.00016544
1.48475e-05
-0.000159683
-2.71907e-05
-0.000151656
-3.71756e-05
-0.000150181
-2.77004e-05
-0.000155284
-1.47209e-05
-0.000167602
1.54472e-06
-0.000182939
1.81541e-05
-0.000192573
3.21385e-05
-0.000191639
4.25821e-05
-0.000169184
3.59255e-05
-8.90165e-05
4.23028e-06
-4.07625e-05
6.85323e-05
3.00309e-05
9.02568e-05
-0.000137279
0.0031932
-0.0126236
0.00483324
-0.00803841
0.00564881
-0.00423433
0.00614996
-0.00237918
0.00652422
-0.0015025
0.00678976
-0.000882784
0.0069591
-0.000334619
0.0070091
0.000220614
0.00690619
0.000813626
0.00662354
0.00146408
0.00615039
0.00217789
0.00550113
0.00295129
0.00473636
0.00376506
0.00395907
0.00457828
0.00318654
0.0053933
0.00171458
0.00500894
0.00380326
-0.000376885
0.000234797
-0.000477704
-6.18878e-06
-0.000523529
8.11133e-05
-0.000556648
0.000101659
-0.000580105
8.60315e-05
-0.000600364
3.51606e-05
-0.000627344
-0.000664306
-0.000691794
-0.000706306
-0.00070456
-0.000686213
-0.000653886
-0.000611119
-0.000575011
-0.000383841
-0.000186908
-0.000148792
-0.000166495
9.0173e-05
-0.00014869
-5.44159e-05
0.00196087
-0.0144593
0.00289283
-0.00897005
0.00324033
-0.00458154
0.00339319
-0.00253176
0.00362582
-0.00173486
0.00385776
-0.00111446
0.004064
-0.000540602
0.00419933
8.55521e-05
0.00421304
0.00080018
0.00408101
0.00159637
0.00379074
0.00246844
0.00334507
0.00339724
0.00275827
0.00435213
0.00204227
0.00529457
0.0012518
0.00618406
0.000371182
0.00588983
-0.000360198
0.00453479
-0.00102267
0.000652653
-0.0010594
0.000271638
-0.00124387
0.000178401
-0.00136687
0.000204225
-0.0014681
0.000203006
-0.0015561
0.000174141
-0.00163465
0.000113816
-0.0016955
6.08001e-05
-0.00171586
2.03089e-05
-0.0017041
-1.18092e-05
-0.0016668
-3.736e-05
-0.00160586
-6.09937e-05
-0.00151961
-8.6319e-05
-0.00140305
-0.000116623
-0.00124537
-0.000157758
-0.00102184
-0.000223605
-0.000862883
-0.000345798
-0.000569465
-0.000459848
-0.000190001
-0.000528088
-0.000255931
0.00092287
-0.015225
0.00134273
-0.0093896
0.00128507
-0.00452359
0.00108151
-0.00232794
0.00124225
-0.00189535
0.0014862
-0.00135816
0.00170599
-0.00076015
0.00185035
-5.85576e-05
0.00189194
0.000758847
0.00181574
0.00167283
0.0016114
0.00267305
0.00127439
0.00373454
0.000801391
0.00482541
0.000215969
0.00588028
-0.000330205
0.00673051
-0.00079384
0.0063537
-0.000897212
0.00463824
-0.00125527
0.00101082
-0.00141611
0.000432604
-0.00154387
0.00030629
-0.00161475
0.00027523
-0.001651
0.000239376
-0.00166531
0.000188575
-0.00167582
0.000124436
-0.00167713
6.22238e-05
-0.00166735
1.06369e-05
-0.00164777
-3.1279e-05
-0.00161949
-6.55409e-05
-0.00158406
-9.63235e-05
-0.00154226
-0.000128018
-0.00149406
-0.000164737
-0.00143964
-0.000212085
-0.00138546
-0.0002777
-0.00137089
-0.00036028
-0.00139506
-0.00043559
-0.00148473
-0.00043832
-0.00138847
-0.000352093
-0.00105919
-0.000329366
-0.000547121
-0.000512151
-0.000541677
-6.32228e-06
-0.0150304
6.59187e-06
-0.00940219
-0.00034725
-0.00416948
-0.000828465
-0.00184647
-0.000758761
-0.00196481
-0.000567329
-0.00154935
-0.000392996
-0.000934236
-0.000286234
-0.000165072
-0.000256639
0.000729507
-0.000307242
0.0017237
-0.000441144
0.00280722
-0.000662493
0.00395616
-0.000964867
0.00512807
-0.00129898
0.00621467
-0.00150082
0.0069326
-0.00156694
0.00642001
-0.00134328
0.00441462
-0.00150712
0.00117478
-0.00158662
0.000512242
-0.0016288
0.000348608
-0.00162921
0.000275777
-0.00160111
0.000211402
-0.00155794
0.000145534
-0.00151344
8.00613e-05
-0.00147133
2.02356e-05
-0.00143108
-2.94941e-05
-0.00139324
-6.9004e-05
-0.0013572
-0.000101467
-0.0013226
-0.000130809
-0.00129009
-0.000160421
-0.00126122
-0.000193505
-0.00123939
-0.000233809
-0.00123214
-0.000284851
-0.00124813
-0.000344197
-0.00128656
-0.000397061
-0.00130987
-0.000414918
-0.00124386
-0.000418004
-0.00104255
-0.000530576
-0.000682305
-0.000872297
-0.00121893
-0.00102294
-0.0137902
-0.00164296
-0.00878185
-0.00220814
-0.00360403
-0.00290555
-0.00114881
-0.00290726
-0.00196286
-0.00274014
-0.00171622
-0.00256482
-0.0011093
-0.00243474
-0.000294898
-0.00235551
0.000650537
-0.00231893
0.00168737
-0.00231536
0.00280393
-0.0023394
0.00398048
-0.00237486
0.0051638
-0.00237301
0.00621307
-0.00222781
0.00678762
-0.00195271
0.00614505
-0.00153494
0.00399689
-0.00155158
0.00119156
-0.00155462
0.000515431
-0.00151868
0.000312808
-0.00144634
0.000203584
-0.00135101
0.000116212
-0.00124933
4.39957e-05
-0.00115513
-1.39985e-05
-0.00107665
-5.81074e-05
-0.00101465
-9.13601e-05
-0.000964539
-0.00011899
-0.000921888
-0.000143993
-0.000884298
-0.000168278
-0.00085105
-0.000193551
-0.000822871
-0.000221568
-0.000802332
-0.000254236
-0.000794313
-0.00029276
-0.00080349
-0.000334912
-0.000828232
-0.000372214
-0.000849572
-0.000393475
-0.000857052
-0.000410423
-0.000871014
-0.000516514
-0.000791417
-0.000951795
-0.00200545
-0.00362328
-0.00992457
-0.00547025
-0.00693454
-0.00553308
-0.0035409
-0.0057919
-0.000889746
-0.00530762
-0.00244689
-0.00488065
-0.00214294
-0.00459046
-0.00139923
-0.00438579
-0.000499312
-0.00422057
0.000485571
-0.00405728
0.00152435
-0.00386563
0.00261254
-0.00362829
0.00374339
-0.00332892
0.0048647
-0.00294504
0.00582943
-0.00245099
0.00629376
-0.00190868
0.00560285
-0.00139072
0.00347898
-0.00130977
0.00111076
-0.00124671
0.000452526
-0.00113678
0.000203036
-0.000982982
4.99435e-05
-0.000813189
-5.3425e-05
-0.000662972
-0.000106068
-0.000548852
-0.000127969
-0.000467305
-0.000139509
-0.000407876
-0.000150646
-0.000362528
-0.0001642
-0.000325986
-0.000180401
-0.000295219
-0.000198913
-0.000268876
-0.000219765
-0.000246815
-0.000243504
-0.000229976
-0.000270951
-0.000220244
-0.000302371
-0.000219217
-0.000335822
-0.000225881
-0.000365433
-0.000237743
-0.0003815
-0.000268766
-0.00037929
-0.000364174
-0.000420998
-0.00044842
-0.000867445
-0.0024309
-0.00968903
-0.0166443
-0.0116859
-0.00849893
-0.0081635
-0.00441192
-0.00694448
-0.00366566
-0.00634889
-0.00273828
-0.00604684
-0.00170103
-0.00585751
-0.000688386
-0.00566216
0.000290471
-0.00537443
0.00123688
-0.00497659
0.00221495
-0.00444928
0.00321634
-0.00378433
0.00419999
-0.00299575
0.00504108
-0.00214575
0.00544393
-0.00137003
0.00482726
-0.000715045
0.00282408
-0.000593479
0.000989348
-0.00049391
0.000353123
-0.000313119
2.24108e-05
-9.24016e-05
-0.000170607
8.63868e-05
-0.000232049
0.000207091
-0.00022661
0.000284558
-0.000205277
0.000334498
-0.000189293
0.000367566
-0.000183562
0.000390391
-0.000186875
0.000406572
-0.000196437
0.000417804
-0.000210003
0.00042474
-0.000226562
0.000427589
-0.000246217
0.000426483
-0.000269712
0.000421848
-0.000297606
0.000415126
-0.000328972
0.000409524
-0.000359706
0.000409141
-0.000380995
0.000413547
-0.000383577
0.000399697
-0.000407032
0.000264514
-0.00073215
-0.0021418
-0.00937419
0.000299084
-0.00727193
-0.00651384
-0.00684435
-0.004093
-0.00685151
-0.00273088
-0.00686242
-0.00168988
-0.00676529
-0.000785275
-0.00653986
6.52919e-05
-0.00617285
0.000870114
-0.0056075
0.00164985
-0.00481425
0.00242333
-0.00379575
0.00318173
-0.0025913
0.00383684
-0.0013608
0.00421362
-0.000167115
0.00363371
0.000675831
0.00198125
0.000877304
0.000788042
0.0010102
0.000220404
0.00113628
-0.000103497
0.00121919
-0.000253343
0.00125289
-0.000265575
0.00126133
-0.000234886
0.00125959
-0.000203366
0.00125413
-0.000183672
0.00124676
-0.000176021
0.00123685
-0.000176811
0.00122309
-0.000182519
0.00120431
-0.00019107
0.00117983
-0.000201937
0.00114951
-0.000215752
0.00111372
-0.00023378
0.00107355
-0.000257303
0.00103147
-0.000286751
0.000992318
-0.000320425
0.000964
-0.000352549
0.00095213
-0.000371583
0.000919472
-0.000374254
0.000672165
-0.000484726
-0.00146468
-0.000387567
0.000650291
-0.0034699
-0.00343106
-0.00512304
-0.00243961
-0.00636067
-0.00149301
-0.0071338
-0.000916525
-0.00745342
-0.000465419
-0.00732577
-6.21176e-05
-0.00688143
0.000426017
-0.00612356
0.000892207
-0.00504432
0.00134433
-0.00365843
0.00179606
-0.00199732
0.00217595
-9.75099e-05
0.00231401
0.00167494
0.00186141
0.00261577
0.00104058
0.0029426
0.000461391
0.00299784
0.000165351
0.00287947
1.50462e-05
0.00267656
-5.02519e-05
0.00249775
-8.65803e-05
0.00236804
-0.000105001
0.00228021
-0.000115359
0.00221856
-0.000121852
0.00216809
-0.000125373
0.00211777
-0.000126328
0.00206105
-0.000125633
0.00199486
-0.000124721
0.00191837
-0.000125294
0.00183186
-0.000129085
0.00173596
-0.00013773
0.00163156
-0.000152764
0.00152063
-0.000175681
0.00140831
-0.00020797
0.00130704
-0.000251139
0.00124379
-0.000308205
0.0012589
-0.000389237
0.0012681
-0.000493811
-0.000191843
0.00431679
0.00176963
0.00233415
-0.0011849
-0.00370567
-0.00528182
-0.00628278
-0.0068335
-0.00698126
-0.0066407
-0.00583392
-0.00457483
-0.00286362
-0.000771942
0.00145921
0.0032404
0.0042033
0.00458979
0.00468358
0.00463083
0.00451704
0.00437058
0.0042083
0.00403727
0.00386066
0.00368096
0.00350049
0.00332081
0.00314214
0.00296306
0.0027804
0.00258938
0.00238362
0.00215522
0.00189476
0.00159123
0.00123056
0.000788503
0.000241474
)
;

boundaryField
{
    floor
    {
        type            calculated;
        value           nonuniform List<scalar> 
29
(
0
0
0
0
0
0
0
0
0
0
0
0
0
0
0
0
0
0
0
0
1.71888e-06
4.59601e-06
7.34945e-06
1.15769e-05
2.31931e-06
1.61891e-06
4.22747e-06
7.02433e-06
9.91874e-06
)
;
    }
    ceiling
    {
        type            calculated;
        value           nonuniform List<scalar> 
43
(
0.00015516
0.000153418
8.62514e-05
8.8597e-05
8.14138e-05
8.3368e-05
8.46673e-05
8.55253e-05
8.58753e-05
8.57004e-05
8.56576e-05
8.54719e-05
8.50751e-05
8.44957e-05
8.30619e-05
8.04119e-05
7.78855e-05
7.5098e-05
7.17554e-05
6.79922e-05
6.37359e-05
6.00711e-05
5.74703e-05
5.58496e-05
5.49496e-05
5.45094e-05
5.43178e-05
5.42207e-05
5.41181e-05
5.39588e-05
5.3731e-05
5.34505e-05
5.31482e-05
5.28624e-05
5.26369e-05
5.25269e-05
5.26058e-05
5.29492e-05
5.33412e-05
5.77706e-05
2.46022e-05
2.11335e-05
3.68274e-05
)
;
    }
    sWall
    {
        type            calculated;
        value           uniform -7.18004e-05;
    }
    nWall
    {
        type            calculated;
        value           nonuniform List<scalar> 6(-5.51826e-06 -4.95344e-06 -4.79517e-06 -4.84702e-06 -4.6172e-06 -8.02514e-06);
    }
    sideWalls
    {
        type            empty;
        value           nonuniform 0();
    }
    glass1
    {
        type            calculated;
        value           nonuniform List<scalar> 9(-2.0181e-05 -5.70903e-05 -9.16624e-05 -0.000124853 -0.00015693 -0.00018787 -0.000216919 -0.000242051 -0.000259789);
    }
    glass2
    {
        type            calculated;
        value           nonuniform List<scalar> 2(-2.28644e-05 -2.44753e-05);
    }
    sun
    {
        type            calculated;
        value           uniform 0;
    }
    heatsource1
    {
        type            calculated;
        value           nonuniform List<scalar> 3(1.99514e-07 1.99658e-07 1.99907e-07);
    }
    heatsource2
    {
        type            calculated;
        value           nonuniform List<scalar> 4(4.86535e-08 4.90639e-08 0 0);
    }
    Table_master
    {
        type            calculated;
        value           nonuniform List<scalar> 9(-1.50477e-07 -1.50434e-07 -1.5039e-07 -1.50349e-07 -1.50315e-07 -1.50281e-07 -1.50252e-07 -1.50221e-07 -1.50167e-07);
    }
    Table_slave
    {
        type            calculated;
        value           nonuniform List<scalar> 9(1.49729e-07 1.49706e-07 1.49692e-07 1.49682e-07 1.49683e-07 1.49693e-07 1.49712e-07 1.49741e-07 1.49765e-07);
    }
    inlet
    {
        type            calculated;
        value           uniform 0.000576678;
    }
    outlet
    {
        type            calculated;
        value           nonuniform List<scalar> 2(-0.0043997 0.00239418);
    }
}


// ************************************************************************* //
