// -*- C++ -*-
// File generated by PyFoam - sorry for the ugliness

FoamFile
{
 version 2.0;
 format ascii;
 class volScalarField;
 location "200";
 object T;
}

dimensions [ 0 0 0 1 0 0 0 ];

internalField nonuniform List<scalar> 459
(
  309.517
  309.419
  309.371
  309.341
  309.318
  309.3
  309.287
  309.274
  309.262
  309.25
  309.237
  309.224
  309.21
  309.193
  309.166
  306.064
  306.065
  306.074
  306.082
  306.093
  306.106
  306.121
  306.136
  306.149
  306.162
  306.175
  306.187
  306.204
  306.226
  306.255
  306.282
  306.283
  306.283
  306.3
  309.486
  309.322
  309.232
  309.177
  309.138
  309.112
  309.096
  309.088
  309.084
  309.084
  309.088
  309.095
  309.106
  309.121
  309.132
  309.114
  309.071
  306.109
  306.121
  306.124
  306.136
  306.15
  306.167
  306.185
  306.205
  306.226
  306.247
  306.269
  306.294
  306.319
  306.345
  306.373
  306.398
  306.392
  306.386
  306.402
  309.457
  309.216
  309.073
  308.98
  308.915
  308.873
  308.85
  308.848
  308.859
  308.882
  308.914
  308.953
  308.996
  309.04
  309.078
  309.081
  309.044
  306.18
  306.199
  306.207
  306.218
  306.23
  306.241
  306.247
  306.278
  306.311
  306.344
  306.375
  306.405
  306.436
  306.471
  306.51
  306.55
  306.544
  306.534
  306.515
  309.43
  309.125
  308.925
  308.786
  308.696
  308.645
  308.617
  308.619
  308.648
  308.698
  308.763
  308.835
  308.908
  308.978
  309.035
  309.044
  308.779
  306.576
  306.349
  306.391
  306.425
  306.466
  306.509
  306.55
  306.582
  306.597
  306.61
  306.622
  306.632
  306.642
  306.65
  306.657
  306.662
  306.661
  306.666
  306.668
  306.661
  309.402
  309.061
  308.806
  308.628
  308.55
  308.519
  308.501
  308.497
  308.531
  308.594
  308.677
  308.769
  308.861
  308.945
  309.006
  308.934
  308.382
  306.628
  306.462
  306.486
  306.518
  306.551
  306.581
  306.607
  306.627
  306.642
  306.656
  306.668
  306.679
  306.69
  306.7
  306.709
  306.717
  306.725
  306.733
  306.742
  306.751
  306.764
  306.776
  306.785
  309.371
  309.029
  308.735
  308.544
  308.522
  308.512
  308.498
  308.487
  308.514
  308.578
  308.666
  308.762
  308.854
  308.926
  308.934
  308.72
  307.973
  306.662
  306.539
  306.557
  306.587
  306.616
  306.641
  306.663
  306.681
  306.696
  306.708
  306.719
  306.728
  306.737
  306.745
  306.753
  306.76
  306.768
  306.775
  306.783
  306.794
  306.808
  306.825
  306.841
  309.336
  309.03
  308.751
  308.559
  308.55
  308.553
  308.553
  308.556
  308.578
  308.628
  308.698
  308.776
  308.845
  308.875
  308.799
  308.449
  307.636
  306.707
  306.62
  306.641
  306.673
  306.702
  306.727
  306.747
  306.763
  306.774
  306.782
  306.788
  306.793
  306.798
  306.802
  306.806
  306.809
  306.811
  306.813
  306.816
  306.82
  306.831
  306.848
  306.867
  309.313
  309.084
  308.87
  308.603
  308.582
  308.596
  308.614
  308.63
  308.649
  308.682
  308.728
  308.776
  308.806
  308.78
  308.622
  308.189
  307.414
  306.779
  306.725
  306.756
  306.797
  306.832
  306.857
  306.872
  306.879
  306.882
  306.883
  306.883
  306.882
  306.881
  306.879
  306.877
  306.874
  306.87
  306.865
  306.859
  306.854
  306.854
  306.864
  306.882
  309.327
  309.253
  309.263
  308.728
  308.581
  308.598
  308.629
  308.655
  308.677
  308.697
  308.72
  308.737
  308.727
  308.656
  308.452
  308.009
  307.335
  306.9
  306.87
  306.913
  306.969
  307.005
  307.019
  307.022
  307.02
  307.014
  307.007
  307
  306.992
  306.983
  306.974
  306.965
  306.955
  306.944
  306.932
  306.918
  306.903
  306.891
  306.885
  306.889
  309.988
  308.96
  308.557
  308.557
  308.589
  308.618
  308.641
  308.655
  308.662
  308.657
  308.624
  308.535
  308.34
  307.964
  307.382
  307.144
  307.106
  307.133
  307.165
  307.182
  307.186
  307.181
  307.171
  307.158
  307.143
  307.128
  307.112
  307.095
  307.078
  307.06
  307.042
  307.023
  307.003
  306.982
  306.959
  306.936
  306.914
  306.897
  309.87
  309.324
  308.532
  308.501
  308.523
  308.542
  308.557
  308.567
  308.566
  308.552
  308.516
  308.442
  308.302
  307.958
  307.641
  307.502
  307.442
  307.412
  307.393
  307.378
  307.362
  307.344
  307.323
  307.301
  307.278
  307.253
  307.228
  307.202
  307.175
  307.149
  307.122
  307.094
  307.066
  307.036
  307.005
  306.971
  306.936
  306.904
  312.161
  312.116
  311.223
  310.168
  308.494
  308.433
  308.439
  308.445
  308.451
  308.456
  308.455
  308.444
  308.422
  308.378
  308.274
  308.075
  307.939
  307.86
  307.804
  307.756
  307.708
  307.659
  307.612
  307.567
  307.524
  307.481
  307.44
  307.4
  307.36
  307.321
  307.282
  307.243
  307.204
  307.165
  307.125
  307.084
  307.039
  306.988
  306.924
  306.835
)
;

boundaryField
{
  floor
  {
    type wallHeatTransfer;
    Tinf uniform 305.2;
    alphaWall uniform 0.24;
    value nonuniform List<scalar> 29
(
  308.842
  305.845
  305.842
  305.797
  305.759
  305.757
  305.772
  305.793
  305.813
  305.83
  305.847
  305.864
  305.879
  305.9
  305.928
  305.965
  306.005
  306.026
  306.06
  306.067
  306.067
  306.194
  306.315
  306.436
  308.842
  305.845
  305.918
  305.989
  306.354
)
;
  }
  ceiling
  {
    type wallHeatTransfer;
    Tinf uniform 303.2;
    alphaWall uniform 0.24;
    value nonuniform List<scalar> 43
(
  311.25
  311.207
  310.714
  309.647
  308.02
  307.946
  307.944
  307.945
  307.948
  307.954
  307.954
  307.945
  307.926
  307.888
  307.793
  307.608
  307.487
  307.423
  307.386
  307.361
  307.337
  307.31
  307.278
  307.242
  307.204
  307.164
  307.125
  307.085
  307.046
  307.008
  306.971
  306.934
  306.897
  306.859
  306.821
  306.78
  306.735
  306.683
  306.618
  306.504
  309.13
  309.08
  309.625
)
;
  }
  sWall
  {
    type wallHeatTransfer;
    Tinf uniform 315.2;
    alphaWall uniform 0.36;
    value uniform 312.603;
  }
  nWall
  {
    type wallHeatTransfer;
    Tinf uniform 307.2;
    alphaWall uniform 0.36;
    value nonuniform List<scalar> 6
(
  306.869
  306.903
  306.918
  306.932
  306.934
  306.883
)
;
  }
  sideWalls
  {
    type empty;
  }
  glass1
  {
    type wallHeatTransfer;
    Tinf uniform 315.2;
    alphaWall uniform 4.3;
    value nonuniform List<scalar> 9
(
  312.404
  312.234
  312.121
  312.031
  311.948
  311.863
  311.768
  311.659
  311.527
)
;
  }
  glass2
  {
    type wallHeatTransfer;
    Tinf uniform 307.2;
    alphaWall uniform 4.3;
    value nonuniform List<scalar> 2
(
  307.091
  307.087
)
;
  }
  sun
  {
    type wallHeatTransfer;
    Tinf uniform 305.2;
    alphaWall uniform 0.24;
    value nonuniform List<scalar> 14
(
  309.284
  309.181
  309.127
  309.091
  309.063
  309.04
  309.022
  309.005
  308.988
  308.971
  308.953
  308.934
  308.912
  308.885
)
;
  }
  heatsource1
  {
    type fixedGradient;
    gradient uniform 0;
  }
  heatsource2
  {
    type fixedGradient;
    gradient uniform 0;
  }
  Table_master
  {
    type zeroGradient;
  }
  Table_slave
  {
    type zeroGradient;
  }
  inlet
  {
    type fixedValue;
    value uniform 290.15;
  }
  outlet
  {
    type zeroGradient;
  }
} 	// ************************************************************************* //

