/*--------------------------------*- C++ -*----------------------------------*\
  =========                 |
  \\      /  F ield         | OpenFOAM: The Open Source CFD Toolbox
   \\    /   O peration     | Website:  https://openfoam.org
    \\  /    A nd           | Version:  6
     \\/     M anipulation  |
\*---------------------------------------------------------------------------*/
FoamFile
{
    version     2.0;
    format      ascii;
    class       volScalarField;
    location    "680";
    object      alphat;
}
// * * * * * * * * * * * * * * * * * * * * * * * * * * * * * * * * * * * * * //

dimensions      [1 -1 -1 0 0 0 0];

internalField   nonuniform List<scalar> 
459
(
0.00102338
0.00111156
0.00112827
0.00118149
0.00123048
0.00127598
0.00132002
0.00136524
0.00140395
0.00142997
0.0014378
0.00142182
0.00137648
0.00129658
0.00118676
0.000684671
0.000917103
0.000873524
0.000826289
0.000784951
0.000745579
0.000701948
0.000659439
0.000620638
0.000585964
0.000555069
0.000527289
0.00050201
0.000478565
0.000456114
0.000433381
0.000409872
0.000376134
0.000395909
0.00141216
0.00321185
0.00297582
0.00344037
0.00388924
0.00435887
0.00480643
0.00516052
0.00548696
0.00579296
0.00604022
0.00617517
0.00610896
0.00563708
0.00415013
0.00123731
0.000777007
0.000922525
0.00259147
0.00242296
0.00252456
0.00259968
0.00252908
0.00202846
0.00175954
0.00156913
0.00142079
0.00129599
0.00118728
0.00108915
0.000996002
0.000906497
0.000831826
0.000828356
0.000750818
0.000501448
0.00174113
0.00435961
0.0035958
0.00457828
0.00501194
0.00533272
0.00558454
0.00579053
0.00603054
0.0063269
0.00665711
0.00698103
0.00723469
0.00730576
0.00696437
0.00558215
0.00120576
0.00116505
0.00210844
0.00276744
0.00321538
0.00345702
0.00322146
0.000943907
0.000833319
0.000745933
0.000676431
0.000620595
0.000575271
0.000538276
0.000508428
0.000485891
0.000547573
0.000704461
0.000845601
0.000549214
0.00206059
0.00563028
0.00350461
0.00480942
0.00516961
0.00524167
0.00525435
0.00531146
0.00547645
0.00576266
0.00614875
0.00660221
0.00706543
0.00744178
0.0076138
0.00724648
0.00559038
0.00149638
0.00222697
0.00300902
0.00371585
0.0042205
0.00446853
0.00404671
0.00104056
0.000953927
0.000898798
0.000861909
0.00083403
0.000807901
0.000777319
0.000745809
0.000708132
0.000677888
0.000723897
0.000966426
0.000617858
0.00238625
0.00728915
0.00373164
0.00452338
0.00503234
0.00496185
0.00480803
0.00477935
0.00493345
0.00522868
0.00564639
0.00616288
0.00670943
0.00714905
0.00742341
0.00743506
0.00702761
0.00601593
0.0058126
0.00581721
0.00583975
0.00582252
0.00573877
0.00547686
0.00465
0.00432094
0.0041671
0.00407286
0.00398622
0.00387282
0.00368778
0.00330821
0.00277411
0.00215407
0.00163322
0.00145946
0.00103362
0.000702798
0.000691575
0.000662762
0.00272938
0.00911563
0.0051252
0.00414669
0.00468931
0.00478486
0.00466872
0.00452457
0.00469856
0.00499632
0.00542845
0.0059674
0.00652391
0.00698325
0.00726326
0.00734361
0.0072684
0.00711292
0.00701982
0.00690652
0.00673513
0.00651588
0.00627274
0.00601452
0.00573009
0.00553526
0.00540154
0.00529863
0.00520756
0.00510483
0.00495152
0.00466825
0.00420896
0.00358524
0.0029022
0.00237739
0.00184667
0.00143215
0.00155885
0.000825596
0.00306273
0.0105292
0.00768371
0.00504793
0.0044753
0.00456931
0.00464916
0.00465026
0.00475106
0.00500865
0.00544738
0.00601991
0.00661478
0.00709994
0.00738673
0.00747608
0.00746159
0.00742602
0.00734641
0.00715472
0.00686949
0.00654899
0.00624692
0.0059968
0.00580839
0.00567595
0.00557253
0.00548734
0.00542054
0.00535997
0.00526808
0.00510503
0.00482797
0.00439061
0.00383938
0.00328722
0.00270854
0.00216287
0.00201746
0.000973489
0.00314661
0.0100532
0.00840272
0.00705006
0.00604931
0.00557224
0.00521955
0.00495595
0.0049343
0.00519193
0.00569133
0.00632975
0.00696743
0.0074636
0.00773567
0.00779293
0.00772338
0.00757119
0.00732345
0.00699029
0.00665037
0.00635133
0.00611279
0.00593172
0.00579034
0.00566429
0.00553597
0.00540829
0.00529906
0.00521452
0.00511836
0.00497097
0.00481158
0.00461764
0.00428699
0.00392397
0.00352037
0.00289172
0.00306854
0.0012262
0.0030778
0.00370905
0.00429708
0.00447629
0.00448812
0.00442257
0.00440882
0.00455667
0.00491989
0.0054962
0.0062059
0.00693175
0.00756282
0.0079885
0.00815671
0.00808482
0.00784008
0.0074952
0.00715187
0.0068538
0.00661601
0.00643239
0.00628815
0.00616213
0.00603092
0.00587262
0.00567311
0.00543389
0.00517428
0.00491388
0.00462022
0.00421466
0.00372884
0.00330083
0.00296085
0.00266795
0.0024243
0.00222649
0.00209516
0.00131328
0.00256648
0.00417842
0.00456845
0.00482336
0.00515726
0.00563582
0.00620824
0.00680696
0.00738634
0.00791042
0.0083276
0.00852209
0.00845257
0.00820076
0.00792537
0.00769683
0.00751841
0.00737414
0.00725274
0.0071481
0.00705195
0.00695151
0.00682933
0.00666308
0.00642729
0.00609911
0.00567004
0.00516081
0.00461983
0.00407102
0.0035518
0.00311693
0.00279188
0.0025775
0.00243356
0.00230811
0.00222406
0.0015618
0.00236711
0.00425784
0.00488809
0.00553003
0.00638812
0.00714516
0.00766987
0.00814764
0.00862113
0.00906689
0.00943369
0.00954325
0.00938983
0.0091039
0.00885164
0.00868987
0.00858417
0.00848582
0.00838444
0.0082934
0.00821635
0.00815469
0.00810469
0.00805105
0.00796092
0.00778399
0.00746455
0.00696795
0.00633546
0.00563268
0.00492442
0.00427342
0.00372176
0.00328957
0.0029639
0.00273685
0.00363899
0.00177217
0.00175117
0.00191064
0.00207935
0.00212769
0.00198168
0.00193327
0.00191016
0.00192674
0.00199084
0.00205864
0.00211728
0.00215408
0.00215956
0.00213386
0.00209371
0.00205921
0.00203369
0.00201462
0.00199946
0.00198801
0.00197996
0.00197418
0.00197062
0.00196834
0.00196491
0.00195615
0.00193669
0.00190191
0.00185121
0.00179185
0.00172918
0.00166741
0.0016112
0.00156395
0.00152871
0.0015059
0.00149011
0.00147152
0.00151814
0.00147389
)
;

boundaryField
{
    floor
    {
        type            compressible::alphatWallFunction;
        Prt             0.85;
        value           nonuniform List<scalar> 
29
(
0.0001687
9.72797e-05
0.000130919
0.0001247
0.000117917
0.000111942
0.000106216
9.98279e-05
9.35569e-05
8.77896e-05
8.25978e-05
7.79398e-05
7.37235e-05
6.98625e-05
6.62594e-05
6.27881e-05
5.92508e-05
5.55672e-05
5.02321e-05
5.33598e-05
5.33591e-05
6.97747e-05
7.7053e-05
8.73752e-05
0.000168698
9.72786e-05
0.00013169
0.000165699
0.000210886
)
;
    }
    ceiling
    {
        type            compressible::alphatWallFunction;
        Prt             0.85;
        value           nonuniform List<scalar> 
43
(
0.000244721
0.000265694
0.000287683
0.000293994
0.000275044
0.000268734
0.000265718
0.000267901
0.000276284
0.000285117
0.000292731
0.000297498
0.00029821
0.00029489
0.000289691
0.000285215
0.000281899
0.000279419
0.000277444
0.000275952
0.000274902
0.000274148
0.000273683
0.000273386
0.000272939
0.000271794
0.000269252
0.0002647
0.000258049
0.000250234
0.000241954
0.00023376
0.000226275
0.00021996
0.000215236
0.000212172
0.000210048
0.000207545
0.000213818
0.000207866
0.000414613
0.000492397
0.000324726
)
;
    }
    sWall
    {
        type            compressible::alphatWallFunction;
        Prt             0.85;
        value           uniform 0.000243622;
    }
    nWall
    {
        type            compressible::alphatWallFunction;
        Prt             0.85;
        value           nonuniform List<scalar> 6(9.3626e-05 0.000117375 0.000138462 0.000219189 0.000247148 0.000207383);
    }
    sideWalls
    {
        type            empty;
    }
    glass1
    {
        type            compressible::alphatWallFunction;
        Prt             0.85;
        value           nonuniform List<scalar> 9(0.000142873 0.000195855 0.000239479 0.000281037 0.000322735 0.000366052 0.000407615 0.000418081 0.000409706);
    }
    glass2
    {
        type            compressible::alphatWallFunction;
        Prt             0.85;
        value           nonuniform List<scalar> 2(0.000172915 0.000184836);
    }
    sun
    {
        type            compressible::alphatWallFunction;
        Prt             0.85;
        value           nonuniform List<scalar> 
14
(
0.000145961
0.000158279
0.000160602
0.000167977
0.00017473
0.000180976
0.000186997
0.000193156
0.000198409
0.00020193
0.000202988
0.000200827
0.000194679
0.000183792
)
;
    }
    heatsource1
    {
        type            compressible::alphatWallFunction;
        Prt             0.85;
        value           nonuniform List<scalar> 3(9.97285e-05 9.80784e-05 9.38273e-05);
    }
    heatsource2
    {
        type            compressible::alphatWallFunction;
        Prt             0.85;
        value           nonuniform List<scalar> 4(0.000175422 0.000110559 0.000110558 0.000171077);
    }
    Table_master
    {
        type            compressible::alphatWallFunction;
        Prt             0.85;
        value           nonuniform List<scalar> 9(0.00013449 0.000118696 0.000106038 9.58444e-05 8.75625e-05 8.07723e-05 7.5181e-05 7.06349e-05 6.71799e-05);
    }
    Table_slave
    {
        type            compressible::alphatWallFunction;
        Prt             0.85;
        value           nonuniform List<scalar> 9(0.000148119 0.000135913 0.000128078 0.000122804 0.000118801 0.000115034 0.000110606 0.000106023 0.000100511);
    }
    inlet
    {
        type            fixedValue;
        value           uniform 1.94e-05;
    }
    outlet
    {
        type            zeroGradient;
    }
}


// ************************************************************************* //
