// -*- C++ -*-
// File generated by PyFoam - sorry for the ugliness

FoamFile
{
 version 2.0;
 format ascii;
 class volVectorField;
 location "200";
 object U;
}

dimensions [ 0 1 -1 0 0 0 0 ];

internalField nonuniform List<vector> 459
(
  (0.0277477 0.0873109 0)
  (-0.170445 0.0271032 0)
  (-0.197864 0.0175047 0)
  (-0.228411 0.0105698 0)
  (-0.248425 0.0030746 0)
  (-0.256561 -0.00479637 0)
  (-0.250941 -0.0130002 0)
  (-0.231993 -0.0213189 0)
  (-0.201267 -0.0284354 0)
  (-0.162279 -0.0330703 0)
  (-0.119625 -0.0345302 0)
  (-0.0779787 -0.0324499 0)
  (-0.0414253 -0.0264171 0)
  (-0.0137802 -0.0156253 0)
  (-0.0177003 -0.000839283 0)
  (-0.0126952 0.0101601 0)
  (-0.0322332 -0.0156572 0)
  (-0.01112 -0.0272286 0)
  (0.0152254 -0.0230014 0)
  (0.0323401 -0.0165661 0)
  (0.0474002 -0.0111906 0)
  (0.0573664 -0.00658402 0)
  (0.0628317 -0.00409684 0)
  (0.0654123 -0.00309866 0)
  (0.0667548 -0.0026641 0)
  (0.067662 -0.00238154 0)
  (0.0682812 -0.00214321 0)
  (0.0685352 -0.00187295 0)
  (0.0681894 -0.00137278 0)
  (0.0666459 -0.000251354 0)
  (0.0626241 0.00205564 0)
  (0.0546826 0.00477877 0)
  (0.0447913 0.00789141 0)
  (-0.00324905 0.0222122 0)
  (0.197542 0.178485 0)
  (-0.156327 0.0718423 0)
  (-0.158565 0.0538052 0)
  (-0.189972 0.0393118 0)
  (-0.209921 0.0229062 0)
  (-0.218465 0.00459098 0)
  (-0.213541 -0.0154432 0)
  (-0.19601 -0.0351082 0)
  (-0.1681 -0.051067 0)
  (-0.13368 -0.0607213 0)
  (-0.0969987 -0.0632883 0)
  (-0.0618896 -0.0589137 0)
  (-0.0314166 -0.0479929 0)
  (-0.0072793 -0.0307524 0)
  (0.00702197 -0.0122559 0)
  (0.0169026 0.000231884 0)
  (0.0140139 0.018997 0)
  (0.0481353 0.0390978 0)
  (0.0209832 -0.0200956 0)
  (0.0322003 -0.0344799 0)
  (0.0443727 -0.0318564 0)
  (0.0546777 -0.0240907 0)
  (0.0627732 -0.0160433 0)
  (0.066562 -0.00719928 0)
  (0.0674377 -0.00201663 0)
  (0.0674256 7.10309e-05 0)
  (0.0675613 0.000932927 0)
  (0.0678173 0.00143759 0)
  (0.0680086 0.00184724 0)
  (0.0680961 0.00238965 0)
  (0.0680052 0.00339773 0)
  (0.067212 0.00580201 0)
  (0.0632728 0.0122534 0)
  (0.0534174 0.0181793 0)
  (0.0453004 0.023594 0)
  (-0.0372191 0.0471953 0)
  (0.35349 0.26658 0)
  (-0.168983 0.113151 0)
  (-0.11884 0.0863596 0)
  (-0.148914 0.0612604 0)
  (-0.166708 0.0342836 0)
  (-0.17415 0.00443263 0)
  (-0.167699 -0.0277539 0)
  (-0.149527 -0.0583914 0)
  (-0.122997 -0.0818842 0)
  (-0.0925915 -0.0946221 0)
  (-0.0618513 -0.0964739 0)
  (-0.0333705 -0.0884556 0)
  (-0.00910536 -0.0721086 0)
  (0.0113371 -0.0480465 0)
  (0.0252182 -0.0230069 0)
  (0.0331156 0.00171537 0)
  (0.0348475 0.0376125 0)
  (0.105049 -0.0196526 0)
  (0.0752695 -0.0369916 0)
  (0.0712728 -0.0413302 0)
  (0.0730256 -0.0374407 0)
  (0.0747527 -0.0297774 0)
  (0.0767276 -0.0227016 0)
  (0.0757249 -0.017778 0)
  (0.0697337 -0.0121056 0)
  (0.0652063 -0.00901994 0)
  (0.0630882 -0.00726725 0)
  (0.0620954 -0.00614189 0)
  (0.0614742 -0.00536339 0)
  (0.0611782 -0.00471073 0)
  (0.0617528 -0.00371314 0)
  (0.0644596 -0.000289662 0)
  (0.0624661 0.017272 0)
  (0.0495792 0.0299386 0)
  (0.0482552 0.0400075 0)
  (-0.0689107 0.0727764 0)
  (0.494988 0.337209 0)
  (-0.199535 0.149123 0)
  (-0.0773772 0.114037 0)
  (-0.10504 0.0800491 0)
  (-0.117729 0.0446212 0)
  (-0.120798 0.00399668 0)
  (-0.108439 -0.040805 0)
  (-0.0880531 -0.0815075 0)
  (-0.0633569 -0.110505 0)
  (-0.03879 -0.124207 0)
  (-0.0160154 -0.124319 0)
  (0.00430138 -0.112429 0)
  (0.02086 -0.0918012 0)
  (0.0352324 -0.0653713 0)
  (0.0484888 -0.0367271 0)
  (0.0635989 -0.00823059 0)
  (0.0837535 0.024168 0)
  (0.115334 0.0266864 0)
  (0.117298 -0.0163838 0)
  (0.102687 -0.0323677 0)
  (0.0920665 -0.0353056 0)
  (0.0849114 -0.0326911 0)
  (0.0792257 -0.0268553 0)
  (0.0748814 -0.0188005 0)
  (0.0748907 -0.0108987 0)
  (0.0796682 -0.0075058 0)
  (0.0832978 -0.00562112 0)
  (0.084899 -0.00437263 0)
  (0.085156 -0.00317114 0)
  (0.0838163 -0.001672 0)
  (0.0801519 0.000350194 0)
  (0.0728978 0.00326549 0)
  (0.0590713 0.0077107 0)
  (0.0475873 0.0278971 0)
  (0.0371755 0.0445242 0)
  (0.0504465 0.0585278 0)
  (-0.101384 0.0948469 0)
  (0.618016 0.391534 0)
  (-0.238773 0.177752 0)
  (-0.0367935 0.129792 0)
  (-0.0588116 0.090679 0)
  (-0.0631203 0.0498164 0)
  (-0.0545054 -0.000288338 0)
  (-0.0323964 -0.0574408 0)
  (-0.0105685 -0.103988 0)
  (0.00950614 -0.133899 0)
  (0.0247245 -0.144527 0)
  (0.036523 -0.140986 0)
  (0.0452567 -0.126385 0)
  (0.0518928 -0.103903 0)
  (0.0578449 -0.0767002 0)
  (0.0644487 -0.048468 0)
  (0.0734383 -0.0231172 0)
  (0.0870148 -0.00681042 0)
  (0.0973586 -0.0130438 0)
  (0.0971 -0.0242694 0)
  (0.0895215 -0.0281155 0)
  (0.0798337 -0.0275453 0)
  (0.0710946 -0.0248629 0)
  (0.0638148 -0.0204621 0)
  (0.058504 -0.0143996 0)
  (0.0563596 -0.00689472 0)
  (0.0571788 -0.0029498 0)
  (0.0583673 -0.00138286 0)
  (0.0593325 -0.00036874 0)
  (0.0602299 0.00123252 0)
  (0.0606154 0.00388848 0)
  (0.0597127 0.00785852 0)
  (0.0569266 0.0134701 0)
  (0.0514454 0.0214444 0)
  (0.04509 0.0364766 0)
  (0.0366045 0.0542992 0)
  (0.0586871 0.0742877 0)
  (-0.0189673 0.10528 0)
  (0.0461558 0.0344883 0)
  (-0.0595634 -0.0331695 0)
  (-0.267001 -0.055412 0)
  (0.708454 0.43618 0)
  (-0.278109 0.195957 0)
  (-0.00549633 0.124916 0)
  (-0.010076 0.0895139 0)
  (-0.000936061 0.0438835 0)
  (0.0318341 -0.0199458 0)
  (0.0592395 -0.0797237 0)
  (0.0779392 -0.122062 0)
  (0.088316 -0.145641 0)
  (0.0917174 -0.152198 0)
  (0.0902319 -0.145166 0)
  (0.0855504 -0.128117 0)
  (0.0795244 -0.10462 0)
  (0.073923 -0.0778941 0)
  (0.0701821 -0.0513067 0)
  (0.0693784 -0.0285513 0)
  (0.0717746 -0.0137468 0)
  (0.0730902 -0.011314 0)
  (0.0695309 -0.0146334 0)
  (0.0618669 -0.0174786 0)
  (0.0528593 -0.0179988 0)
  (0.04459 -0.016687 0)
  (0.0377482 -0.0139664 0)
  (0.0328319 -0.0100922 0)
  (0.0303929 -0.00587349 0)
  (0.0302795 -0.00376572 0)
  (0.0313396 -0.00317453 0)
  (0.0330838 -0.00273193 0)
  (0.0353684 -0.00130886 0)
  (0.0382592 0.00193526 0)
  (0.0405737 0.00718485 0)
  (0.042094 0.0144869 0)
  (0.042828 0.0242243 0)
  (0.0439616 0.0379405 0)
  (0.0438811 0.0549845 0)
  (0.0669716 0.0770022 0)
  (0.0493759 0.0961169 0)
  (0.0905033 0.0668259 0)
  (0.113428 0.0438718 0)
  (-0.126155 -0.00615081 0)
  (0.767188 0.476666 0)
  (-0.297053 0.179565 0)
  (0.0266142 0.0693211 0)
  (0.0579655 0.0528005 0)
  (0.0919137 0.0104972 0)
  (0.135895 -0.0526687 0)
  (0.161754 -0.10234 0)
  (0.171924 -0.133294 0)
  (0.169021 -0.146991 0)
  (0.156485 -0.146241 0)
  (0.137987 -0.134413 0)
  (0.116763 -0.115081 0)
  (0.0956139 -0.0916261 0)
  (0.0766377 -0.0666608 0)
  (0.0613031 -0.0428357 0)
  (0.0504076 -0.023336 0)
  (0.0437244 -0.0108736 0)
  (0.0388914 -0.00682759 0)
  (0.0332705 -0.0077518 0)
  (0.0263059 -0.00957967 0)
  (0.0189872 -0.0103344 0)
  (0.0123139 -0.00991889 0)
  (0.00682302 -0.00861076 0)
  (0.00297721 -0.00671896 0)
  (0.00117425 -0.00494778 0)
  (0.00125357 -0.00444809 0)
  (0.00253478 -0.00488487 0)
  (0.00467491 -0.00530978 0)
  (0.00765405 -0.0047455 0)
  (0.0116244 -0.00212083 0)
  (0.0174904 0.00346854 0)
  (0.0230462 0.0110731 0)
  (0.0289699 0.020538 0)
  (0.0366824 0.0324038 0)
  (0.0450782 0.0461029 0)
  (0.0674684 0.0636684 0)
  (0.0815734 0.0718643 0)
  (0.114449 0.0497108 0)
  (0.153941 0.0424176 0)
  (-0.034251 0.0912624 0)
  (0.874152 0.474862 0)
  (-0.0531643 0.156237 0)
  (0.11849 -0.019889 0)
  (0.206887 -0.0641401 0)
  (0.255176 -0.0866384 0)
  (0.277723 -0.108645 0)
  (0.28148 -0.125459 0)
  (0.267947 -0.133096 0)
  (0.240569 -0.131291 0)
  (0.204402 -0.121394 0)
  (0.164387 -0.105221 0)
  (0.124599 -0.0852179 0)
  (0.0881609 -0.0638876 0)
  (0.0568003 -0.042815 0)
  (0.0320366 -0.0238268 0)
  (0.0147372 -0.00977522 0)
  (0.00397572 -0.00214569 0)
  (-0.00237498 -0.000364968 0)
  (-0.0071367 -0.00167267 0)
  (-0.0121116 -0.00341232 0)
  (-0.017129 -0.00450176 0)
  (-0.0217162 -0.0048878 0)
  (-0.0255054 -0.00479706 0)
  (-0.0281615 -0.00455109 0)
  (-0.029495 -0.00461953 0)
  (-0.0297141 -0.00542903 0)
  (-0.0292664 -0.006769 0)
  (-0.0283844 -0.00811473 0)
  (-0.0270006 -0.00887953 0)
  (-0.0247557 -0.00839286 0)
  (-0.0206889 -0.00586369 0)
  (-0.012192 -0.000758529 0)
  (-0.00437552 0.005833 0)
  (0.00675809 0.0131227 0)
  (0.0185124 0.0193549 0)
  (0.0380207 0.0261992 0)
  (0.0565901 0.0199668 0)
  (0.075896 -0.00589577 0)
  (0.133602 0.0398292 0)
  (-0.406097 0.201733 0)
  (1.02405 0.423684 0)
  (0.486993 0.279129 0)
  (0.503774 0.176845 0)
  (0.534315 0.0930143 0)
  (0.507886 0.0293382 0)
  (0.454937 -0.020461 0)
  (0.395287 -0.0538794 0)
  (0.331586 -0.0706438 0)
  (0.265296 -0.0737575 0)
  (0.199984 -0.0674208 0)
  (0.139118 -0.0550053 0)
  (0.0856435 -0.0396041 0)
  (0.0410758 -0.0238124 0)
  (0.00422622 -0.00922127 0)
  (-0.0209937 0.000553294 0)
  (-0.0337476 0.00450299 0)
  (-0.0401272 0.0052862 0)
  (-0.0435868 0.00418906 0)
  (-0.0464059 0.00230338 0)
  (-0.049206 0.000506721 0)
  (-0.0521203 -0.000854916 0)
  (-0.0550203 -0.00181982 0)
  (-0.0576942 -0.00258194 0)
  (-0.0599552 -0.00336796 0)
  (-0.0618262 -0.00437397 0)
  (-0.0635962 -0.00567137 0)
  (-0.0657054 -0.00703221 0)
  (-0.0685755 -0.00803664 0)
  (-0.0725973 -0.00812653 0)
  (-0.0782045 -0.00658345 0)
  (-0.0859732 -0.00256023 0)
  (-0.0955301 0.00436142 0)
  (-0.105913 0.0139661 0)
  (-0.121144 0.0265448 0)
  (-0.144645 0.0421442 0)
  (-0.178789 0.0595995 0)
  (-0.226795 0.0749957 0)
  (-0.281776 0.0855365 0)
  (-0.348235 0.0913451 0)
  (-0.602968 0.0933089 0)
  (-0.114197 -0.0118734 0)
  (0.108071 -0.0344674 0)
  (0.178392 -0.0632014 0)
  (0.163503 -0.0599153 0)
  (0.139615 -0.047527 0)
  (0.109847 -0.0343916 0)
  (0.0746399 -0.0217213 0)
  (0.0358766 -0.00961869 0)
  (-0.00435129 0.00135867 0)
  (-0.0354983 0.00843198 0)
  (-0.0560976 0.0122849 0)
  (-0.0679589 0.0135864 0)
  (-0.0739109 0.0130071 0)
  (-0.0767642 0.0116899 0)
  (-0.0782919 0.0104348 0)
  (-0.0794696 0.00928313 0)
  (-0.0809177 0.00836249 0)
  (-0.082767 0.0078761 0)
  (-0.0848858 0.00785815 0)
  (-0.0870602 0.00813427 0)
  (-0.0891874 0.00846178 0)
  (-0.0913122 0.00861971 0)
  (-0.0935652 0.0084253 0)
  (-0.096188 0.00782058 0)
  (-0.0993577 0.00708499 0)
  (-0.103153 0.00662073 0)
  (-0.107552 0.00680326 0)
  (-0.112283 0.00818293 0)
  (-0.116716 0.0114348 0)
  (-0.120639 0.0175004 0)
  (-0.124018 0.0273897 0)
  (-0.127026 0.0415403 0)
  (-0.130167 0.059151 0)
  (-0.133733 0.0768969 0)
  (-0.134646 0.0857093 0)
  (-0.115818 0.0658653 0)
  (-0.0652961 -0.0217 0)
  (-0.269431 -0.197218 0)
  (0.0533888 0.18279 0)
  (0.0269165 0.052398 0)
  (-0.00961062 -0.00571073 0)
  (-0.036246 -0.00922452 0)
  (-0.0612357 -0.00308094 0)
  (-0.0823216 0.00157412 0)
  (-0.0989915 0.0056232 0)
  (-0.109024 0.0083095 0)
  (-0.114212 0.00851296 0)
  (-0.116313 0.00610253 0)
  (-0.115871 0.00264388 0)
  (-0.113754 -0.000915638 0)
  (-0.110939 -0.00464035 0)
  (-0.108309 -0.00853708 0)
  (-0.106287 -0.0124345 0)
  (-0.105027 -0.0164411 0)
  (-0.104583 -0.0206234 0)
  (-0.104862 -0.0248552 0)
  (-0.105675 -0.0289036 0)
  (-0.106829 -0.0325284 0)
  (-0.108193 -0.0355156 0)
  (-0.109701 -0.0376828 0)
  (-0.111332 -0.0388554 0)
  (-0.113074 -0.0388306 0)
  (-0.114863 -0.0374935 0)
  (-0.116488 -0.0346801 0)
  (-0.117636 -0.0301441 0)
  (-0.117968 -0.0237609 0)
  (-0.116944 -0.015433 0)
  (-0.113623 -0.00484201 0)
  (-0.106726 0.00856212 0)
  (-0.0950883 0.0253114 0)
  (-0.0782523 0.0447124 0)
  (-0.0568012 0.0624886 0)
  (-0.0340925 0.0721596 0)
  (0.00767486 0.0539938 0)
  (0.141058 -0.0136777 0)
  (-0.201631 -0.105477 0)
  (-0.0436004 -0.317808 0)
  (-0.411717 -0.124192 0)
  (-0.302164 0.0590733 0)
  (-0.269344 -0.00929841 0)
  (-0.23279 -0.00870597 0)
  (-0.226461 0.00168045 0)
  (-0.222905 0.010763 0)
  (-0.217754 0.0186295 0)
  (-0.209763 0.0261611 0)
  (-0.198904 0.0334468 0)
  (-0.186248 0.0401092 0)
  (-0.173372 0.0459808 0)
  (-0.161462 0.0514576 0)
  (-0.151057 0.0568061 0)
  (-0.14223 0.0621834 0)
  (-0.134821 0.0678436 0)
  (-0.128548 0.0739537 0)
  (-0.123174 0.0804891 0)
  (-0.118551 0.0872509 0)
  (-0.114582 0.0938833 0)
  (-0.111184 0.0999594 0)
  (-0.108295 0.10509 0)
  (-0.105868 0.108974 0)
  (-0.103882 0.11138 0)
  (-0.102337 0.112103 0)
  (-0.101228 0.110968 0)
  (-0.100511 0.107943 0)
  (-0.100051 0.103139 0)
  (-0.0995164 0.0968756 0)
  (-0.0982542 0.089853 0)
  (-0.0951303 0.0830456 0)
  (-0.0883179 0.0775038 0)
  (-0.0754732 0.0743665 0)
  (-0.0550267 0.0748012 0)
  (-0.0279202 0.0793994 0)
  (0.0174861 0.0863933 0)
  (0.0563585 0.0859519 0)
  (0.0948346 0.0749164 0)
  (0.158803 0.0521201 0)
  (-0.237689 0.00656368 0)
)
;

boundaryField
{
  floor
  {
    type noSlip;
  }
  ceiling
  {
    type noSlip;
  }
  sWall
  {
    type noSlip;
  }
  nWall
  {
    type noSlip;
  }
  sideWalls
  {
    type empty;
  }
  glass1
  {
    type noSlip;
  }
  glass2
  {
    type noSlip;
  }
  sun
  {
    type noSlip;
  }
  heatsource1
  {
    type noSlip;
  }
  heatsource2
  {
    type noSlip;
  }
  Table_master
  {
    type noSlip;
  }
  Table_slave
  {
    type noSlip;
  }
  inlet
  {
    type fixedValue;
    value uniform (0.277164 -0.114805 0);
  }
  outlet
  {
    type zeroGradient;
  }
} 	// ************************************************************************* //

