// -*- C++ -*-
// File generated by PyFoam - sorry for the ugliness

FoamFile
{
 version 2.0;
 format ascii;
 class volVectorField;
 location "500";
 object U;
}

dimensions [ 0 1 -1 0 0 0 0 ];

internalField nonuniform List<vector> 459
(
  (-0.0269658 0.0581643 0)
  (-0.139273 -0.0153838 0)
  (-0.0960702 -0.0119543 0)
  (-0.10932 0.0121423 0)
  (-0.116502 0.00636645 0)
  (-0.137159 -0.00713807 0)
  (-0.136238 -0.0145022 0)
  (-0.121117 -0.0158155 0)
  (-0.101923 -0.0158622 0)
  (-0.084312 -0.0126266 0)
  (-0.0701829 -0.0100608 0)
  (-0.0577496 -0.00949662 0)
  (-0.044752 -0.011151 0)
  (-0.0334312 -0.0154388 0)
  (-0.0375414 -0.0209326 0)
  (0.0229746 0.00868914 0)
  (-0.0250432 -0.00409733 0)
  (-0.0144331 -0.00334576 0)
  (-0.0126815 -0.00149272 0)
  (-0.0121931 -0.00217765 0)
  (-0.00927149 -0.00371951 0)
  (-0.00367688 -0.0083252 0)
  (0.00210938 -0.00749831 0)
  (0.00887666 -0.00563976 0)
  (0.0131796 -0.00449381 0)
  (0.0166165 -0.0037003 0)
  (0.0195442 -0.00319075 0)
  (0.0217713 -0.00255462 0)
  (0.0231757 -0.00128121 0)
  (0.0222158 0.000456696 0)
  (0.0207094 0.00117033 0)
  (0.0209595 -0.00200281 0)
  (0.0287828 -0.00250253 0)
  (-0.0159949 0.010869 0)
  (0.223469 0.20941 0)
  (0.134399 -0.0170341 0)
  (0.150684 -0.0227868 0)
  (0.151654 0.0269778 0)
  (0.112928 0.064343 0)
  (0.0465175 0.0684815 0)
  (-0.0627442 0.00473272 0)
  (-0.0940689 -0.0245558 0)
  (-0.0888198 -0.029687 0)
  (-0.0788609 -0.0231883 0)
  (-0.0706017 -0.0178592 0)
  (-0.0627355 -0.0161795 0)
  (-0.0538314 -0.0181706 0)
  (-0.0437415 -0.0238142 0)
  (-0.0339027 -0.0314903 0)
  (-0.0240593 -0.0354266 0)
  (0.0179005 0.00519997 0)
  (0.100097 0.0196169 0)
  (-0.00826728 0.00097769 0)
  (-0.00506823 -0.00152681 0)
  (-0.00217107 0.00113613 0)
  (-0.00595536 0.000301303 0)
  (-0.0106465 -0.00254098 0)
  (-0.0081764 -0.0117119 0)
  (-0.00872321 -0.00854244 0)
  (-0.00456181 -0.00558916 0)
  (-0.0042428 -0.00425874 0)
  (-0.00505761 -0.0032638 0)
  (-0.00633168 -0.00184522 0)
  (-0.00862737 0.000650607 0)
  (-0.0120061 0.00324119 0)
  (-0.013641 0.00315737 0)
  (-0.0127298 -0.000484631 0)
  (-0.00556206 -0.00474539 0)
  (0.000996352 0.00173903 0)
  (-0.0935497 0.0236886 0)
  (0.509733 -0.0387311 0)
  (0.315383 -0.0963077 0)
  (0.323313 -0.0360677 0)
  (0.318785 0.0509631 0)
  (0.257663 0.11558 0)
  (0.172788 0.139986 0)
  (0.0830563 0.115872 0)
  (-0.010167 0.0416512 0)
  (-0.0601327 -0.0249865 0)
  (-0.0639121 -0.0248242 0)
  (-0.0664887 -0.0210683 0)
  (-0.066711 -0.0208308 0)
  (-0.065025 -0.0244277 0)
  (-0.0619917 -0.03094 0)
  (-0.0582681 -0.0379559 0)
  (-0.055917 -0.0414539 0)
  (-0.0611685 -0.0391013 0)
  (0.115914 0.00404949 0)
  (-0.00983617 0.00762685 0)
  (-0.0193734 0.00994412 0)
  (-0.0149661 0.00623155 0)
  (-0.0134367 0.00318129 0)
  (-0.0140318 -0.00088101 0)
  (-0.00946352 -0.0119368 0)
  (-0.0261281 -0.00963869 0)
  (-0.0322445 -0.00707907 0)
  (-0.0364742 -0.00547291 0)
  (-0.0394863 -0.00424805 0)
  (-0.0412855 -0.00321308 0)
  (-0.0414651 -0.00229299 0)
  (-0.0400757 -0.00176676 0)
  (-0.0365076 -0.00257059 0)
  (-0.0269298 -0.00373986 0)
  (-0.0221867 -0.000197531 0)
  (-0.0346376 0.00196524 0)
  (-0.100784 0.00235058 0)
  (0.566074 -0.373179 0)
  (0.22676 -0.234213 0)
  (0.273556 -0.0693177 0)
  (0.285561 0.078534 0)
  (0.236984 0.174542 0)
  (0.165705 0.211352 0)
  (0.092528 0.189295 0)
  (0.0191638 0.114459 0)
  (-0.0306002 0.00894958 0)
  (-0.0491003 -0.0128929 0)
  (-0.0604474 -0.0150935 0)
  (-0.0676212 -0.017434 0)
  (-0.0726873 -0.0222244 0)
  (-0.0771836 -0.0287357 0)
  (-0.0825837 -0.034725 0)
  (-0.091132 -0.0364689 0)
  (-0.10222 -0.0274087 0)
  (-0.0990777 0.00180783 0)
  (-0.0787333 0.0012777 0)
  (-0.0726332 0.010671 0)
  (-0.0655323 0.0089557 0)
  (-0.0630277 0.00458537 0)
  (-0.064184 0.000335932 0)
  (-0.0658692 -0.00371649 0)
  (-0.0656842 -0.0048059 0)
  (-0.0615804 -0.00533672 0)
  (-0.0568464 -0.00597607 0)
  (-0.0515289 -0.00639159 0)
  (-0.0458831 -0.00667986 0)
  (-0.0400012 -0.00695642 0)
  (-0.0336138 -0.00738364 0)
  (-0.0259934 -0.0081565 0)
  (-0.016577 -0.00929576 0)
  (-0.0107529 -0.0106721 0)
  (0.000461397 -0.00709135 0)
  (0.0152571 -0.00427309 0)
  (-0.0284018 -0.000530907 0)
  (0.541112 -0.516992 0)
  (0.036512 -0.25726 0)
  (0.13622 -0.0158785 0)
  (0.171544 0.138555 0)
  (0.140335 0.23164 0)
  (0.0929821 0.269018 0)
  (0.047604 0.243962 0)
  (0.00434882 0.157326 0)
  (-0.0214643 0.0420155 0)
  (-0.0380208 0.00684207 0)
  (-0.0517958 -0.00392164 0)
  (-0.0609141 -0.00964567 0)
  (-0.0678819 -0.0156173 0)
  (-0.0743044 -0.0223306 0)
  (-0.0812527 -0.0286053 0)
  (-0.0891068 -0.0323588 0)
  (-0.09586 -0.0301516 0)
  (-0.0982035 -0.0191617 0)
  (-0.0951082 -0.00937224 0)
  (-0.0888166 -0.000413888 0)
  (-0.0813564 0.00299556 0)
  (-0.0756881 0.00244858 0)
  (-0.0718747 0.000104994 0)
  (-0.069202 -0.00264576 0)
  (-0.0666454 -0.00430982 0)
  (-0.0635467 -0.00584801 0)
  (-0.0602438 -0.00690361 0)
  (-0.0567659 -0.00759611 0)
  (-0.0531652 -0.00808531 0)
  (-0.0494479 -0.00862284 0)
  (-0.0454385 -0.00959686 0)
  (-0.0407304 -0.0115106 0)
  (-0.0348941 -0.0148289 0)
  (-0.0274856 -0.0195409 0)
  (-0.0164197 -0.0228912 0)
  (0.00442387 -0.0251455 0)
  (0.0311254 -0.0230709 0)
  (0.0662695 -0.0281045 0)
  (0.0990766 -0.00628805 0)
  (-0.043502 0.0417659 0)
  (0.491274 -0.5875 0)
  (-0.10826 -0.283667 0)
  (0.0584079 0.000321057 0)
  (0.0669134 0.161591 0)
  (0.0364122 0.261913 0)
  (0.0117912 0.302152 0)
  (-0.00568498 0.270018 0)
  (-0.0195618 0.171885 0)
  (-0.0239567 0.0618103 0)
  (-0.0328086 0.0210795 0)
  (-0.0417441 0.00636824 0)
  (-0.0488561 -0.0019557 0)
  (-0.0545002 -0.00895881 0)
  (-0.0598656 -0.0156412 0)
  (-0.0657232 -0.0212646 0)
  (-0.0720198 -0.0243013 0)
  (-0.077346 -0.0231852 0)
  (-0.0800463 -0.0182675 0)
  (-0.0795681 -0.012209 0)
  (-0.0763013 -0.00659929 0)
  (-0.0716117 -0.00346521 0)
  (-0.0670891 -0.0028039 0)
  (-0.0634751 -0.00391325 0)
  (-0.0608848 -0.00573759 0)
  (-0.0589485 -0.00729814 0)
  (-0.0573126 -0.00862436 0)
  (-0.0559306 -0.00958725 0)
  (-0.0548299 -0.0101756 0)
  (-0.0541179 -0.0105079 0)
  (-0.0539183 -0.0108944 0)
  (-0.0542497 -0.0118963 0)
  (-0.0549624 -0.014256 0)
  (-0.0557015 -0.0186752 0)
  (-0.0555614 -0.0254478 0)
  (-0.0524767 -0.0341155 0)
  (-0.0437588 -0.0451135 0)
  (-0.0292894 -0.0576731 0)
  (-0.0107119 -0.064521 0)
  (0.071023 -0.0101921 0)
  (-0.0802243 0.0898025 0)
  (0.388532 -0.573301 0)
  (-0.169099 -0.311779 0)
  (0.0416831 -0.00590504 0)
  (-0.0292306 0.198242 0)
  (-0.054468 0.274087 0)
  (-0.0532532 0.304868 0)
  (-0.0449408 0.268433 0)
  (-0.0362307 0.169289 0)
  (-0.0268432 0.0685725 0)
  (-0.0275529 0.0277853 0)
  (-0.0302182 0.01165 0)
  (-0.0326969 0.0025958 0)
  (-0.0351856 -0.00478481 0)
  (-0.0379157 -0.0113456 0)
  (-0.0415051 -0.0165602 0)
  (-0.0457685 -0.0195039 0)
  (-0.0497461 -0.0194665 0)
  (-0.0522928 -0.0169345 0)
  (-0.0528738 -0.0131924 0)
  (-0.0516317 -0.0095128 0)
  (-0.0492695 -0.0070668 0)
  (-0.0467243 -0.00612983 0)
  (-0.0446402 -0.00644046 0)
  (-0.0432806 -0.00741165 0)
  (-0.042579 -0.00846118 0)
  (-0.0424007 -0.00933239 0)
  (-0.0427302 -0.00980747 0)
  (-0.0436768 -0.00975463 0)
  (-0.0455333 -0.00919459 0)
  (-0.0487925 -0.00845135 0)
  (-0.0539939 -0.00830414 0)
  (-0.0615378 -0.00979878 0)
  (-0.0713113 -0.0137696 0)
  (-0.0826205 -0.020749 0)
  (-0.0944147 -0.0313128 0)
  (-0.105121 -0.0459838 0)
  (-0.111317 -0.0621008 0)
  (-0.107319 -0.0654511 0)
  (-0.0935191 -0.017714 0)
  (-0.147361 0.161574 0)
  (0.206692 -0.46051 0)
  (-0.250235 -0.268222 0)
  (-0.105566 -0.0502829 0)
  (-0.104271 0.23107 0)
  (-0.129682 0.263221 0)
  (-0.0968836 0.282424 0)
  (-0.06512 0.245786 0)
  (-0.0392511 0.152151 0)
  (-0.0202421 0.0642528 0)
  (-0.0150832 0.0272487 0)
  (-0.0132059 0.0117054 0)
  (-0.0115008 0.00285498 0)
  (-0.00973542 -0.00398951 0)
  (-0.00928571 -0.00961351 0)
  (-0.010297 -0.0137666 0)
  (-0.0125617 -0.0161167 0)
  (-0.0153143 -0.0164466 0)
  (-0.0176265 -0.0150818 0)
  (-0.0189311 -0.0127738 0)
  (-0.0191474 -0.0103204 0)
  (-0.0185929 -0.00844398 0)
  (-0.0178036 -0.00743793 0)
  (-0.0172396 -0.00724554 0)
  (-0.0171585 -0.00756865 0)
  (-0.0176018 -0.00804421 0)
  (-0.0185115 -0.0083771 0)
  (-0.0198407 -0.0082652 0)
  (-0.0216015 -0.00741304 0)
  (-0.0239699 -0.00558945 0)
  (-0.0274146 -0.00275628 0)
  (-0.0324997 0.000750951 0)
  (-0.0410293 0.00381895 0)
  (-0.0553091 0.00428715 0)
  (-0.0769667 -0.000542975 0)
  (-0.106171 -0.0123913 0)
  (-0.14044 -0.0303635 0)
  (-0.174754 -0.0509913 0)
  (-0.208356 -0.0699854 0)
  (-0.260331 -0.0800775 0)
  (-0.474722 -0.0690705 0)
  (-0.0692233 -0.288834 0)
  (-0.582524 -0.194529 0)
  (-0.75232 -0.113578 0)
  (-0.162355 0.1768 0)
  (-0.19802 0.21261 0)
  (-0.11592 0.234895 0)
  (-0.0618886 0.206982 0)
  (-0.0211257 0.126042 0)
  (0.00597964 0.052045 0)
  (0.0126883 0.0222259 0)
  (0.016176 0.00892117 0)
  (0.0207947 0.00128495 0)
  (0.024903 -0.00395673 0)
  (0.0271546 -0.00764092 0)
  (0.027613 -0.0100325 0)
  (0.0265001 -0.0112288 0)
  (0.0244019 -0.0112847 0)
  (0.0220575 -0.0103895 0)
  (0.0200402 -0.00891619 0)
  (0.0186028 -0.00729675 0)
  (0.0176876 -0.00592999 0)
  (0.0170321 -0.00502579 0)
  (0.016343 -0.00459981 0)
  (0.0154072 -0.00452189 0)
  (0.014135 -0.00459271 0)
  (0.0125373 -0.0045961 0)
  (0.0106973 -0.0042731 0)
  (0.00876641 -0.00331329 0)
  (0.00692722 -0.00138854 0)
  (0.00534226 0.00175176 0)
  (0.00434284 0.00624408 0)
  (0.00337055 0.0118044 0)
  (0.00223633 0.0171477 0)
  (0.000581057 0.0200935 0)
  (-0.00127135 0.0185226 0)
  (-0.00384734 0.0113105 0)
  (-0.0070256 -0.000417298 0)
  (0.00303562 -0.0165313 0)
  (0.0367582 -0.0844375 0)
  (-0.377595 -0.190784 0)
  (-1.84349 -0.151216 0)
  (-0.0525611 -0.0215567 0)
  (-0.195974 0.100221 0)
  (-0.0920176 0.164243 0)
  (-0.0258826 0.155526 0)
  (0.0296818 0.0881503 0)
  (0.0554533 0.0425861 0)
  (0.0633347 0.0213705 0)
  (0.0669303 0.0109564 0)
  (0.0713979 0.0033839 0)
  (0.0737144 -0.00143003 0)
  (0.0741231 -0.00406315 0)
  (0.0729316 -0.00526658 0)
  (0.07053 -0.00553475 0)
  (0.067412 -0.00515341 0)
  (0.0640955 -0.00433182 0)
  (0.0609962 -0.00327879 0)
  (0.0583427 -0.00220023 0)
  (0.0561627 -0.00127669 0)
  (0.054331 -0.000612358 0)
  (0.0526591 -0.000219914 0)
  (0.0509734 -3.18837e-05 0)
  (0.0491623 7.19211e-05 0)
  (0.0471936 0.000243297 0)
  (0.0451237 0.000673794 0)
  (0.0431222 0.00160383 0)
  (0.0414947 0.00330439 0)
  (0.0406724 0.00594836 0)
  (0.0408413 0.00918987 0)
  (0.0425027 0.0130925 0)
  (0.0458361 0.0164017 0)
  (0.0505795 0.0167959 0)
  (0.0562512 0.0119608 0)
  (0.0628953 0.000555841 0)
  (0.0676918 -0.0149415 0)
  (0.0743139 -0.0320731 0)
  (0.108687 -0.0686669 0)
  (-0.0733441 -0.13184 0)
  (-0.743196 0.0570591 0)
  (0.268894 -0.101743 0)
  (-0.0599926 -0.0407031 0)
  (-0.0240689 0.0661772 0)
  (0.0490092 0.0705248 0)
  (0.101684 0.0253096 0)
  (0.128334 -0.0132416 0)
  (0.138031 -0.0413997 0)
  (0.140529 -0.06178 0)
  (0.138512 -0.0723938 0)
  (0.133818 -0.0770942 0)
  (0.127725 -0.0783814 0)
  (0.121172 -0.0777804 0)
  (0.114759 -0.0761914 0)
  (0.108845 -0.0741732 0)
  (0.10363 -0.0720979 0)
  (0.0991933 -0.0702095 0)
  (0.0955028 -0.0686438 0)
  (0.0924324 -0.0674439 0)
  (0.0897981 -0.0665783 0)
  (0.087407 -0.0659661 0)
  (0.0851014 -0.0655026 0)
  (0.0827873 -0.0650809 0)
  (0.080446 -0.0646021 0)
  (0.0781396 -0.0639752 0)
  (0.0760197 -0.0631124 0)
  (0.0743706 -0.061882 0)
  (0.0736944 -0.059486 0)
  (0.0741999 -0.0551585 0)
  (0.0763384 -0.0498814 0)
  (0.0803413 -0.0455457 0)
  (0.0856641 -0.0448631 0)
  (0.0911187 -0.0493233 0)
  (0.0946364 -0.0547353 0)
  (0.0938596 -0.0604307 0)
  (0.0866662 -0.0657562 0)
  (0.118034 -0.0779139 0)
  (-0.104933 -0.0954801 0)
  (0.623105 0.186661 0)
  (0.180659 -0.241725 0)
  (-0.324947 0.167101 0)
  (0.180812 0.0750649 0)
  (0.0535424 0.141835 0)
  (0.0422475 0.153825 0)
  (0.10955 0.152888 0)
  (0.161404 0.152035 0)
  (0.188196 0.159007 0)
  (0.196929 0.171564 0)
  (0.196293 0.185749 0)
  (0.19135 0.195323 0)
  (0.18524 0.201027 0)
  (0.178839 0.203779 0)
  (0.172443 0.204397 0)
  (0.16625 0.203637 0)
  (0.160384 0.20217 0)
  (0.154903 0.200522 0)
  (0.14982 0.199044 0)
  (0.145123 0.197917 0)
  (0.140774 0.197191 0)
  (0.136725 0.196821 0)
  (0.132931 0.196711 0)
  (0.129363 0.196741 0)
  (0.126015 0.19679 0)
  (0.12291 0.196748 0)
  (0.120099 0.196517 0)
  (0.117666 0.196009 0)
  (0.115757 0.195138 0)
  (0.114545 0.192962 0)
  (0.114348 0.188513 0)
  (0.115533 0.182499 0)
  (0.117907 0.176209 0)
  (0.120444 0.171468 0)
  (0.121041 0.169201 0)
  (0.116689 0.164218 0)
  (0.105079 0.156763 0)
  (0.079733 0.146787 0)
  (0.141092 0.125963 0)
  (-0.357757 0.205479 0)
)
;

boundaryField
{
  floor
  {
    type noSlip;
  }
  ceiling
  {
    type noSlip;
  }
  sWall
  {
    type noSlip;
  }
  nWall
  {
    type noSlip;
  }
  sideWalls
  {
    type empty;
  }
  glass1
  {
    type noSlip;
  }
  glass2
  {
    type noSlip;
  }
  sun
  {
    type noSlip;
  }
  heatsource1
  {
    type noSlip;
  }
  heatsource2
  {
    type noSlip;
  }
  Table_master
  {
    type noSlip;
  }
  Table_slave
  {
    type noSlip;
  }
  inlet
  {
    type fixedValue;
    value uniform (0.1 0 0);
  }
  outlet
  {
    type zeroGradient;
  }
} 	// ************************************************************************* //

