/*--------------------------------*- C++ -*----------------------------------*\
  =========                 |
  \\      /  F ield         | OpenFOAM: The Open Source CFD Toolbox
   \\    /   O peration     | Website:  https://openfoam.org
    \\  /    A nd           | Version:  6
     \\/     M anipulation  |
\*---------------------------------------------------------------------------*/
FoamFile
{
    version     2.0;
    format      ascii;
    class       surfaceScalarField;
    location    "1200";
    object      phi;
}
// * * * * * * * * * * * * * * * * * * * * * * * * * * * * * * * * * * * * * //

dimensions      [1 0 -1 0 0 0 0];

internalField   nonuniform List<scalar> 
852
(
-0.00291724
0.00297346
-0.00393011
0.00101287
-0.00471189
0.000781781
-0.00533572
0.000623829
-0.00577419
0.00043847
-0.00600686
0.000232666
-0.00601223
5.36834e-06
-0.00576866
-0.000243573
-0.00527568
-0.000492988
-0.0045696
-0.000706078
-0.0037182
-0.000851402
-0.00280424
-0.000913964
-0.00189686
-0.000907386
-0.00100385
-0.000893008
-0.00100248
-0.000624826
0.000627474
-0.00024965
-0.000375176
0.00036337
-0.000613019
0.000815966
-0.000452596
0.00110442
-0.000288449
0.00127613
-0.000171712
0.00136662
-9.04936e-05
0.00141204
-4.54188e-05
0.00143762
-2.55696e-05
0.00145266
-1.50385e-05
0.00146029
-7.63165e-06
0.00146136
-1.07404e-06
0.00145367
7.69502e-06
0.00142852
2.51586e-05
0.00136323
6.52906e-05
0.00121995
0.000143277
0.000984215
0.00023574
0.000694981
0.000289238
0.000698574
-0.00207811
0.00520289
-0.00306338
0.00199813
-0.00386207
0.00158047
-0.00447005
0.00123181
-0.00489524
0.000863651
-0.00512755
0.000464972
-0.00514318
2.10001e-05
-0.00492062
-0.000466136
-0.00446803
-0.000945588
-0.00383322
-0.00134089
-0.00308921
-0.00159542
-0.00231696
-0.00168622
-0.00159138
-0.00163297
-0.00101454
-0.00146985
-0.000828708
-0.00118831
-0.000196684
-0.000632076
-0.000196736
0.000462227
0.000172688
0.000881597
-0.000794546
0.00111328
-0.000844698
0.00130923
-0.000648548
0.00144868
-0.000427898
0.0015233
-0.000246335
0.00153244
-9.96322e-05
0.00153537
-4.83392e-05
0.00153888
-2.9085e-05
0.00154181
-1.79676e-05
0.00154379
-9.60621e-06
0.00154464
-1.91818e-06
0.00154337
8.95858e-06
0.00153633
3.22035e-05
0.00149448
0.000107147
0.00131794
0.000319818
0.00101242
0.000541265
0.000626647
0.000675011
0.00133443
-0.00145444
0.0068886
-0.00230369
0.00284738
-0.00300434
0.00228112
-0.00351611
0.00174359
-0.00388062
0.00122815
-0.00408545
0.000669794
-0.00409045
2.59939e-05
-0.00385987
-0.000696719
-0.00341725
-0.00138821
-0.00282838
-0.00192977
-0.00216907
-0.00225474
-0.00151171
-0.00234359
-0.000913108
-0.00223157
-0.000437437
-0.00194553
-0.000115979
-0.00150978
0.000144164
-0.000892222
-5.25728e-05
0.00146764
-0.00128727
0.00167993
-0.00100684
0.00166657
-0.000831345
0.00167218
-0.000654151
0.00169258
-0.000448298
0.00168446
-0.000238217
0.00158498
0.0015368
0.00150787
0.00149005
0.0014806
0.00147884
0.00148795
0.00152031
0.00162761
0.00134687
0.000600569
0.00100263
0.000885507
0.000558823
0.00111882
0.00190729
-0.00101801
0.00820577
-0.00169366
0.00352304
-0.00214687
0.00273432
-0.00247274
0.00206945
-0.00270928
0.00146469
-0.0028355
0.000796012
-0.00278053
-2.89848e-05
-0.00250083
-0.00097642
-0.00205771
-0.00183134
-0.00153484
-0.00245265
-0.000998925
-0.00279067
-0.000500688
-0.00284184
-6.26798e-05
-0.00266959
0.000304371
-0.00231259
0.000624877
-0.00183029
0.00100401
-0.00127136
0.00171139
-0.000759955
0.00235758
-0.000639107
0.00193224
-0.000861924
0.00182155
-0.000896149
0.00173412
-0.000743914
0.00166263
-0.000582654
0.00163405
-0.000419717
0.00164844
-0.000252606
0.00175518
-0.00010689
0.00182977
-7.47443e-05
0.00189252
-6.2902e-05
0.00194166
-4.92895e-05
0.00196271
-2.11932e-05
0.00193444
2.81117e-05
0.00183267
0.000101621
0.00162602
0.000206502
0.00126142
0.000364455
0.00113489
0.000727099
0.000849084
0.00117132
0.000406292
0.00156161
0.00233199
-0.000716582
0.00927902
-0.00123393
0.00404038
-0.00131548
0.00281588
-0.00136632
0.00212028
-0.00139811
0.00149649
-0.00136242
0.000760318
-0.00116359
-0.000227815
-0.000805999
-0.00133402
-0.000387934
-0.00224941
1.40375e-05
-0.00285464
0.000356566
-0.00313321
0.000627492
-0.00311278
0.000832251
-0.00287436
0.000996814
-0.00247716
0.00115351
-0.00198699
0.00135295
-0.0014708
0.00162295
-0.00102995
0.00178747
-0.000803626
0.00169426
-0.00076872
0.00153023
-0.000732117
0.00140098
-0.000614664
0.00130186
-0.000483535
0.00124265
-0.000360499
0.0012352
-0.000245155
0.00128962
-0.000161311
0.00134665
-0.000131767
0.00140748
-0.000123726
0.00146772
-0.000109527
0.00151618
-6.96547e-05
0.0015332
1.11018e-05
0.00149888
0.000135942
0.00140259
0.000302804
0.00124528
0.000521761
0.00110932
0.000863068
0.000963602
0.00131704
0.000641836
0.00188338
0.000557004
0.00241683
-0.000981491
0.0015383
-0.00144355
0.000461865
-0.00139663
-0.000628984
0.0103131
-0.000991565
0.00440296
-0.000569419
0.00239373
-0.000216144
0.00176701
4.90038e-05
0.00123134
0.000351649
0.000457676
0.000777475
-0.000653641
0.00119441
-0.00175096
0.00151122
-0.00256623
0.00170144
-0.00304487
0.0017741
-0.00320588
0.00176188
-0.00310057
0.00168924
-0.00280173
0.00159
-0.00237792
0.0014983
-0.0018953
0.00144272
-0.00141522
0.00142139
-0.00100862
0.00136487
-0.000747111
0.00122104
-0.00062489
0.00103444
-0.000545518
0.000876963
-0.000457185
0.000764566
-0.000371137
0.000701444
-0.000297375
0.000692461
-0.000236168
0.000729552
-0.000198398
0.000788227
-0.000190438
0.000859152
-0.000194647
0.000938054
-0.000188424
0.00101915
-0.000150745
0.00109023
-5.99693e-05
0.00113391
9.22691e-05
0.00114753
0.000289184
0.0011397
0.0005296
0.00115927
0.000843496
0.00125419
0.00122213
0.00143644
0.00170115
0.00187237
0.00198091
0.00212533
0.00128533
0.00173323
0.000853966
0.000393171
-0.000696739
0.0114586
-0.000593337
0.00429956
0.000513507
0.00128689
0.00125678
0.00102374
0.00183093
0.000657194
0.00244797
-0.00015936
0.00303209
-0.00123776
0.00338733
-0.00210621
0.00349536
-0.00267427
0.00339171
-0.00294124
0.00312855
-0.00294274
0.00276597
-0.00273801
0.00235701
-0.00239278
0.00194809
-0.00196901
0.00157666
-0.00152388
0.00126418
-0.00110274
0.00101232
-0.000756764
0.000794502
-0.000529295
0.000580496
-0.000410882
0.000383507
-0.000348527
0.000230025
-0.000303701
0.000128313
-0.000269421
7.62964e-05
-0.000245354
7.07487e-05
-0.000230616
0.000101383
-0.000229028
0.000152677
-0.000241727
0.000216294
-0.000258258
0.000292101
-0.000264225
0.000384626
-0.000243264
0.000498637
-0.000173975
0.000620013
-2.91007e-05
0.00073918
0.000170024
0.000868991
0.000399795
0.00104876
0.000663728
0.0013274
0.000943496
0.00176546
0.0012631
0.00242792
0.00131844
0.00296274
0.000750525
0.00299045
0.000826262
0.00344539
0.00255497
0.00940556
0.00323438
0.00362015
0.00358328
0.000937986
0.0041276
0.000479421
0.00481875
-3.39445e-05
0.00550357
-0.000844184
0.00583435
-0.00156855
0.00579164
-0.00206352
0.00543471
-0.00231736
0.00484707
-0.00235363
0.00411878
-0.00221447
0.00333501
-0.00195425
0.00256208
-0.00161985
0.00184877
-0.0012557
0.00123118
-0.000906286
0.00072304
-0.000594603
0.000330146
-0.00036387
3.65055e-05
-0.000235652
-0.000186596
-0.000187778
-0.000354011
-0.000181109
-0.000472877
-0.00018483
-0.000550207
-0.000192087
-0.000593457
-0.000202099
-0.000608967
-0.000215101
-0.000605017
-0.000232972
-0.000591397
-0.000255341
-0.000572975
-0.000276674
-0.000548105
-0.000289089
-0.000507979
-0.000283383
-0.00043334
-0.000248607
-0.00029454
-0.000167894
-0.000113307
-1.12032e-05
9.61615e-05
0.000190333
0.00036301
0.000396886
0.000701035
0.000605476
0.00115344
0.000810693
0.001659
0.000812897
0.00188085
0.000528675
0.00112749
0.00157963
0.00482166
0.00995551
0.0135672
0.0123938
0.00211146
0.0116473
0.00122589
0.0110249
0.000588436
0.0102432
-6.24442e-05
0.00919094
-0.000516369
0.00796391
-0.000836527
0.00665462
-0.00100809
0.00533363
-0.00103267
0.00406364
-0.000944493
0.00289932
-0.000789935
0.00186946
-0.000589993
0.000990753
-0.000376994
0.000277933
-0.000193464
-0.000253069
-6.35974e-05
-0.000604465
-1.247e-05
-0.000826305
-1.38076e-05
-0.000977948
-3.6131e-05
-0.00109334
-6.57068e-05
-0.0011826
-9.55716e-05
-0.00125238
-0.0001223
-0.00130859
-0.000145879
-0.00135698
-0.000166704
-0.00140398
-0.000185972
-0.00145737
-0.000201945
-0.00152425
-0.000209787
-0.00161147
-0.000201855
-0.00172747
-0.000167381
-0.00188267
-9.34044e-05
-0.00208225
3.16963e-05
-0.00231107
0.00021762
-0.00259826
0.000477528
-0.00302945
0.000828082
-0.0036936
0.00126964
-0.00465871
0.00177581
-0.00604241
0.0021966
-0.00773011
0.00221637
-0.00727804
0.00112758
-0.00218116
0.00470126
0.00356783
0.00394512
0.00198194
0.00444251
9.095e-05
0.00449902
-0.000119013
0.00413722
-0.000154609
0.00354331
-0.000242631
0.00281464
-0.00027942
0.00201977
-0.000237795
0.0012124
-0.000137115
0.000423636
-1.16424e-06
-0.000287527
0.000121182
-0.000841879
0.000177365
-0.00121563
0.000180289
-0.00144153
0.000162313
-0.00157671
0.000122713
-0.00166684
7.63239e-05
-0.00173806
3.5102e-05
-0.00180543
1.66808e-06
-0.00187382
-2.71787e-05
-0.00194417
-5.19404e-05
-0.00201806
-7.19848e-05
-0.00209815
-8.66021e-05
-0.00218612
-9.80022e-05
-0.00228402
-0.000104037
-0.00239286
-0.000100937
-0.00251158
-8.31356e-05
-0.00263605
-4.29029e-05
-0.00275887
2.94256e-05
-0.00286775
0.000140585
-0.00295931
0.000309184
-0.00304209
0.000560314
-0.00312221
0.000908204
-0.00319607
0.00134351
-0.00322041
0.00180015
-0.00314676
0.00212296
-0.00280371
0.00187333
-0.00153873
-0.000137401
-0.00364782
-0.000550616
0.00418141
0.000341054
0.00109022
8.45388e-05
0.000347446
-0.000169788
0.000135322
-0.000403959
7.95713e-05
-0.000713827
6.72503e-05
-0.00108113
8.78938e-05
-0.00144821
0.000129304
-0.00176048
0.000175166
-0.00197459
0.000212958
-0.00208946
0.000236059
-0.00214567
0.000233573
-0.00217085
0.000205476
-0.00217761
0.000169079
-0.00218561
0.000130728
-0.00220487
9.55831e-05
-0.00223622
6.64651e-05
-0.00227752
4.29761e-05
-0.00233061
2.59182e-05
-0.00239411
1.15615e-05
-0.00246523
-8.60209e-07
-0.00254105
-1.0768e-05
-0.0026202
-1.88479e-05
-0.00269976
-2.44735e-05
-0.0027749
-2.57848e-05
-0.00283829
-1.97471e-05
-0.00287871
-2.47456e-06
-0.0028851
3.58264e-05
-0.00284882
0.000104304
-0.00274882
0.00020919
-0.00255403
0.000365531
-0.00223763
0.000591814
-0.00177999
0.000885871
-0.0011534
0.00117357
-0.000187641
0.0011572
0.00113216
0.000553536
0.00159428
-0.000599509
-0.00197461
-0.00721573
-0.0100921
-0.00586789
-0.00475719
-0.00439787
-0.00425501
-0.00417072
-0.00410087
-0.00401206
-0.00388328
-0.00370991
-0.00349992
-0.00326797
-0.00303959
-0.00284029
-0.00267818
-0.00255502
-0.00246745
-0.00240931
-0.00237491
-0.00235775
-0.00235508
-0.0023649
-0.00238466
-0.00241248
-0.00244587
-0.00248046
-0.00250887
-0.00251983
-0.00249225
-0.00239594
-0.00219448
-0.0018364
-0.00125177
-0.000372835
0.000794014
0.00194447
0.00249103
0.00188417
)
;

boundaryField
{
    floor
    {
        type            calculated;
        value           nonuniform List<scalar> 
29
(
0
0
0
0
0
0
0
0
0
0
0
0
0
0
0
0
0
0
0
0
-3.59015e-06
-9.20672e-06
-1.40305e-05
-1.84111e-05
-1.37729e-06
-2.64673e-06
-7.43997e-06
-7.68245e-06
-7.09047e-06
)
;
    }
    ceiling
    {
        type            calculated;
        value           nonuniform List<scalar> 
43
(
-4.54758e-05
-4.41548e-05
-4.28372e-05
-2.04673e-05
-1.18527e-05
-7.51796e-06
-4.70547e-06
-2.59391e-06
-8.9819e-07
5.32472e-07
1.80035e-06
2.97864e-06
4.11141e-06
5.20478e-06
6.18225e-06
6.97453e-06
7.57461e-06
8.01635e-06
8.34164e-06
8.58366e-06
8.7628e-06
8.89187e-06
8.97073e-06
8.99667e-06
8.98008e-06
8.92031e-06
8.81748e-06
8.67237e-06
8.48568e-06
8.25594e-06
8.00137e-06
7.73331e-06
7.45915e-06
7.18877e-06
6.94057e-06
6.72826e-06
6.74986e-06
6.97603e-06
7.36334e-06
8.58585e-06
1.15333e-05
8.41072e-06
-6.29995e-05
)
;
    }
    sWall
    {
        type            calculated;
        value           uniform -0.000275184;
    }
    nWall
    {
        type            calculated;
        value           nonuniform List<scalar> 6(-4.71221e-05 -5.65634e-05 -6.17702e-05 -7.2063e-05 -7.89285e-05 -9.9021e-05);
    }
    sideWalls
    {
        type            empty;
        value           nonuniform 0();
    }
    glass1
    {
        type            calculated;
        value           nonuniform List<scalar> 9(-5.62224e-05 -0.000151323 -0.00023127 -0.000299167 -0.000356673 -0.000405086 -0.000448774 -0.000501927 -0.000561492);
    }
    glass2
    {
        type            calculated;
        value           nonuniform List<scalar> 2(-0.00024878 -0.000275215);
    }
    sun
    {
        type            calculated;
        value           uniform 0;
    }
    heatsource1
    {
        type            calculated;
        value           nonuniform List<scalar> 3(2.03915e-07 2.03878e-07 2.03894e-07);
    }
    heatsource2
    {
        type            calculated;
        value           nonuniform List<scalar> 4(5.10496e-08 5.11834e-08 0 0);
    }
    Table_master
    {
        type            calculated;
        value           nonuniform List<scalar> 9(-1.52938e-07 -1.53009e-07 -1.53035e-07 -1.53053e-07 -1.53065e-07 -1.53074e-07 -1.53076e-07 -1.53069e-07 -1.53036e-07);
    }
    Table_slave
    {
        type            calculated;
        value           nonuniform List<scalar> 9(1.5282e-07 1.52842e-07 1.52824e-07 1.5281e-07 1.52806e-07 1.5281e-07 1.52826e-07 1.52869e-07 1.52948e-07);
    }
    inlet
    {
        type            calculated;
        value           uniform -0.00615766;
    }
    outlet
    {
        type            calculated;
        value           nonuniform List<scalar> 2(0.00753639 0.00292057);
    }
}


// ************************************************************************* //
