/*--------------------------------*- C++ -*----------------------------------*\
  =========                 |
  \\      /  F ield         | OpenFOAM: The Open Source CFD Toolbox
   \\    /   O peration     | Website:  https://openfoam.org
    \\  /    A nd           | Version:  6
     \\/     M anipulation  |
\*---------------------------------------------------------------------------*/
FoamFile
{
    version     2.0;
    format      ascii;
    class       volScalarField;
    location    "700";
    object      nut;
}
// * * * * * * * * * * * * * * * * * * * * * * * * * * * * * * * * * * * * * //

dimensions      [0 2 -1 0 0 0 0];

internalField   nonuniform List<scalar> 
459
(
0.00105782
0.00115366
0.00117332
0.00122889
0.00128004
0.0013275
0.0013734
0.0014207
0.00145578
0.00147351
0.00146871
0.00143774
0.00138062
0.00130371
0.00122059
0.000463713
0.000572298
0.0006374
0.000626092
0.000600737
0.000570273
0.000535077
0.000501034
0.000470239
0.000442846
0.000418522
0.000396839
0.000377553
0.000360153
0.000344039
0.000328402
0.000312017
0.000300669
0.000274276
0.00144823
0.00348816
0.00332338
0.00386792
0.00439686
0.00493047
0.00541526
0.00576616
0.0060884
0.00635586
0.00652813
0.00655439
0.00635919
0.00576308
0.00418922
0.00123986
0.000776203
0.000511627
0.00103722
0.00140202
0.0016494
0.00176878
0.00175459
0.00144418
0.00125814
0.00112225
0.00101652
0.000931498
0.000861714
0.000799945
0.00074228
0.000686713
0.000637918
0.000594936
0.000699618
0.000362181
0.00177473
0.00476953
0.0041088
0.00520397
0.0057443
0.00614293
0.00644999
0.00667994
0.00692769
0.00719011
0.00743793
0.00762061
0.00768416
0.00755905
0.00706301
0.00557176
0.00120274
0.00104207
0.00144984
0.00180574
0.00210394
0.00229245
0.00221739
0.000764483
0.000677522
0.000607635
0.000551139
0.000505003
0.000466922
0.00043524
0.000408877
0.000387347
0.000416
0.000478718
0.000782869
0.000420008
0.00208966
0.00613473
0.00410734
0.00552684
0.00603936
0.00621267
0.00630316
0.00639749
0.00657712
0.00683223
0.00713938
0.00743339
0.00766124
0.00777449
0.0076899
0.0071998
0.00555993
0.00145137
0.00180412
0.00229753
0.00273125
0.0030442
0.00321781
0.00300361
0.000859027
0.000784411
0.000731295
0.000691073
0.000656975
0.000625378
0.000595093
0.000563262
0.000526146
0.000494056
0.000502875
0.000890611
0.0004645
0.00241151
0.00789621
0.00452985
0.00529032
0.00599838
0.00607248
0.00600409
0.00600927
0.00616572
0.00641726
0.0067633
0.0071126
0.00739612
0.00754697
0.00753055
0.00730331
0.00671869
0.00550183
0.00505286
0.00485629
0.00474215
0.00465787
0.00457556
0.00440079
0.00375431
0.00345032
0.00327728
0.003143
0.00299692
0.00277995
0.00247674
0.00210223
0.00168129
0.00124949
0.000919963
0.000915101
0.000618494
0.000576431
0.000698477
0.000782831
0.00275263
0.00981187
0.00629589
0.00520852
0.0057238
0.00598521
0.00586363
0.00588888
0.00601481
0.00624325
0.00657755
0.00695585
0.00727203
0.00742881
0.00738179
0.00715256
0.00680785
0.00641559
0.0061525
0.00594842
0.00575217
0.00556669
0.00539225
0.0052003
0.00492744
0.00468615
0.00446999
0.00425877
0.00403957
0.00379825
0.00348179
0.00307575
0.00257909
0.00201848
0.0015142
0.00112547
0.000852633
0.00072824
0.00104336
0.000815259
0.00306498
0.0111665
0.00890989
0.00675234
0.00632599
0.00634313
0.0061911
0.00606035
0.00606976
0.00626839
0.00662757
0.00704655
0.00738594
0.0075258
0.00742179
0.0071303
0.00679833
0.00656951
0.00645369
0.00631977
0.00611074
0.00584784
0.00555497
0.00524997
0.00494877
0.00467994
0.00443506
0.00420419
0.00398668
0.00378829
0.00360858
0.00333997
0.00294753
0.00246228
0.00199152
0.00156451
0.00125425
0.00115611
0.00118081
0.000919337
0.00312685
0.0100046
0.00885344
0.00813284
0.00761818
0.00698443
0.00639772
0.0060899
0.0061182
0.0064351
0.00692037
0.00741201
0.00774061
0.00778993
0.00755367
0.00714464
0.00677448
0.00659121
0.00649973
0.00624974
0.00586
0.00541033
0.00496953
0.00458576
0.00427414
0.00402189
0.00380811
0.00362475
0.00347544
0.00336922
0.00331562
0.00329081
0.00307498
0.00275239
0.00246482
0.00231265
0.00239242
0.00276122
0.0034273
0.00144787
0.00304469
0.00361558
0.00402716
0.00416028
0.00421904
0.0043776
0.00473722
0.00533102
0.00610891
0.00694046
0.0076694
0.00815493
0.00827804
0.00800899
0.00747361
0.00692151
0.0065742
0.00629746
0.00595003
0.00545919
0.00489564
0.00436522
0.00393067
0.0036001
0.00334936
0.00314894
0.00297855
0.00282846
0.00269341
0.002568
0.00244616
0.0023287
0.00223316
0.00216231
0.00213698
0.00215112
0.00214703
0.00206968
0.00193948
0.00136508
0.00153403
0.00310765
0.00473339
0.00612967
0.00726963
0.00820645
0.00886594
0.00919856
0.0092118
0.00892861
0.00832349
0.00750415
0.00666688
0.00604224
0.00559053
0.00511316
0.00457005
0.00402284
0.00354035
0.00316632
0.00288953
0.00268138
0.00251803
0.00238467
0.00227448
0.00218539
0.00211743
0.00207162
0.00205111
0.00205614
0.0020734
0.00210046
0.00213091
0.00214153
0.00209353
0.00197219
0.00178869
0.0011369
0.00200008
0.00494723
0.00732418
0.00825811
0.00879905
0.00904426
0.008952
0.00854751
0.00790626
0.00712562
0.00630826
0.00556621
0.00493403
0.00439883
0.00389696
0.00343691
0.00306372
0.00278588
0.0025838
0.00242511
0.00229162
0.00217609
0.00208277
0.00201032
0.00195842
0.00192697
0.00191514
0.00192036
0.00194878
0.00199871
0.00206713
0.00214748
0.0022246
0.00227857
0.00226576
0.00229682
0.00233719
0.00115896
0.00177816
0.00188422
0.00195967
0.00210417
0.00203126
0.00194045
0.00188063
0.00180627
0.00170333
0.00157353
0.00142364
0.00126383
0.00110628
0.000963762
0.000850582
0.000770096
0.000715644
0.00067926
0.00065518
0.000639771
0.000630919
0.00062727
0.000628604
0.000635
0.000645403
0.000659969
0.000678934
0.000702634
0.000731622
0.000766892
0.000807621
0.000853699
0.000905713
0.000964221
0.00102898
0.00110548
0.0011327
0.00110525
0.00103829
0.000968192
)
;

boundaryField
{
    floor
    {
        type            nutkWallFunction;
        Cmu             0.09;
        kappa           0.41;
        E               9.8;
        value           nonuniform List<scalar> 
29
(
0.00014638
5.50473e-05
6.88707e-05
7.70006e-05
7.55957e-05
7.2435e-05
6.86156e-05
6.41719e-05
5.98393e-05
5.58885e-05
5.23471e-05
4.91793e-05
4.63355e-05
4.37896e-05
4.14784e-05
3.9325e-05
3.72228e-05
3.5006e-05
3.34618e-05
2.98396e-05
2.98396e-05
4.17483e-05
4.93735e-05
5.51489e-05
0.000146381
5.50473e-05
6.11914e-05
0.000125664
0.000172665
)
;
    }
    ceiling
    {
        type            nutkWallFunction;
        Cmu             0.09;
        kappa           0.41;
        E               9.8;
        value           nonuniform List<scalar> 
43
(
0.000208976
0.000220627
0.000228874
0.000244669
0.000236795
0.000226913
0.000220373
0.000212207
0.000200836
0.000186386
0.000169532
0.000151345
0.000133159
0.000116451
0.00010298
9.32741e-05
8.66399e-05
8.21738e-05
7.92025e-05
7.72944e-05
7.61959e-05
7.57425e-05
7.59086e-05
7.67032e-05
7.79934e-05
7.97957e-05
8.21351e-05
8.50478e-05
8.85943e-05
9.28869e-05
9.78152e-05
0.000103356
0.000109568
0.000116507
0.000124131
0.000133068
0.00013623
0.000133041
0.000125223
0.000116977
0.0003448
0.000403817
0.000233156
)
;
    }
    sWall
    {
        type            nutkWallFunction;
        Cmu             0.09;
        kappa           0.41;
        E               9.8;
        value           uniform 0.000209034;
    }
    nWall
    {
        type            nutkWallFunction;
        Cmu             0.09;
        kappa           0.41;
        E               9.8;
        value           nonuniform List<scalar> 6(9.48192e-05 9.87371e-05 0.000111191 0.000136727 0.000139283 0.000116982);
    }
    sideWalls
    {
        type            empty;
    }
    glass1
    {
        type            nutkWallFunction;
        Cmu             0.09;
        kappa           0.41;
        E               9.8;
        value           nonuniform List<scalar> 9(0.000127604 0.000172525 0.000209038 0.000243562 0.000278271 0.000314527 0.000347315 0.000353777 0.000345221);
    }
    glass2
    {
        type            nutkWallFunction;
        Cmu             0.09;
        kappa           0.41;
        E               9.8;
        value           nonuniform List<scalar> 2(0.000172343 0.000162962);
    }
    sun
    {
        type            nutkWallFunction;
        Cmu             0.09;
        kappa           0.41;
        E               9.8;
        value           nonuniform List<scalar> 
14
(
0.00012751
0.000138657
0.000140931
0.000147335
0.000153202
0.00015862
0.000163842
0.000169201
0.000173163
0.000175162
0.000174622
0.000171127
0.00016466
0.000155906
)
;
    }
    heatsource1
    {
        type            nutkWallFunction;
        Cmu             0.09;
        kappa           0.41;
        E               9.8;
        value           nonuniform List<scalar> 3(6.93927e-05 8.45384e-05 9.48192e-05);
    }
    heatsource2
    {
        type            nutkWallFunction;
        Cmu             0.09;
        kappa           0.41;
        E               9.8;
        value           nonuniform List<scalar> 4(0.000148592 9.40181e-05 9.40181e-05 0.000144322);
    }
    Table_master
    {
        type            nutkWallFunction;
        Cmu             0.09;
        kappa           0.41;
        E               9.8;
        value           nonuniform List<scalar> 9(9.25933e-05 8.19615e-05 7.32989e-05 6.62078e-05 6.0351e-05 5.54669e-05 5.13656e-05 4.79243e-05 4.50929e-05);
    }
    Table_slave
    {
        type            nutkWallFunction;
        Cmu             0.09;
        kappa           0.41;
        E               9.8;
        value           nonuniform List<scalar> 9(0.000103991 9.5009e-05 8.85536e-05 8.36285e-05 7.94263e-05 7.55089e-05 7.17316e-05 6.77363e-05 6.30424e-05);
    }
    inlet
    {
        type            calculated;
        value           uniform 0.000100623;
    }
    outlet
    {
        type            calculated;
        value           nonuniform List<scalar> 2(0.00177816 0.00188422);
    }
}


// ************************************************************************* //
