/*--------------------------------*- C++ -*----------------------------------*\
  =========                 |
  \\      /  F ield         | OpenFOAM: The Open Source CFD Toolbox
   \\    /   O peration     | Website:  https://openfoam.org
    \\  /    A nd           | Version:  6
     \\/     M anipulation  |
\*---------------------------------------------------------------------------*/
FoamFile
{
    version     2.0;
    format      ascii;
    class       volScalarField;
    location    "190";
    object      nut;
}
// * * * * * * * * * * * * * * * * * * * * * * * * * * * * * * * * * * * * * //

dimensions      [0 2 -1 0 0 0 0];

internalField   nonuniform List<scalar> 
459
(
0.00200101
0.00225651
0.00221085
0.00206912
0.00191396
0.00177277
0.00165021
0.00154076
0.00144094
0.00134809
0.0012598
0.00117342
0.00108542
0.000989248
0.000885165
0.000675618
0.000862996
0.000802069
0.000736284
0.000677695
0.000623969
0.000574973
0.000532379
0.000495275
0.000462799
0.00043431
0.00040927
0.000386881
0.000366374
0.0003469
0.000327414
0.000312674
0.000325032
0.00046192
0.00235667
0.00713114
0.00630137
0.00556727
0.0050175
0.00459619
0.00422058
0.00387966
0.00355789
0.00324113
0.00291363
0.00255902
0.0021649
0.00172339
0.00128292
0.000847186
0.000726336
0.000892886
0.00283568
0.00228239
0.00219573
0.00212618
0.00197641
0.00162373
0.00138639
0.00121789
0.00109191
0.000992877
0.0009059
0.000825159
0.000745769
0.000667723
0.000602663
0.000658948
0.000758892
0.000577831
0.00249236
0.00895653
0.00695434
0.00576083
0.00516143
0.00487805
0.00469355
0.00451488
0.00429843
0.00402456
0.00368254
0.00326778
0.00278566
0.00225493
0.00172811
0.00123802
0.000732498
0.000859513
0.00235976
0.00249582
0.00268526
0.00273382
0.00245268
0.000739921
0.000637812
0.000559915
0.000499537
0.000452112
0.000414846
0.000385692
0.000363507
0.000348403
0.000403742
0.000608253
0.000975836
0.000670282
0.00247815
0.00885695
0.00636109
0.00492647
0.00457195
0.00466865
0.00474762
0.00472288
0.00459222
0.00435918
0.00402897
0.00361099
0.00312126
0.00259387
0.00206522
0.00156115
0.00109015
0.000759784
0.00163853
0.00224491
0.00284058
0.00321732
0.00334031
0.00298013
0.000819762
0.000739971
0.000674603
0.000617584
0.000565104
0.000514401
0.000463034
0.000408492
0.000343921
0.000434234
0.000584141
0.00120972
0.00077857
0.00243333
0.00750984
0.00533013
0.00431446
0.0045443
0.00477292
0.00484691
0.00483244
0.00472458
0.00452381
0.00423701
0.00387233
0.00343164
0.00298295
0.00254277
0.00216873
0.00193518
0.00232798
0.00305927
0.00371124
0.00409998
0.00425654
0.00425478
0.00407241
0.00332617
0.00286819
0.00248445
0.00213101
0.00179278
0.00146076
0.00113536
0.000847532
0.000625086
0.000792373
0.000800586
0.00119402
0.00110224
0.000814597
0.000914751
0.0012613
0.00234638
0.00600258
0.00432272
0.00419188
0.00484154
0.0050371
0.00504408
0.00500033
0.00490545
0.00475599
0.00455645
0.00431662
0.00405059
0.00379091
0.00354391
0.00346132
0.0036327
0.00432445
0.00478741
0.00502542
0.00508414
0.0050207
0.00489729
0.00470364
0.00429413
0.00382743
0.00334581
0.00286274
0.00238615
0.00191984
0.00150428
0.00127171
0.00129656
0.00161332
0.00174599
0.00177517
0.00138561
0.00138179
0.00202797
0.00171199
0.00222017
0.00476286
0.00371956
0.0042389
0.00501027
0.00523624
0.00522609
0.00517431
0.00510032
0.00500569
0.00489863
0.00479356
0.00470758
0.00466587
0.00468977
0.0048321
0.00513322
0.00550672
0.00562929
0.00558535
0.00543474
0.00522879
0.00499025
0.00468032
0.00431167
0.0039017
0.00346692
0.00302779
0.00261011
0.00225066
0.00201364
0.0019921
0.00222331
0.00260022
0.00275561
0.00252006
0.00184789
0.00221033
0.00389185
0.00228976
0.00204965
0.0035891
0.00331573
0.0045592
0.00502902
0.00518772
0.00516666
0.00513785
0.00510958
0.00507765
0.0050486
0.00503745
0.00505008
0.00511057
0.00522365
0.00538682
0.00557284
0.00569154
0.00566675
0.0055125
0.00526938
0.00497118
0.004618
0.00427523
0.00395272
0.00364049
0.0033409
0.00307221
0.00286369
0.00275347
0.00278715
0.00300363
0.00338771
0.00380351
0.00402699
0.00396952
0.00323056
0.00327261
0.00670383
0.0030883
0.00176739
0.0017648
0.00268538
0.00571949
0.00591253
0.00581
0.00578337
0.00581793
0.00585453
0.00586953
0.00586153
0.00584855
0.00583197
0.0058318
0.0058582
0.00590938
0.00596309
0.00597711
0.00591488
0.00576952
0.0055598
0.00530813
0.00501265
0.00473406
0.00448723
0.00427409
0.00410126
0.00398344
0.00394156
0.0039999
0.00418094
0.00449193
0.0048971
0.00528834
0.00552144
0.00558556
0.0051652
0.00486934
0.00830412
0.0033918
0.00152143
0.00646012
0.00735806
0.00740889
0.00749535
0.00756753
0.00759227
0.00756292
0.0074764
0.00736394
0.00725109
0.00715988
0.00710709
0.00710158
0.00712868
0.00715154
0.00714402
0.00709371
0.00699307
0.00683831
0.00663271
0.00643479
0.00625849
0.00611021
0.00599858
0.00593658
0.0059407
0.00602848
0.0062123
0.00648701
0.00681113
0.00709023
0.00720503
0.00725958
0.00723484
0.0070488
0.00841598
0.00280821
0.00272177
0.00862867
0.00929098
0.00927687
0.00930844
0.00932915
0.00928899
0.00921029
0.0090991
0.00896236
0.0088171
0.00868301
0.00858261
0.0085468
0.00859498
0.00866782
0.00872701
0.00875034
0.00870868
0.00856575
0.00839947
0.00824459
0.00810794
0.0079928
0.00790521
0.0078547
0.00785391
0.00791729
0.00805687
0.008272
0.00852995
0.00874113
0.0087634
0.00871705
0.00856935
0.00806521
0.00670802
0.00232767
0.00128549
0.00106615
0.00163044
0.00221322
0.00231917
0.0023016
0.00227146
0.00225196
0.00223847
0.00222369
0.00220504
0.00218233
0.0021565
0.00212942
0.00210463
0.0020873
0.00208462
0.00208671
0.0020878
0.00208488
0.00207657
0.00206912
0.00206057
0.00205226
0.0020449
0.00203896
0.00203499
0.00203369
0.00203592
0.0020425
0.00205375
0.0020684
0.00208186
0.00208642
0.00208813
0.00208822
0.00209753
0.00214544
0.00215857
0.00193178
)
;

boundaryField
{
    floor
    {
        type            nutkWallFunction;
        Cmu             0.09;
        kappa           0.41;
        E               9.8;
        value           nonuniform List<scalar> 
29
(
0.000107116
8.17336e-05
0.000104465
9.7144e-05
8.91645e-05
8.19864e-05
7.53387e-05
6.92162e-05
6.38422e-05
5.91178e-05
5.49471e-05
5.12585e-05
4.79916e-05
4.50493e-05
4.23355e-05
3.97406e-05
3.71256e-05
3.51348e-05
3.68079e-05
5.48369e-05
5.48368e-05
6.95798e-05
8.10787e-05
9.43097e-05
0.000107116
8.17336e-05
0.000108039
0.000104052
9.2026e-05
)
;
    }
    ceiling
    {
        type            nutkWallFunction;
        Cmu             0.09;
        kappa           0.41;
        E               9.8;
        value           nonuniform List<scalar> 
43
(
0.000153973
0.000128559
0.000192936
0.000256815
0.000268181
0.00026626
0.000262994
0.000260876
0.000259407
0.000257799
0.000255775
0.000253311
0.000250507
0.000247566
0.000244871
0.000242985
0.000242693
0.000242919
0.000243036
0.000242718
0.000241815
0.000241007
0.000240077
0.000239173
0.000238373
0.000237727
0.000237294
0.000237153
0.000237395
0.000238111
0.000239334
0.000240925
0.000242385
0.00024288
0.000243065
0.000243074
0.000244083
0.000249273
0.000250693
0.000226028
0.000207882
0.000207586
0.000310921
)
;
    }
    sWall
    {
        type            nutkWallFunction;
        Cmu             0.09;
        kappa           0.41;
        E               9.8;
        value           uniform 0.000153962;
    }
    nWall
    {
        type            nutkWallFunction;
        Cmu             0.09;
        kappa           0.41;
        E               9.8;
        value           nonuniform List<scalar> 6(0.000151062 0.00020182 0.00026483 0.000319934 0.000268902 0.000226026);
    }
    sideWalls
    {
        type            empty;
    }
    glass1
    {
        type            nutkWallFunction;
        Cmu             0.09;
        kappa           0.41;
        E               9.8;
        value           nonuniform List<scalar> 9(0.000233401 0.000271787 0.000286267 0.000284755 0.000279977 0.000270683 0.000257128 0.000238685 0.000207791);
    }
    glass2
    {
        type            nutkWallFunction;
        Cmu             0.09;
        kappa           0.41;
        E               9.8;
        value           nonuniform List<scalar> 2(0.000349068 0.000380521);
    }
    sun
    {
        type            nutkWallFunction;
        Cmu             0.09;
        kappa           0.41;
        E               9.8;
        value           nonuniform List<scalar> 
14
(
0.000233521
0.00026118
0.000256266
0.000240933
0.000224019
0.000208499
0.000194919
0.000182698
0.00017147
0.000160948
0.000150868
0.00014093
0.000130719
0.000119452
)
;
    }
    heatsource1
    {
        type            nutkWallFunction;
        Cmu             0.09;
        kappa           0.41;
        E               9.8;
        value           nonuniform List<scalar> 3(9.86605e-05 0.00011065 0.000151076);
    }
    heatsource2
    {
        type            nutkWallFunction;
        Cmu             0.09;
        kappa           0.41;
        E               9.8;
        value           nonuniform List<scalar> 4(0.000102576 8.79521e-05 8.79521e-05 8.87043e-05);
    }
    Table_master
    {
        type            nutkWallFunction;
        Cmu             0.09;
        kappa           0.41;
        E               9.8;
        value           nonuniform List<scalar> 9(8.96065e-05 7.70515e-05 6.73111e-05 5.96478e-05 5.3548e-05 4.86986e-05 4.48663e-05 4.19253e-05 3.99098e-05);
    }
    Table_slave
    {
        type            nutkWallFunction;
        Cmu             0.09;
        kappa           0.41;
        E               9.8;
        value           nonuniform List<scalar> 9(9.92804e-05 8.96138e-05 8.16021e-05 7.45372e-05 6.79644e-05 6.15427e-05 5.49563e-05 4.78614e-05 3.93034e-05);
    }
    inlet
    {
        type            calculated;
        value           uniform 6.7082e-05;
    }
    outlet
    {
        type            calculated;
        value           nonuniform List<scalar> 2(0.00128549 0.00106615);
    }
}


// ************************************************************************* //
