/*--------------------------------*- C++ -*----------------------------------*\
  =========                 |
  \\      /  F ield         | OpenFOAM: The Open Source CFD Toolbox
   \\    /   O peration     | Website:  https://openfoam.org
    \\  /    A nd           | Version:  6
     \\/     M anipulation  |
\*---------------------------------------------------------------------------*/
FoamFile
{
    version     2.0;
    format      ascii;
    class       volScalarField;
    location    "100";
    object      alphat;
}
// * * * * * * * * * * * * * * * * * * * * * * * * * * * * * * * * * * * * * //

dimensions      [1 -1 -1 0 0 0 0];

internalField   nonuniform List<scalar> 
459
(
0.000840365
0.000868864
0.000841727
0.000870302
0.000896194
0.000918826
0.000938896
0.000957266
0.000974903
0.000992888
0.00100765
0.00101829
0.00102471
0.00102838
0.00102899
0.000777747
0.000770342
0.000748356
0.000744401
0.00074178
0.000725185
0.000686237
0.000646388
0.000609837
0.000576209
0.000545537
0.000517787
0.00049283
0.000470442
0.000450213
0.000431498
0.000413993
0.000417226
0.000394406
0.00133958
0.00204522
0.00163229
0.0019627
0.00209369
0.00223405
0.00237514
0.00250435
0.00260457
0.00265639
0.00266941
0.00261484
0.00245519
0.00213901
0.00162897
0.00108406
0.000959128
0.000966672
0.00221496
0.00293431
0.00336441
0.00343988
0.00314515
0.00234635
0.00196731
0.0016889
0.00147913
0.00131657
0.00118882
0.00108673
0.00100179
0.000925912
0.000862555
0.000809186
0.00106866
0.00054795
0.0018003
0.00324672
0.00171353
0.00276987
0.00298313
0.00312022
0.00323085
0.00331814
0.00338266
0.0034185
0.0034226
0.00336213
0.00319724
0.00288264
0.00240307
0.00183764
0.00124444
0.00115594
0.00379218
0.00451294
0.00464528
0.00444908
0.00361614
0.000894132
0.000758634
0.000667737
0.000604123
0.000557285
0.000521129
0.000492233
0.000468905
0.000451471
0.000526837
0.000636611
0.00128504
0.000666854
0.00226646
0.00501975
0.00173177
0.00309866
0.00350893
0.0036318
0.00370874
0.00376594
0.0038121
0.00384592
0.00386942
0.00386447
0.00379839
0.0036154
0.00323918
0.00262916
0.00190202
0.00139532
0.00420639
0.00461549
0.00476132
0.00474392
0.00453384
0.00374172
0.000900881
0.000853983
0.000840526
0.000835451
0.000828051
0.000810927
0.000778717
0.00074387
0.000703097
0.000692841
0.000731776
0.00164463
0.00073974
0.00272652
0.0072368
0.00221254
0.00293331
0.00374441
0.00389013
0.00394508
0.00397878
0.00400905
0.00404185
0.0040815
0.00413906
0.00420013
0.00423895
0.00422388
0.0041372
0.00400887
0.00389892
0.00404351
0.00415511
0.00438139
0.00447882
0.00443537
0.00425109
0.0037662
0.00372054
0.00372821
0.00371628
0.00365521
0.00352944
0.00332597
0.00291126
0.00238651
0.00187045
0.00142081
0.00147516
0.00109997
0.000869104
0.00101811
0.00114841
0.0031797
0.0094785
0.00369547
0.00254356
0.00358583
0.00392306
0.00403326
0.00407325
0.00407692
0.00407394
0.00409412
0.00416826
0.00426869
0.00436538
0.00441221
0.00434286
0.00409897
0.00372751
0.00346274
0.00353903
0.00404217
0.00429391
0.00432923
0.00432146
0.00431699
0.00436726
0.00440605
0.00439395
0.00432268
0.00420043
0.00404357
0.00379331
0.00337749
0.00282385
0.00222936
0.00161459
0.00140756
0.00124742
0.00173984
0.00122474
0.00363028
0.011261
0.00673884
0.00329669
0.00270347
0.00315712
0.00367191
0.00401123
0.00416926
0.00406922
0.00404969
0.00410934
0.00420588
0.00431842
0.0044097
0.00440356
0.0041854
0.00370159
0.00317981
0.00306783
0.00384021
0.00426052
0.00431847
0.00432653
0.00435949
0.00440667
0.00442653
0.00438773
0.00429935
0.00419189
0.00410089
0.0040369
0.00380937
0.00335185
0.00281803
0.00226156
0.00196543
0.00196787
0.00207308
0.00148476
0.00374691
0.0114953
0.00896856
0.00660536
0.0046051
0.00352739
0.00336235
0.00367949
0.00408243
0.0040558
0.00400762
0.00401394
0.00406877
0.00415401
0.00424735
0.00431224
0.00425833
0.00387693
0.00316907
0.00269092
0.0036671
0.00433457
0.00441622
0.00441281
0.00442
0.00441513
0.0043658
0.00426287
0.00413442
0.00403777
0.00402732
0.00413136
0.00428738
0.00398717
0.00370814
0.00369141
0.00418373
0.0051271
0.00615639
0.00209415
0.00366822
0.00446157
0.00495728
0.00508238
0.0048077
0.00432868
0.00393016
0.00371754
0.00366002
0.00365491
0.00369797
0.00376998
0.0038537
0.0039361
0.00401182
0.00408354
0.0041352
0.00401537
0.00331772
0.00239583
0.00342835
0.00447285
0.00460761
0.00460059
0.00458593
0.00452853
0.00439968
0.00419276
0.00393694
0.00369329
0.00351634
0.0034171
0.00337184
0.00334969
0.00336652
0.00339862
0.00334155
0.00312203
0.00284677
0.00190685
0.00272804
0.00428169
0.00461842
0.00451024
0.00429656
0.00410785
0.00397811
0.00389157
0.0038435
0.00381931
0.0038032
0.00378725
0.00377698
0.00379814
0.00388857
0.00393727
0.00331853
0.00218656
0.00307307
0.0046273
0.00484038
0.0048678
0.00489478
0.00486503
0.00475518
0.00455151
0.00426629
0.00395444
0.00369739
0.003559
0.00350986
0.00350512
0.00350348
0.00344516
0.00325755
0.00291367
0.00245724
0.00157231
0.00284313
0.00487389
0.00510193
0.00489345
0.00467241
0.00444704
0.00423562
0.00404383
0.00384109
0.00360978
0.00337867
0.00317112
0.00301042
0.00292767
0.00296305
0.00305089
0.0027279
0.001873
0.00263097
0.00436983
0.00449988
0.0045812
0.00465737
0.00467938
0.0046502
0.00456952
0.00443954
0.00427075
0.00407214
0.00394969
0.00390968
0.00392499
0.00394995
0.00396491
0.0039151
0.00380874
0.00310918
0.00160161
0.00250108
0.00261876
0.00272276
0.00287062
0.00271596
0.00245325
0.00228237
0.00212851
0.00198852
0.00186109
0.00174779
0.0016491
0.00155938
0.0014761
0.00139866
0.00132807
0.00126692
0.00121683
0.00117012
0.00111755
0.0011812
0.00125208
0.00126328
0.00127074
0.00127541
0.00127718
0.00127863
0.00128293
0.00129412
0.0013174
0.00135989
0.00141573
0.00148752
0.00157239
0.00166714
0.00178843
0.00181704
0.00176938
0.001648
0.00151836
)
;

boundaryField
{
    floor
    {
        type            compressible::alphatWallFunction;
        Prt             0.85;
        value           nonuniform List<scalar> 
29
(
0.000146268
0.000110473
0.000109384
0.000106182
0.000105601
0.000105217
0.000102793
9.70803e-05
9.1194e-05
8.57551e-05
8.07155e-05
7.60869e-05
7.18711e-05
6.80554e-05
6.46117e-05
6.14821e-05
5.85707e-05
5.58328e-05
5.63354e-05
5.27465e-05
5.27458e-05
7.64337e-05
9.42013e-05
0.000104903
0.000146267
0.000110471
0.000137504
0.000163971
0.000196731
)
;
    }
    ceiling
    {
        type            compressible::alphatWallFunction;
        Prt             0.85;
        value           nonuniform List<scalar> 
43
(
0.000341482
0.00035641
0.000369547
0.000388209
0.000368795
0.000335514
0.000313656
0.000293822
0.000275641
0.000258971
0.000244043
0.000230953
0.000218978
0.000207794
0.000197331
0.000187737
0.000179379
0.000172498
0.000166049
0.000158761
0.000167623
0.000177345
0.000178877
0.000179901
0.00018054
0.000180782
0.00018098
0.00018157
0.0001831
0.000186278
0.000192067
0.00019964
0.000209329
0.000220715
0.000233348
0.000249407
0.000253178
0.000246894
0.000230807
0.00021348
0.000487097
0.000583061
0.00038462
)
;
    }
    sWall
    {
        type            compressible::alphatWallFunction;
        Prt             0.85;
        value           uniform 0.000340238;
    }
    nWall
    {
        type            compressible::alphatWallFunction;
        Prt             0.85;
        value           nonuniform List<scalar> 6(0.000162641 0.000173171 0.000208531 0.000220316 0.000224229 0.000213084);
    }
    sideWalls
    {
        type            empty;
    }
    glass1
    {
        type            compressible::alphatWallFunction;
        Prt             0.85;
        value           nonuniform List<scalar> 9(0.000115797 0.000184218 0.000245022 0.000304984 0.000362996 0.00041922 0.000474351 0.000488661 0.00047936);
    }
    glass2
    {
        type            compressible::alphatWallFunction;
        Prt             0.85;
        value           nonuniform List<scalar> 2(0.000286495 0.00026235);
    }
    sun
    {
        type            compressible::alphatWallFunction;
        Prt             0.85;
        value           nonuniform List<scalar> 
14
(
0.00011952
0.000123587
0.000119695
0.000123792
0.000127492
0.000130715
0.000133565
0.000136167
0.00013866
0.000141197
0.000143274
0.000144769
0.000145671
0.000146184
)
;
    }
    heatsource1
    {
        type            compressible::alphatWallFunction;
        Prt             0.85;
        value           nonuniform List<scalar> 3(0.000123833 0.000144968 0.000163152);
    }
    heatsource2
    {
        type            compressible::alphatWallFunction;
        Prt             0.85;
        value           nonuniform List<scalar> 4(0.000154194 0.000136657 0.000136655 0.000176385);
    }
    Table_master
    {
        type            compressible::alphatWallFunction;
        Prt             0.85;
        value           nonuniform List<scalar> 9(0.000127418 0.000107901 9.4574e-05 8.51158e-05 7.80732e-05 7.25864e-05 6.81667e-05 6.45749e-05 6.18758e-05);
    }
    Table_slave
    {
        type            compressible::alphatWallFunction;
        Prt             0.85;
        value           nonuniform List<scalar> 9(0.000128385 0.000121673 0.000119739 0.000119007 0.000117941 0.000115471 0.000110808 0.00010574 9.97716e-05);
    }
    inlet
    {
        type            fixedValue;
        value           uniform 1.94e-05;
    }
    outlet
    {
        type            zeroGradient;
    }
}


// ************************************************************************* //
