/*--------------------------------*- C++ -*----------------------------------*\
  =========                 |
  \\      /  F ield         | OpenFOAM: The Open Source CFD Toolbox
   \\    /   O peration     | Website:  https://openfoam.org
    \\  /    A nd           | Version:  6
     \\/     M anipulation  |
\*---------------------------------------------------------------------------*/
FoamFile
{
    version     2.0;
    format      ascii;
    class       volScalarField;
    location    "100";
    object      epsilon;
}
// * * * * * * * * * * * * * * * * * * * * * * * * * * * * * * * * * * * * * //

dimensions      [0 2 -3 0 0 0 0];

internalField   nonuniform List<scalar> 
459
(
0.000132157
0.000145539
0.000132314
0.000146255
0.000159702
0.00017211
0.000183636
0.000194626
0.000205581
0.000217167
0.00022699
0.000234245
0.000238694
0.00024125
0.000241662
0.000104367
0.000101344
9.28838e-05
9.13937e-05
9.04157e-05
8.44754e-05
7.15833e-05
5.98241e-05
5.02372e-05
4.23742e-05
3.59586e-05
3.07427e-05
2.65056e-05
2.30525e-05
2.02025e-05
1.77844e-05
1.57048e-05
1.60699e-05
1.35748e-05
0.000536681
0.00126699
0.000136043
0.000110669
0.000110361
0.000112435
0.000116181
0.000122505
0.000132399
0.000146685
0.000163081
0.000180313
0.000196699
0.000211076
0.000229223
0.000282503
0.000195697
0.000200313
0.000135403
9.92571e-05
8.63137e-05
7.64366e-05
6.82526e-05
6.3034e-05
5.18166e-05
4.24973e-05
3.48724e-05
2.87487e-05
2.39031e-05
2.00884e-05
1.70961e-05
1.48442e-05
1.34801e-05
1.38197e-05
5.85476e-05
3.63735e-05
0.00130601
0.00426223
0.000257816
0.000115916
0.000109601
0.000113129
0.00011969
0.00012946
0.000142646
0.000159039
0.000176693
0.000193047
0.000207025
0.000221274
0.000245233
0.000298345
0.000427329
0.000342464
0.000163036
0.000131088
0.000104698
8.65021e-05
8.01985e-05
0.000158344
9.6707e-05
6.59344e-05
4.88189e-05
3.8313e-05
3.13222e-05
2.63893e-05
2.28074e-05
2.03528e-05
1.69095e-05
1.8194e-05
0.000142988
6.55441e-05
0.00261207
0.00997849
0.000599514
0.000136324
0.000117277
0.000123984
0.000134524
0.000148203
0.000165227
0.000185571
0.000206487
0.000221958
0.000230112
0.000235074
0.000247466
0.00028779
0.000397201
0.000602194
0.000308107
0.000190552
0.000148441
0.000111925
8.72919e-05
7.97519e-05
0.000162009
0.000137975
0.000131536
0.000129153
0.000125738
0.000118084
0.000104552
9.1126e-05
7.69367e-05
4.97977e-05
4.03036e-05
0.000328634
8.9483e-05
0.00455742
0.0183602
0.00142726
0.000181467
0.000125307
0.000134058
0.00015074
0.000172882
0.000200928
0.000234639
0.000267923
0.000287698
0.000290996
0.000282005
0.000266569
0.000250923
0.000241306
0.000228784
0.000190328
0.000176154
0.000156093
0.000122385
9.88557e-05
8.72851e-05
8.98718e-05
9.05246e-05
9.28827e-05
9.5291e-05
9.55092e-05
9.12644e-05
8.16629e-05
7.16307e-05
6.39043e-05
5.46876e-05
4.90972e-05
0.000186162
0.000128699
0.000145239
0.000233592
0.000335293
0.00724211
0.0267993
0.00336214
0.000345633
0.000153656
0.000149237
0.000168061
0.000199228
0.000244394
0.000307354
0.000363117
0.000387469
0.000384388
0.000364097
0.000333302
0.000293493
0.000244295
0.000195545
0.0001695
0.000173004
0.000177893
0.000146488
0.000121002
0.000107879
0.000104719
0.00010763
0.000114115
0.000121923
0.000128079
0.000128753
0.000119348
9.85121e-05
8.01332e-05
6.57241e-05
5.98508e-05
0.000111174
0.00012274
0.000126699
0.000446147
0.000406516
0.0107932
0.0310951
0.00795365
0.00149815
0.000480619
0.000288812
0.000258435
0.000279026
0.00033388
0.000451214
0.000518605
0.000526974
0.000501526
0.000461137
0.000414504
0.000361492
0.000297632
0.000228796
0.00018261
0.000180671
0.000213448
0.000186877
0.00015709
0.00014116
0.000135975
0.000138951
0.000148135
0.000162156
0.000178277
0.000193279
0.000199939
0.000182088
0.000148731
0.000123868
0.000116579
0.000147054
0.000207779
0.000358416
0.000794442
0.00072429
0.011897
0.0394978
0.0185275
0.00945924
0.00436586
0.00199481
0.00112227
0.00083885
0.000782527
0.000816767
0.000783091
0.000715226
0.000637927
0.00056304
0.000494301
0.000430623
0.000367174
0.000293875
0.000222211
0.000195544
0.000259234
0.000249318
0.00021589
0.000196242
0.000188542
0.000189775
0.000198846
0.000216139
0.000243128
0.000281523
0.000330601
0.000384081
0.000399023
0.000429349
0.000541557
0.000891641
0.00179353
0.00348683
0.00954971
0.00203813
0.0112017
0.0200833
0.0159637
0.0117129
0.00810712
0.00533819
0.00351832
0.00243465
0.00182718
0.00141008
0.0011211
0.000916178
0.000765957
0.000651321
0.000560666
0.000488212
0.000432058
0.000381841
0.000292434
0.000221657
0.000313079
0.000346179
0.000315761
0.000292689
0.000280912
0.000275905
0.000277385
0.000288002
0.000313514
0.00036246
0.000444169
0.000567223
0.0007394
0.000968953
0.00131245
0.00176047
0.00222916
0.00257818
0.0028366
0.00154224
0.00669975
0.00837274
0.00667378
0.00492929
0.00357326
0.00261996
0.0019765
0.00153383
0.00122371
0.00100125
0.000836336
0.000710218
0.000612746
0.000541317
0.000500705
0.000477488
0.000376326
0.000264059
0.000373388
0.000504478
0.000496106
0.000477629
0.000468171
0.000459135
0.000449399
0.000440489
0.000437091
0.000448877
0.000490398
0.000579616
0.000722907
0.000925108
0.001184
0.00145391
0.00163219
0.00159527
0.00126551
0.000863989
0.00494792
0.00764822
0.00609637
0.00450132
0.0033843
0.00256154
0.00196008
0.00152186
0.00119883
0.000957675
0.000776875
0.000642262
0.00054517
0.000482005
0.000452588
0.000439707
0.000404838
0.000308619
0.000454334
0.00071188
0.000729631
0.00074058
0.000744917
0.000737891
0.000720661
0.000696846
0.00067341
0.000660853
0.000671734
0.00072606
0.000834091
0.00100087
0.00121839
0.00147362
0.00167943
0.00176442
0.00113041
0.000913069
0.00340591
0.0039077
0.0043919
0.0052059
0.00442907
0.00327478
0.00263912
0.00214141
0.0017464
0.00143184
0.00118598
0.000996232
0.000842334
0.000714467
0.000607823
0.000520361
0.000451735
0.000400231
0.00035584
0.00030999
0.000366287
0.000435839
0.00044758
0.000455569
0.000460608
0.00046253
0.000464105
0.000468811
0.000481184
0.000507616
0.000558344
0.000629978
0.000730773
0.000863146
0.00102884
0.0012704
0.00133253
0.0012305
0.000994281
0.000777905
)
;

boundaryField
{
    floor
    {
        Cmu             0.09;
        kappa           0.41;
        E               9.8;
        type            epsilonWallFunction;
        value           nonuniform List<scalar> 
29
(
0.000241662
0.000104367
0.000101344
9.28838e-05
9.13937e-05
9.04157e-05
8.44754e-05
7.15833e-05
5.98241e-05
5.02372e-05
4.23742e-05
3.59586e-05
3.07427e-05
2.65056e-05
2.30525e-05
2.02025e-05
1.77844e-05
1.57048e-05
1.60699e-05
1.35748e-05
1.35748e-05
3.63735e-05
6.55441e-05
8.9483e-05
0.000241662
0.000104367
0.000200313
0.000342464
0.000602194
)
;
    }
    ceiling
    {
        Cmu             0.09;
        kappa           0.41;
        E               9.8;
        type            epsilonWallFunction;
        value           nonuniform List<scalar> 
43
(
0.00340591
0.0039077
0.0043919
0.0052059
0.00442907
0.00327478
0.00263912
0.00214141
0.0017464
0.00143184
0.00118598
0.000996232
0.000842334
0.000714467
0.000607823
0.000520361
0.000451735
0.000400231
0.00035584
0.00030999
0.000366287
0.000435839
0.00044758
0.000455569
0.000460608
0.00046253
0.000464105
0.000468811
0.000481184
0.000507616
0.000558344
0.000629978
0.000730773
0.000863146
0.00102884
0.0012704
0.00133253
0.0012305
0.000994281
0.000777905
0.0112017
0.0200833
0.00494792
)
;
    }
    sWall
    {
        Cmu             0.09;
        kappa           0.41;
        E               9.8;
        type            epsilonWallFunction;
        value           uniform 0.00340591;
    }
    nWall
    {
        Cmu             0.09;
        kappa           0.41;
        E               9.8;
        type            epsilonWallFunction;
        value           nonuniform List<scalar> 6(0.000335293 0.000406516 0.00072429 0.000863989 0.000913069 0.000777905);
    }
    sideWalls
    {
        type            empty;
    }
    glass1
    {
        Cmu             0.09;
        kappa           0.41;
        E               9.8;
        type            epsilonWallFunction;
        value           nonuniform List<scalar> 9(0.000132157 0.000536681 0.00130601 0.00261207 0.00455742 0.00724211 0.0107932 0.011897 0.0112017);
    }
    glass2
    {
        Cmu             0.09;
        kappa           0.41;
        E               9.8;
        type            epsilonWallFunction;
        value           nonuniform List<scalar> 2(0.00203813 0.00154224);
    }
    sun
    {
        Cmu             0.09;
        kappa           0.41;
        E               9.8;
        type            epsilonWallFunction;
        value           nonuniform List<scalar> 
14
(
0.000132157
0.000145539
0.000132314
0.000146255
0.000159702
0.00017211
0.000183636
0.000194626
0.000205581
0.000217167
0.00022699
0.000234245
0.000238694
0.00024125
)
;
    }
    heatsource1
    {
        Cmu             0.09;
        kappa           0.41;
        E               9.8;
        type            epsilonWallFunction;
        value           nonuniform List<scalar> 3(0.000145239 0.000233592 0.000335293);
    }
    heatsource2
    {
        Cmu             0.09;
        kappa           0.41;
        E               9.8;
        type            epsilonWallFunction;
        value           nonuniform List<scalar> 4(0.000282503 0.000195697 0.000195697 0.000427329);
    }
    Table_master
    {
        Cmu             0.09;
        kappa           0.41;
        E               9.8;
        type            epsilonWallFunction;
        value           nonuniform List<scalar> 9(0.000158344 9.6707e-05 6.59344e-05 4.88189e-05 3.8313e-05 3.13222e-05 2.63893e-05 2.28074e-05 2.03528e-05);
    }
    Table_slave
    {
        Cmu             0.09;
        kappa           0.41;
        E               9.8;
        type            epsilonWallFunction;
        value           nonuniform List<scalar> 9(0.000162009 0.000137975 0.000131536 0.000129153 0.000125738 0.000118084 0.000104552 9.1126e-05 7.69367e-05);
    }
    inlet
    {
        type            turbulentMixingLengthDissipationRateInlet;
        mixingLength    0.01;
        phi             phi;
        k               k;
        value           uniform 0.000101881;
    }
    outlet
    {
        type            zeroGradient;
    }
}


// ************************************************************************* //
