/*--------------------------------*- C++ -*----------------------------------*\
  =========                 |
  \\      /  F ield         | OpenFOAM: The Open Source CFD Toolbox
   \\    /   O peration     | Website:  https://openfoam.org
    \\  /    A nd           | Version:  6
     \\/     M anipulation  |
\*---------------------------------------------------------------------------*/
FoamFile
{
    version     2.0;
    format      ascii;
    class       volScalarField;
    location    "1300";
    object      epsilon;
}
// * * * * * * * * * * * * * * * * * * * * * * * * * * * * * * * * * * * * * //

dimensions      [0 2 -3 0 0 0 0];

internalField   nonuniform List<scalar> 
459
(
0.000173749
0.000204353
0.000198401
0.000219214
0.000238355
0.000255556
0.000271237
0.000286
0.000300654
0.000313913
0.000321679
0.000322131
0.000315224
0.000304178
0.000291779
6.34497e-05
5.0684e-05
4.26807e-05
3.76344e-05
3.39175e-05
3.05112e-05
2.68359e-05
2.35083e-05
2.06528e-05
1.81902e-05
1.60696e-05
1.42427e-05
1.26615e-05
1.12763e-05
1.00328e-05
8.86908e-06
7.70128e-06
6.91686e-06
5.32485e-06
0.000560219
0.00106624
0.000191745
0.000169691
0.000168111
0.000169161
0.000172425
0.000179199
0.000190872
0.00020645
0.00022099
0.000230368
0.000231885
0.000229429
0.000241643
0.000306028
0.000223678
0.000118368
6.05972e-05
4.1236e-05
3.21874e-05
2.66257e-05
2.29369e-05
2.1354e-05
1.86032e-05
1.60857e-05
1.38367e-05
1.18746e-05
1.01951e-05
8.77345e-06
7.58713e-06
6.68344e-06
6.28443e-06
6.36581e-06
1.75709e-05
1.19167e-05
0.00120086
0.00324682
0.000293631
0.00017091
0.000165675
0.0001717
0.00018224
0.000197859
0.000218856
0.000243586
0.000265657
0.00027739
0.000274343
0.000260521
0.000249744
0.000261433
0.000388801
0.000188537
6.22804e-05
4.05587e-05
3.15914e-05
2.65786e-05
2.51584e-05
5.68856e-05
4.05572e-05
3.03307e-05
2.36513e-05
1.90905e-05
1.58489e-05
1.34753e-05
1.17199e-05
1.04723e-05
8.41123e-06
7.58603e-06
3.26058e-05
1.88104e-05
0.00222968
0.00746002
0.000594746
0.000187034
0.000169177
0.000180323
0.000197548
0.000221069
0.00025246
0.000290739
0.000323814
0.000338473
0.000330382
0.000305245
0.00027369
0.000247677
0.00025574
0.0003461
0.000111522
5.54526e-05
3.75068e-05
2.93315e-05
2.54742e-05
2.57653e-05
6.56914e-05
5.66359e-05
5.3403e-05
5.20106e-05
5.04039e-05
4.73062e-05
4.29895e-05
3.8493e-05
3.32081e-05
2.08881e-05
1.38754e-05
5.3757e-05
2.64184e-05
0.00378027
0.013895
0.00141235
0.000244846
0.000176286
0.000185368
0.000207422
0.000241561
0.000293079
0.000360081
0.000411943
0.000429333
0.000412925
0.000373736
0.00032453
0.000275543
0.000234097
0.000187555
9.96508e-05
5.72535e-05
3.73806e-05
2.93609e-05
2.68182e-05
2.71373e-05
3.10244e-05
3.38986e-05
3.64733e-05
3.82526e-05
3.85135e-05
3.66496e-05
3.30737e-05
2.98562e-05
2.72247e-05
2.28669e-05
1.78878e-05
3.94563e-05
3.08071e-05
6.08867e-05
0.000109638
0.000152389
0.0060278
0.0208028
0.00363956
0.000555664
0.000260048
0.000224189
0.000233873
0.000272243
0.000359613
0.000477378
0.000545102
0.000553992
0.000518735
0.000457477
0.000386828
0.000317939
0.000251866
0.000179401
0.000109864
6.3136e-05
4.03405e-05
3.27733e-05
3.17375e-05
3.36185e-05
3.76545e-05
4.27574e-05
4.79868e-05
5.23389e-05
5.46771e-05
5.3507e-05
4.74428e-05
3.92489e-05
3.21196e-05
2.62461e-05
2.23686e-05
3.011e-05
3.1598e-05
4.3217e-05
0.000201102
0.000168818
0.00894306
0.0248408
0.00869583
0.00246222
0.00110399
0.000636834
0.000486527
0.000469698
0.00060024
0.000722265
0.000755708
0.000722328
0.000647974
0.000553045
0.000455351
0.000366068
0.000284499
0.000203027
0.000127618
7.17294e-05
4.71798e-05
4.07433e-05
4.0854e-05
4.3828e-05
4.88448e-05
5.54906e-05
6.34018e-05
7.14007e-05
7.84818e-05
8.26807e-05
8.09201e-05
6.81619e-05
5.55139e-05
4.56663e-05
4.13501e-05
4.57147e-05
5.77285e-05
9.45044e-05
0.000237073
0.000224798
0.00974929
0.0292703
0.0157017
0.0102011
0.00599927
0.00341781
0.002149
0.00158858
0.00137881
0.00123805
0.00109863
0.00095136
0.000799714
0.000651083
0.000518566
0.000409614
0.00031814
0.000230136
0.000144727
8.2037e-05
5.96843e-05
5.43729e-05
5.47946e-05
5.7868e-05
6.30473e-05
7.03476e-05
7.98781e-05
9.1709e-05
0.000105885
0.00012205
0.000138961
0.000152013
0.000150625
0.000159112
0.000188465
0.000280072
0.000517632
0.00100759
0.00317689
0.000940845
0.00912932
0.015832
0.0141181
0.0107316
0.00794517
0.00570009
0.00409973
0.00306344
0.00235306
0.0018487
0.00147172
0.00117346
0.000925868
0.00071657
0.000553389
0.000435536
0.000344112
0.000252433
0.000156776
9.89554e-05
8.1089e-05
7.64836e-05
7.5953e-05
7.73276e-05
8.04988e-05
8.59804e-05
9.45691e-05
0.000107302
0.000125462
0.000150622
0.000184807
0.00023068
0.000292314
0.000381522
0.000519012
0.000710494
0.000935372
0.00113788
0.00129144
0.000813061
0.00670341
0.012589
0.00816064
0.00588104
0.00438493
0.00334541
0.00259264
0.00201168
0.00155887
0.00120409
0.00091957
0.000689228
0.000534908
0.000442679
0.000372196
0.000279043
0.000179765
0.000140427
0.000127774
0.000122825
0.000119339
0.000115852
0.000112546
0.000110298
0.000110363
0.000114257
0.000123752
0.000140979
0.000168681
0.00021048
0.000269621
0.000351271
0.00046064
0.000590816
0.000712087
0.000780549
0.000766012
0.000510367
0.00494234
0.00986945
0.00666417
0.00493823
0.00375153
0.00289681
0.00222576
0.0017116
0.00131304
0.00100605
0.000762337
0.00056681
0.000509422
0.000518636
0.000513638
0.000431858
0.000351136
0.000312591
0.000295133
0.000284507
0.000274177
0.000261598
0.000246487
0.000230014
0.000214219
0.000201445
0.000193954
0.000193917
0.00020368
0.000226406
0.000267313
0.000329233
0.000412101
0.000508918
0.000584409
0.000675585
0.000744924
0.000547861
0.00245764
0.00316369
0.00384894
0.00471287
0.00400542
0.0034722
0.00261398
0.00198335
0.00145532
0.00103615
0.000768344
0.000566876
0.000399997
0.000257228
0.00018812
0.00020438
0.000212824
0.000196879
0.000173276
0.000157752
0.000148421
0.000141673
0.000135764
0.000130464
0.000126343
0.00012427
0.000125111
0.000129623
0.000138543
0.000152867
0.000174406
0.000204938
0.000243315
0.000291621
0.000351535
0.000431011
0.000461758
0.00042969
0.000363192
0.000301047
)
;

boundaryField
{
    floor
    {
        Cmu             0.09;
        kappa           0.41;
        E               9.8;
        type            epsilonWallFunction;
        value           nonuniform List<scalar> 
29
(
0.000291779
6.34497e-05
5.0684e-05
4.26807e-05
3.76344e-05
3.39175e-05
3.05112e-05
2.68359e-05
2.35083e-05
2.06528e-05
1.81902e-05
1.60696e-05
1.42427e-05
1.26615e-05
1.12763e-05
1.00328e-05
8.86908e-06
7.70128e-06
6.91686e-06
5.32485e-06
5.32485e-06
1.19167e-05
1.88104e-05
2.64184e-05
0.000291779
6.34497e-05
0.000118368
0.000188537
0.0003461
)
;
    }
    ceiling
    {
        Cmu             0.09;
        kappa           0.41;
        E               9.8;
        type            epsilonWallFunction;
        value           nonuniform List<scalar> 
43
(
0.00245764
0.00316369
0.00384894
0.00471287
0.00400542
0.0034722
0.00261398
0.00198335
0.00145532
0.00103615
0.000768344
0.000566876
0.000399997
0.000257228
0.00018812
0.00020438
0.000212824
0.000196879
0.000173276
0.000157752
0.000148421
0.000141673
0.000135764
0.000130464
0.000126343
0.00012427
0.000125111
0.000129623
0.000138543
0.000152867
0.000174406
0.000204938
0.000243315
0.000291621
0.000351535
0.000431011
0.000461758
0.00042969
0.000363192
0.000301047
0.00912932
0.015832
0.00494234
)
;
    }
    sWall
    {
        Cmu             0.09;
        kappa           0.41;
        E               9.8;
        type            epsilonWallFunction;
        value           uniform 0.00245764;
    }
    nWall
    {
        Cmu             0.09;
        kappa           0.41;
        E               9.8;
        type            epsilonWallFunction;
        value           nonuniform List<scalar> 6(0.000152389 0.000168818 0.000224798 0.000510367 0.000547861 0.000301047);
    }
    sideWalls
    {
        type            empty;
    }
    glass1
    {
        Cmu             0.09;
        kappa           0.41;
        E               9.8;
        type            epsilonWallFunction;
        value           nonuniform List<scalar> 9(0.000173749 0.000560219 0.00120086 0.00222968 0.00378027 0.0060278 0.00894306 0.00974929 0.00912932);
    }
    glass2
    {
        Cmu             0.09;
        kappa           0.41;
        E               9.8;
        type            epsilonWallFunction;
        value           nonuniform List<scalar> 2(0.000940845 0.000813061);
    }
    sun
    {
        Cmu             0.09;
        kappa           0.41;
        E               9.8;
        type            epsilonWallFunction;
        value           nonuniform List<scalar> 
14
(
0.000173749
0.000204353
0.000198401
0.000219214
0.000238355
0.000255556
0.000271237
0.000286
0.000300654
0.000313913
0.000321679
0.000322131
0.000315224
0.000304178
)
;
    }
    heatsource1
    {
        Cmu             0.09;
        kappa           0.41;
        E               9.8;
        type            epsilonWallFunction;
        value           nonuniform List<scalar> 3(6.08867e-05 0.000109638 0.000152389);
    }
    heatsource2
    {
        Cmu             0.09;
        kappa           0.41;
        E               9.8;
        type            epsilonWallFunction;
        value           nonuniform List<scalar> 4(0.000306028 0.000223678 0.000223678 0.000388801);
    }
    Table_master
    {
        Cmu             0.09;
        kappa           0.41;
        E               9.8;
        type            epsilonWallFunction;
        value           nonuniform List<scalar> 9(5.68856e-05 4.05572e-05 3.03307e-05 2.36513e-05 1.90905e-05 1.58489e-05 1.34753e-05 1.17199e-05 1.04723e-05);
    }
    Table_slave
    {
        Cmu             0.09;
        kappa           0.41;
        E               9.8;
        type            epsilonWallFunction;
        value           nonuniform List<scalar> 9(6.56914e-05 5.66359e-05 5.3403e-05 5.20106e-05 5.04039e-05 4.73062e-05 4.29895e-05 3.8493e-05 3.32081e-05);
    }
    inlet
    {
        type            turbulentMixingLengthDissipationRateInlet;
        mixingLength    0.01;
        phi             phi;
        k               k;
        value           uniform 0.000101881;
    }
    outlet
    {
        type            zeroGradient;
    }
}


// ************************************************************************* //
