/*--------------------------------*- C++ -*----------------------------------*\
  =========                 |
  \\      /  F ield         | OpenFOAM: The Open Source CFD Toolbox
   \\    /   O peration     | Website:  https://openfoam.org
    \\  /    A nd           | Version:  6
     \\/     M anipulation  |
\*---------------------------------------------------------------------------*/
FoamFile
{
    version     2.0;
    format      ascii;
    class       volScalarField;
    location    "1300";
    object      nut;
}
// * * * * * * * * * * * * * * * * * * * * * * * * * * * * * * * * * * * * * //

dimensions      [0 2 -1 0 0 0 0];

internalField   nonuniform List<scalar> 
459
(
0.000788866
0.000832698
0.000824534
0.000852413
0.000876533
0.00089713
0.000915117
0.000931427
0.00094707
0.000960793
0.000968653
0.000969109
0.000962136
0.000950769
0.000937675
0.000563917
0.000523231
0.000494099
0.000473805
0.000457664
0.000441801
0.000423298
0.000405025
0.000387913
0.000371837
0.000356786
0.000342716
0.000329532
0.000317046
0.000304934
0.000292655
0.0002792
0.000269378
0.000246884
0.00116542
0.00214671
0.0018917
0.00219694
0.00239463
0.00259646
0.00279182
0.00296395
0.00308716
0.00315685
0.00317559
0.00310592
0.00289381
0.00246298
0.00173154
0.000952704
0.000858198
0.00069418
0.00103222
0.00128617
0.00145847
0.0015435
0.00151631
0.00126302
0.00111903
0.00100401
0.000909767
0.000830242
0.000761547
0.000700222
0.000642438
0.00058573
0.000537726
0.000496744
0.000585399
0.000322921
0.00150267
0.00309927
0.00214882
0.00306336
0.00333968
0.00352441
0.0036594
0.0037581
0.00382954
0.00388017
0.00391329
0.00390104
0.00380666
0.00358317
0.00314037
0.00231565
0.00103185
0.000810699
0.00172305
0.00211339
0.00225874
0.00227418
0.00199453
0.00054373
0.00048574
0.0004409
0.000405818
0.000377849
0.000355124
0.000336429
0.000321136
0.000309312
0.000344667
0.00040229
0.000656963
0.000375987
0.00184693
0.00446208
0.00210731
0.0033498
0.00375409
0.00387452
0.00391404
0.00392344
0.00393547
0.00396162
0.00400183
0.00403228
0.00402925
0.00397894
0.00384452
0.00346691
0.00245235
0.000992631
0.00257362
0.00276748
0.00273487
0.00267193
0.00258502
0.00221289
0.000570441
0.000542923
0.000532389
0.000527721
0.000522229
0.000511303
0.000495251
0.000477344
0.000454414
0.000427363
0.00042642
0.000756157
0.000421056
0.00220231
0.00628208
0.00255074
0.00313673
0.00386477
0.00399321
0.00397423
0.00391531
0.00388048
0.00389204
0.00395013
0.00401136
0.00404542
0.00404973
0.00403924
0.00401556
0.00391871
0.00358004
0.00335134
0.00309175
0.00284993
0.00269402
0.00261106
0.00252298
0.00226154
0.00223229
0.00224712
0.00225327
0.0022287
0.00215929
0.00200205
0.00174565
0.00142763
0.00108307
0.000800663
0.000781606
0.000557837
0.000556178
0.000676645
0.000755134
0.00257292
0.00826699
0.00425261
0.00290406
0.00349376
0.00383628
0.00393413
0.00390104
0.0038212
0.00381711
0.00390703
0.003991
0.00403444
0.00403317
0.00401318
0.00400584
0.00398123
0.00380828
0.00347915
0.00311604
0.0027869
0.00258558
0.00251953
0.00253177
0.00256889
0.00263196
0.00268261
0.00270474
0.00269256
0.00264457
0.0025525
0.00235526
0.00205462
0.00166145
0.00127204
0.000946681
0.000743285
0.000653043
0.000957406
0.000781348
0.00293452
0.00986056
0.00723687
0.00436442
0.00339414
0.00324265
0.00345541
0.00372025
0.00377404
0.00383902
0.00393225
0.00400305
0.00402966
0.0040035
0.00395258
0.00391972
0.00389402
0.00377427
0.00349404
0.00309259
0.00271106
0.00250265
0.00245557
0.00249062
0.00255641
0.00262522
0.00267535
0.00269902
0.0026998
0.00268391
0.00265712
0.00257902
0.0023553
0.00201098
0.00164873
0.0013049
0.00106049
0.00098854
0.00103065
0.000859602
0.00302018
0.00949832
0.00817975
0.00703592
0.00564199
0.00459615
0.00411513
0.00405302
0.00405811
0.00403532
0.00403595
0.00404565
0.00402703
0.00395614
0.00386856
0.0038218
0.00381486
0.00374429
0.00348987
0.00304623
0.00265518
0.00246932
0.00242537
0.00244005
0.00247141
0.00249965
0.00251636
0.00252268
0.00252858
0.00254727
0.00259136
0.00265531
0.00262264
0.00235638
0.00211687
0.00199676
0.00208795
0.00245893
0.00314812
0.0013853
0.00295476
0.00354995
0.00417501
0.0044633
0.0045582
0.00442073
0.0042308
0.00410504
0.00403104
0.00402363
0.00404354
0.0040445
0.00398388
0.00384843
0.00372051
0.00368161
0.00371926
0.00369376
0.00342196
0.00295154
0.00260723
0.00245246
0.00239409
0.00236936
0.00235133
0.00232717
0.00229146
0.00224555
0.00219508
0.00214485
0.00209531
0.00204335
0.00199247
0.00195197
0.00195028
0.00198507
0.00200389
0.00195122
0.00183937
0.00131951
0.00253474
0.00503875
0.00488623
0.00476715
0.00464889
0.00455933
0.00449214
0.00440197
0.00428223
0.00411828
0.00388961
0.00360827
0.00344797
0.00346873
0.00359157
0.00360036
0.00326457
0.00286258
0.00262366
0.00249985
0.00241827
0.00234707
0.00227653
0.00220408
0.00212953
0.00205503
0.00198619
0.00193194
0.00190176
0.00190194
0.00192254
0.00195279
0.00199023
0.00201594
0.00199419
0.00190898
0.00176305
0.00112981
0.00240818
0.0055142
0.00530686
0.00507994
0.00488093
0.0047192
0.00454117
0.00433014
0.00401708
0.00365916
0.00327027
0.00288973
0.00291
0.00319487
0.00354213
0.00367334
0.00346008
0.00321784
0.00305271
0.00294061
0.00284353
0.00274098
0.00262677
0.00250346
0.00237859
0.00226167
0.0021614
0.00208352
0.00202869
0.00199913
0.00201216
0.00205593
0.00211118
0.00215616
0.00214684
0.00220213
0.00232778
0.00115682
0.00190788
0.00207544
0.0022156
0.00237032
0.00224524
0.00214083
0.00194751
0.00177629
0.00160216
0.00143063
0.00129492
0.0011701
0.00104173
0.000899206
0.000810068
0.000832754
0.000844101
0.0008225
0.000788229
0.00076395
0.000748578
0.000737055
0.00072666
0.000717075
0.000709439
0.000705531
0.000707112
0.000715507
0.000731551
0.000755934
0.000789887
0.000833522
0.0008826
0.000937518
0.000997766
0.00106791
0.00109272
0.00106682
0.00100868
0.000947514
)
;

boundaryField
{
    floor
    {
        type            nutkWallFunction;
        Cmu             0.09;
        kappa           0.41;
        E               9.8;
        value           nonuniform List<scalar> 
29
(
0.000113369
6.78103e-05
6.26628e-05
5.89466e-05
5.63417e-05
5.426e-05
5.2205e-05
4.97964e-05
4.74047e-05
4.51524e-05
4.30252e-05
4.10227e-05
3.91411e-05
3.73687e-05
3.56817e-05
3.40369e-05
3.23607e-05
3.05131e-05
2.91571e-05
2.60256e-05
2.60255e-05
3.64784e-05
4.35786e-05
4.95074e-05
0.000113369
6.78103e-05
8.40067e-05
9.81842e-05
0.00011986
)
;
    }
    ceiling
    {
        type            nutkWallFunction;
        Cmu             0.09;
        kappa           0.41;
        E               9.8;
        value           nonuniform List<scalar> 
43
(
0.000223264
0.000241514
0.000256662
0.00027337
0.000259976
0.000248726
0.000227719
0.000208917
0.000189589
0.000170325
0.000154901
0.000140556
0.00012562
0.000108785
9.81107e-05
0.000100843
0.000102203
9.96042e-05
9.5468e-05
9.25253e-05
9.06567e-05
8.92529e-05
8.79844e-05
8.6813e-05
8.58786e-05
8.54002e-05
8.55947e-05
8.66233e-05
8.85847e-05
9.15555e-05
9.56733e-05
0.000100935
0.000106814
0.000113349
0.000120466
0.000128692
0.000131586
0.000128564
0.00012175
0.000114533
0.000335438
0.000397126
0.000277187
)
;
    }
    sWall
    {
        type            nutkWallFunction;
        Cmu             0.09;
        kappa           0.41;
        E               9.8;
        value           uniform 0.000223324;
    }
    nWall
    {
        type            nutkWallFunction;
        Cmu             0.09;
        kappa           0.41;
        E               9.8;
        value           nonuniform List<scalar> 6(9.14585e-05 9.46407e-05 0.000104068 0.000135907 0.000139039 0.000114538);
    }
    sideWalls
    {
        type            empty;
    }
    glass1
    {
        type            nutkWallFunction;
        Cmu             0.09;
        kappa           0.41;
        E               9.8;
        value           nonuniform List<scalar> 9(9.55512e-05 0.000140156 0.000178684 0.000217024 0.000255791 0.000295512 0.00033369 0.000342668 0.000335833);
    }
    glass2
    {
        type            nutkWallFunction;
        Cmu             0.09;
        kappa           0.41;
        E               9.8;
        value           nonuniform List<scalar> 2(0.000165261 0.000157774);
    }
    sun
    {
        type            nutkWallFunction;
        Cmu             0.09;
        kappa           0.41;
        E               9.8;
        value           nonuniform List<scalar> 
14
(
9.55525e-05
0.000100839
9.98569e-05
0.000103206
0.000106093
0.000108551
0.000110693
0.00011263
0.000114485
0.000116109
0.000117037
0.000117091
0.000116266
0.000114921
)
;
    }
    heatsource1
    {
        type            nutkWallFunction;
        Cmu             0.09;
        kappa           0.41;
        E               9.8;
        value           nonuniform List<scalar> 3(6.68416e-05 8.18536e-05 9.14594e-05);
    }
    heatsource2
    {
        type            nutkWallFunction;
        Cmu             0.09;
        kappa           0.41;
        E               9.8;
        value           nonuniform List<scalar> 4(0.000115148 0.000103895 0.000103895 0.00012447);
    }
    Table_master
    {
        type            nutkWallFunction;
        Cmu             0.09;
        kappa           0.41;
        E               9.8;
        value           nonuniform List<scalar> 9(6.5268e-05 5.78821e-05 5.20961e-05 4.75177e-05 4.38317e-05 4.08111e-05 3.83076e-05 3.62462e-05 3.46436e-05);
    }
    Table_slave
    {
        type            nutkWallFunction;
        Cmu             0.09;
        kappa           0.41;
        E               9.8;
        value           nonuniform List<scalar> 9(6.86379e-05 6.51668e-05 6.38324e-05 6.32401e-05 6.25424e-05 6.11516e-05 5.91017e-05 5.6805e-05 5.38483e-05);
    }
    inlet
    {
        type            calculated;
        value           uniform 0.000100623;
    }
    outlet
    {
        type            calculated;
        value           nonuniform List<scalar> 2(0.00190788 0.00207544);
    }
}


// ************************************************************************* //
