/*--------------------------------*- C++ -*----------------------------------*\
  =========                 |
  \\      /  F ield         | OpenFOAM: The Open Source CFD Toolbox
   \\    /   O peration     | Website:  https://openfoam.org
    \\  /    A nd           | Version:  6
     \\/     M anipulation  |
\*---------------------------------------------------------------------------*/
FoamFile
{
    version     2.0;
    format      ascii;
    class       volScalarField;
    location    "600";
    object      alphat;
}
// * * * * * * * * * * * * * * * * * * * * * * * * * * * * * * * * * * * * * //

dimensions      [1 -1 -1 0 0 0 0];

internalField   nonuniform List<scalar> 
459
(
0.00125304
0.00137033
0.00139598
0.00146315
0.00152534
0.00158356
0.00164065
0.00169643
0.00173581
0.00175242
0.00174039
0.0016961
0.00161938
0.00151671
0.00140404
0.00055106
0.000674358
0.000758281
0.000752922
0.000726575
0.000692208
0.000649408
0.000607107
0.000568736
0.000534667
0.000504494
0.000477678
0.000453822
0.000432398
0.000412639
0.000393551
0.000373667
0.000359265
0.000327003
0.0017064
0.0041799
0.00400603
0.004665
0.00531182
0.00595813
0.00652767
0.00695539
0.00734112
0.0076536
0.00784908
0.00787781
0.00766365
0.00701567
0.00524344
0.0014319
0.000844634
0.000596257
0.00125118
0.00172612
0.0020644
0.00224237
0.00223309
0.00179738
0.00155163
0.00137563
0.00124036
0.00113268
0.00104495
0.000969259
0.00089853
0.000829769
0.000768562
0.000715243
0.000835094
0.000426569
0.00208284
0.00570782
0.00497465
0.00624722
0.00688205
0.00735144
0.00771418
0.00800143
0.00831198
0.00863565
0.00893398
0.00915209
0.00922878
0.00907464
0.00845141
0.00651893
0.00142366
0.00119048
0.00170815
0.00218552
0.00260821
0.00289204
0.00280911
0.000929856
0.00082104
0.000733653
0.000663158
0.000605735
0.000558461
0.000519236
0.000486723
0.000460363
0.000496293
0.0005742
0.000937848
0.000492804
0.0024435
0.00729054
0.00498896
0.00661808
0.00718141
0.00737156
0.00749133
0.00763463
0.0078794
0.00821014
0.00858616
0.00893897
0.00920464
0.00931247
0.00917903
0.00851425
0.00623895
0.00170461
0.00211293
0.00272524
0.00331229
0.0037724
0.00404877
0.00378618
0.0010489
0.000954602
0.000886942
0.000835301
0.000791466
0.000751446
0.000713073
0.000672911
0.000626459
0.000587836
0.000601296
0.00106869
0.000544132
0.00281091
0.00932162
0.00548181
0.00637067
0.00712049
0.00717397
0.00710761
0.0071787
0.00739376
0.0077302
0.00815248
0.0085667
0.00888466
0.00903535
0.00899339
0.00871053
0.00799313
0.0066121
0.00613853
0.00598152
0.00592685
0.00589149
0.00582556
0.00559702
0.00471949
0.00429746
0.00405134
0.00386119
0.00366174
0.00337575
0.00299179
0.00252635
0.00200914
0.00148728
0.00109615
0.00109864
0.00072933
0.000670399
0.000812109
0.000911448
0.00320019
0.0115323
0.00753852
0.00633627
0.006902
0.00715734
0.00699293
0.00705279
0.00721541
0.00751704
0.00794354
0.00839759
0.00874789
0.00889275
0.00880812
0.00854837
0.00820392
0.00784829
0.00765071
0.00750661
0.00734359
0.00715617
0.00694321
0.00667315
0.00627315
0.00591415
0.00559557
0.0052911
0.0049827
0.00464893
0.00423182
0.00371501
0.00309783
0.00241471
0.00181038
0.00135447
0.00101878
0.000864623
0.00123242
0.000950887
0.00355384
0.0130749
0.0105503
0.00815815
0.00772455
0.00762827
0.00736831
0.00720426
0.00725593
0.00755141
0.00802511
0.00853212
0.0089015
0.00901365
0.00885586
0.00854065
0.00826848
0.0081764
0.00819282
0.00812668
0.00792086
0.00761228
0.00723675
0.0068156
0.00637102
0.00595852
0.00558141
0.00523132
0.00490861
0.00462067
0.00436727
0.00402204
0.00354019
0.00295301
0.00238843
0.00188276
0.00151053
0.00139435
0.00142057
0.00108243
0.00361992
0.0116157
0.0103291
0.00954634
0.00884441
0.00803484
0.00740565
0.00715908
0.00731853
0.00779683
0.0084302
0.0090094
0.00933916
0.00932644
0.00901704
0.0086049
0.00835647
0.00835911
0.00837928
0.00813612
0.00769525
0.00714389
0.00655605
0.00599542
0.00550427
0.00509204
0.00474342
0.00444974
0.00421432
0.00404595
0.00395292
0.00390551
0.00366142
0.00328395
0.00295154
0.00277996
0.00288235
0.00331667
0.0040753
0.00169037
0.0035201
0.00417731
0.00463972
0.00475538
0.00485673
0.00513259
0.00568404
0.00652015
0.0075433
0.00857613
0.00942803
0.00991905
0.0099325
0.00952673
0.00891755
0.00849367
0.00826466
0.00807207
0.00773834
0.00719326
0.00651667
0.0058157
0.00518004
0.00465467
0.00423936
0.00390909
0.00363844
0.00341202
0.00322001
0.00305262
0.00289944
0.00275919
0.0026483
0.00256649
0.00253517
0.00254613
0.00253235
0.00243225
0.00227431
0.00159018
0.00175668
0.00360155
0.00585256
0.00771998
0.00917244
0.0102768
0.0109698
0.011239
0.0111257
0.0106175
0.00982921
0.00885826
0.00803737
0.00752963
0.00712189
0.00661847
0.00599747
0.00533037
0.00469576
0.00414781
0.00371439
0.00337996
0.00311883
0.00291114
0.00274563
0.00261682
0.00252212
0.00246029
0.00243331
0.00243807
0.00245865
0.00249051
0.00252474
0.00253366
0.00247253
0.00232664
0.00210703
0.00132342
0.00234948
0.00603806
0.00898265
0.0101068
0.0106664
0.0108359
0.0105878
0.00999444
0.00917677
0.00825247
0.00738077
0.00660933
0.00598979
0.00546203
0.00492849
0.00440194
0.00393449
0.00355377
0.00325846
0.00303137
0.00284622
0.00268911
0.00255416
0.00244464
0.00236381
0.00231104
0.00228479
0.00228336
0.00231213
0.0023679
0.0024466
0.00253969
0.00262838
0.00268958
0.00266922
0.00269941
0.00274394
0.00134966
0.0020846
0.00220949
0.00229749
0.00245997
0.00237419
0.00227594
0.0022122
0.00212226
0.00199352
0.00183375
0.00165414
0.00146753
0.00128651
0.00113137
0.00101431
0.000931159
0.000872149
0.000829451
0.000798307
0.000776
0.000760835
0.000751776
0.000748167
0.000750242
0.000758522
0.000772728
0.000792639
0.000818662
0.00085146
0.000891874
0.000938881
0.000992561
0.0010535
0.00112222
0.00119817
0.00128819
0.00131788
0.00128429
0.00120672
0.00112458
)
;

boundaryField
{
    floor
    {
        type            compressible::alphatWallFunction;
        Prt             0.85;
        value           nonuniform List<scalar> 
29
(
0.000198049
7.70225e-05
9.54375e-05
0.000107734
0.000106954
0.000103109
9.80679e-05
9.17471e-05
8.54499e-05
7.9691e-05
7.45375e-05
6.9939e-05
6.58232e-05
6.21371e-05
5.88058e-05
5.57147e-05
5.27106e-05
4.95611e-05
4.72665e-05
4.20821e-05
4.20815e-05
5.78962e-05
6.81486e-05
7.59739e-05
0.000198047
7.70216e-05
8.38257e-05
0.000168854
0.000238314
)
;
    }
    ceiling
    {
        type            compressible::alphatWallFunction;
        Prt             0.85;
        value           nonuniform List<scalar> 
43
(
0.000288021
0.000304163
0.00031548
0.000336377
0.000325479
0.000312909
0.000304722
0.000293116
0.000276402
0.000255492
0.000231741
0.000206758
0.00018218
0.000160802
0.000144448
0.0001327
0.000124287
0.000118158
0.000113663
0.000110431
0.000108228
0.000106909
0.000106383
0.000106686
0.000107892
0.000109957
0.000112844
0.000116604
0.000121323
0.000127108
0.000133798
0.00014139
0.000149951
0.000159536
0.000170052
0.000182417
0.000186474
0.000181885
0.000171233
0.000159869
0.000469047
0.000548984
0.000321974
)
;
    }
    sWall
    {
        type            compressible::alphatWallFunction;
        Prt             0.85;
        value           uniform 0.000286812;
    }
    nWall
    {
        type            compressible::alphatWallFunction;
        Prt             0.85;
        value           nonuniform List<scalar> 6(0.000129579 0.000135175 0.000153659 0.000186905 0.000190478 0.000159547);
    }
    sideWalls
    {
        type            empty;
    }
    glass1
    {
        type            compressible::alphatWallFunction;
        Prt             0.85;
        value           nonuniform List<scalar> 9(0.000173185 0.000233467 0.000282297 0.000328279 0.000374446 0.000422722 0.000466098 0.000474284 0.000462337);
    }
    glass2
    {
        type            compressible::alphatWallFunction;
        Prt             0.85;
        value           nonuniform List<scalar> 2(0.000234879 0.000221656);
    }
    sun
    {
        type            compressible::alphatWallFunction;
        Prt             0.85;
        value           nonuniform List<scalar> 
14
(
0.000177484
0.000193481
0.000196961
0.000206042
0.000214408
0.000222206
0.000229821
0.000237234
0.00024245
0.000244646
0.000243055
0.000237188
0.000226984
0.000213245
)
;
    }
    heatsource1
    {
        type            compressible::alphatWallFunction;
        Prt             0.85;
        value           nonuniform List<scalar> 3(9.49561e-05 0.000115641 0.000129881);
    }
    heatsource2
    {
        type            compressible::alphatWallFunction;
        Prt             0.85;
        value           nonuniform List<scalar> 4(0.000201939 0.000120325 0.000120324 0.000200823);
    }
    Table_master
    {
        type            compressible::alphatWallFunction;
        Prt             0.85;
        value           nonuniform List<scalar> 9(0.000132496 0.000116927 0.000104246 9.38835e-05 8.53433e-05 7.82376e-05 7.22849e-05 6.73079e-05 6.32422e-05);
    }
    Table_slave
    {
        type            compressible::alphatWallFunction;
        Prt             0.85;
        value           nonuniform List<scalar> 9(0.000149288 0.000136009 0.000126386 0.000118983 0.000112657 0.000106845 0.000101236 9.53271e-05 8.84385e-05);
    }
    inlet
    {
        type            fixedValue;
        value           uniform 1.94e-05;
    }
    outlet
    {
        type            zeroGradient;
    }
}


// ************************************************************************* //
