/*--------------------------------*- C++ -*----------------------------------*\
  =========                 |
  \\      /  F ield         | OpenFOAM: The Open Source CFD Toolbox
   \\    /   O peration     | Website:  https://openfoam.org
    \\  /    A nd           | Version:  6
     \\/     M anipulation  |
\*---------------------------------------------------------------------------*/
FoamFile
{
    version     2.0;
    format      ascii;
    class       volScalarField;
    location    "1300";
    object      alphat;
}
// * * * * * * * * * * * * * * * * * * * * * * * * * * * * * * * * * * * * * //

dimensions      [1 -1 -1 0 0 0 0];

internalField   nonuniform List<scalar> 
459
(
0.000837647
0.000876493
0.000861159
0.000890144
0.000915522
0.000937293
0.000956309
0.000973478
0.000989769
0.00100583
0.00101746
0.00102339
0.00102331
0.00101898
0.001011
0.000566037
0.000561794
0.000561454
0.000568958
0.000571008
0.000562696
0.000539892
0.000514081
0.000490151
0.000468138
0.000447736
0.000428733
0.000410912
0.000394002
0.000377581
0.00036102
0.000343182
0.000329511
0.000300811
0.00127896
0.00213348
0.00181692
0.00213566
0.00230261
0.0024755
0.00264551
0.00279904
0.00291596
0.00297899
0.00299411
0.00292815
0.00273332
0.00234347
0.00170201
0.00103873
0.000945895
0.000718945
0.00155512
0.00211946
0.00238216
0.00239149
0.00220563
0.00167136
0.00146502
0.0013169
0.00119318
0.00108556
0.000990585
0.00090467
0.000822548
0.000739348
0.00066569
0.000603311
0.000705895
0.000384252
0.00168361
0.00321647
0.00200083
0.00302573
0.00329331
0.00347316
0.00361075
0.00371458
0.00379039
0.00383381
0.00385125
0.00380966
0.00366524
0.00335864
0.00282209
0.00205697
0.00114584
0.000867419
0.00267605
0.00311411
0.00302302
0.00280985
0.00233436
0.000645259
0.000567894
0.000508746
0.00046434
0.000430448
0.000403757
0.000382232
0.000365025
0.000352785
0.000410307
0.000484178
0.000802401
0.00044827
0.00210064
0.00484359
0.00199002
0.00336253
0.00381957
0.00397463
0.00405578
0.00410219
0.0041361
0.00416474
0.00419423
0.00420594
0.00416992
0.00404344
0.00374509
0.00313003
0.00209827
0.00115269
0.00318116
0.00331944
0.00315542
0.00286173
0.00258782
0.00218553
0.000604106
0.000590224
0.000593154
0.00059894
0.000600715
0.000593703
0.000575836
0.000556351
0.000531642
0.000511132
0.000512548
0.000934922
0.000506878
0.00252787
0.00699451
0.00253984
0.0031524
0.00401526
0.00420802
0.00425896
0.00426124
0.00425571
0.0042687
0.00430875
0.00436832
0.00441677
0.00443397
0.0044052
0.00431865
0.00415233
0.0038157
0.00356572
0.00320969
0.00286229
0.00256561
0.00237091
0.0022791
0.00214817
0.00221564
0.00229545
0.00235003
0.0023628
0.00232121
0.00220327
0.00193888
0.00159624
0.00123579
0.000935596
0.000936518
0.000678122
0.000667422
0.000804554
0.000897189
0.00296711
0.00931337
0.00448664
0.00289638
0.00364853
0.0040992
0.00428237
0.00433462
0.00430733
0.00425901
0.00430425
0.00439331
0.00447049
0.00451372
0.00450896
0.00443967
0.0042603
0.00391107
0.00346876
0.00305384
0.00269767
0.00242068
0.00227896
0.00226795
0.00235211
0.0024834
0.00260538
0.00269525
0.00274262
0.00274214
0.00269074
0.00252271
0.00223108
0.00183376
0.0014301
0.00108078
0.000877174
0.000780638
0.00114615
0.000930618
0.00339811
0.0112147
0.0080344
0.00456699
0.00340144
0.00330565
0.00366527
0.00405372
0.00432835
0.00423656
0.00430331
0.00438999
0.00445595
0.0044846
0.00446048
0.0043659
0.00416089
0.00381797
0.0034153
0.00304257
0.00269091
0.00240657
0.00227285
0.00226912
0.00234495
0.00245861
0.00257475
0.00267461
0.00274597
0.0027884
0.00280792
0.00279442
0.00258491
0.00222588
0.00184094
0.00146944
0.00121613
0.00114959
0.00121311
0.001022
0.00350071
0.0110028
0.00935671
0.00788987
0.00611062
0.00480397
0.00422493
0.00415586
0.00432688
0.00436167
0.00437227
0.00439218
0.00440698
0.00439199
0.00432426
0.00418794
0.0039723
0.00368321
0.00337042
0.00308079
0.00274271
0.00244523
0.00230349
0.00228428
0.00232836
0.00239957
0.002476
0.00254859
0.00261704
0.00269013
0.00278326
0.00290725
0.0029693
0.00267103
0.00241484
0.0023026
0.00244505
0.00293504
0.00378587
0.00164708
0.00342222
0.00412429
0.00483299
0.00515316
0.00520298
0.00495739
0.00465669
0.00444469
0.00434245
0.00429605
0.00429781
0.00431032
0.0042999
0.00424102
0.00411938
0.00393521
0.00370538
0.00346126
0.00323847
0.00304946
0.00277371
0.00248261
0.00233052
0.00228263
0.00228523
0.00230651
0.00232926
0.00234572
0.0023536
0.00235271
0.00234255
0.00232206
0.00229301
0.00226809
0.00228407
0.00233634
0.00236248
0.00229851
0.00216432
0.00155689
0.00305862
0.00587339
0.0055904
0.0053637
0.00513872
0.00494824
0.00480461
0.00467868
0.00455052
0.00441062
0.00424668
0.00404934
0.00381701
0.00356191
0.00331686
0.00312624
0.00300679
0.00293763
0.00276557
0.00253179
0.0023748
0.00228391
0.00223438
0.00220813
0.00219313
0.00218289
0.00217603
0.00217531
0.00218595
0.00221347
0.0022575
0.00230426
0.00235415
0.00238533
0.00235634
0.0022511
0.00207221
0.00131427
0.00288843
0.00642176
0.00604945
0.0057073
0.00542604
0.0051786
0.00493555
0.00469992
0.00441738
0.00409613
0.00376734
0.00344678
0.00314618
0.00288596
0.00271393
0.00268672
0.00276239
0.00288816
0.00293323
0.00284277
0.00270959
0.0025687
0.0024431
0.00234388
0.00227405
0.00223282
0.00221807
0.00222679
0.00225339
0.00228502
0.00234288
0.00242254
0.00250491
0.00257024
0.00256368
0.0026313
0.00270573
0.00133993
0.00227808
0.00247594
0.00264363
0.00281274
0.00264411
0.00249529
0.0022835
0.0021018
0.00192722
0.00175788
0.00161004
0.00148113
0.00136025
0.00124134
0.0011208
0.000997833
0.000879103
0.000784561
0.000737536
0.000739058
0.000734521
0.000721171
0.000709597
0.000704509
0.000708262
0.000721009
0.000741899
0.00076997
0.000804654
0.000846129
0.000895783
0.000957241
0.00102503
0.001098
0.00117596
0.00126833
0.00129697
0.00126596
0.00119355
0.00111487
)
;

boundaryField
{
    floor
    {
        type            compressible::alphatWallFunction;
        Prt             0.85;
        value           nonuniform List<scalar> 
29
(
0.000143877
7.93035e-05
7.86572e-05
7.86017e-05
7.97307e-05
8.00383e-05
7.87849e-05
7.53351e-05
7.14086e-05
6.77461e-05
6.43569e-05
6.11977e-05
5.82386e-05
5.54484e-05
5.27862e-05
5.01869e-05
4.75504e-05
4.46928e-05
4.24894e-05
3.78247e-05
3.78242e-05
5.12426e-05
6.12783e-05
7.03061e-05
0.000143876
7.93025e-05
0.000102006
0.000123496
0.000163641
)
;
    }
    ceiling
    {
        type            compressible::alphatWallFunction;
        Prt             0.85;
        value           nonuniform List<scalar> 
43
(
0.000313059
0.00033836
0.000359636
0.000381061
0.00035984
0.000340983
0.000313924
0.000290487
0.000267761
0.0002455
0.000225872
0.000208594
0.000192239
0.000175989
0.000159333
0.000142127
0.000125276
0.000111662
0.000104819
0.000105042
0.000104378
0.000102426
0.000100731
9.99865e-05
0.00010054
0.000102411
0.000105467
0.000109555
0.000114582
0.000120558
0.000127667
0.000136402
0.00014596
0.000156167
0.000166987
0.0001797
0.000183621
0.000179377
0.000169417
0.00015852
0.00045704
0.000542612
0.00039033
)
;
    }
    sWall
    {
        type            compressible::alphatWallFunction;
        Prt             0.85;
        value           uniform 0.00031187;
    }
    nWall
    {
        type            compressible::alphatWallFunction;
        Prt             0.85;
        value           nonuniform List<scalar> 6(0.000127552 0.000132305 0.000145205 0.000185657 0.000189153 0.000158198);
    }
    sideWalls
    {
        type            empty;
    }
    glass1
    {
        type            compressible::alphatWallFunction;
        Prt             0.85;
        value           nonuniform List<scalar> 9(0.000116062 0.000176922 0.000230781 0.000284921 0.000339284 0.000394236 0.000447382 0.000460052 0.000450652);
    }
    glass2
    {
        type            compressible::alphatWallFunction;
        Prt             0.85;
        value           nonuniform List<scalar> 2(0.000229171 0.000217234);
    }
    sun
    {
        type            compressible::alphatWallFunction;
        Prt             0.85;
        value           nonuniform List<scalar> 
14
(
0.000119253
0.000124808
0.000122612
0.000126758
0.000130375
0.000133469
0.000136164
0.000138592
0.000140891
0.000143153
0.000144789
0.00014562
0.000145608
0.000145
)
;
    }
    heatsource1
    {
        type            compressible::alphatWallFunction;
        Prt             0.85;
        value           nonuniform List<scalar> 3(9.45167e-05 0.000114551 0.000127849);
    }
    heatsource2
    {
        type            compressible::alphatWallFunction;
        Prt             0.85;
        value           nonuniform List<scalar> 4(0.00014786 0.000134774 0.000134772 0.000162791);
    }
    Table_master
    {
        type            compressible::alphatWallFunction;
        Prt             0.85;
        value           nonuniform List<scalar> 9(9.12299e-05 7.96604e-05 7.06832e-05 6.38575e-05 5.85919e-05 5.44078e-05 5.10073e-05 4.82714e-05 4.63147e-05);
    }
    Table_slave
    {
        type            compressible::alphatWallFunction;
        Prt             0.85;
        value           nonuniform List<scalar> 9(8.51025e-05 8.30223e-05 8.34616e-05 8.43285e-05 8.45942e-05 8.35433e-05 8.08593e-05 7.79205e-05 7.41752e-05);
    }
    inlet
    {
        type            fixedValue;
        value           uniform 1.94e-05;
    }
    outlet
    {
        type            zeroGradient;
    }
}


// ************************************************************************* //
