/*--------------------------------*- C++ -*----------------------------------*\
  =========                 |
  \\      /  F ield         | OpenFOAM: The Open Source CFD Toolbox
   \\    /   O peration     | Website:  https://openfoam.org
    \\  /    A nd           | Version:  6
     \\/     M anipulation  |
\*---------------------------------------------------------------------------*/
FoamFile
{
    version     2.0;
    format      ascii;
    class       volScalarField;
    location    "500";
    object      T;
}
// * * * * * * * * * * * * * * * * * * * * * * * * * * * * * * * * * * * * * //

dimensions      [0 0 0 1 0 0 0];

internalField   nonuniform List<scalar> 
459
(
303.599
303.335
303.324
303.321
303.318
303.315
303.311
303.307
303.301
303.292
303.28
303.267
303.255
303.245
303.24
303.281
303.262
303.254
303.254
303.255
303.256
303.257
303.258
303.259
303.26
303.261
303.262
303.263
303.264
303.264
303.265
303.265
303.266
303.278
303.783
303.378
303.357
303.361
303.366
303.369
303.369
303.367
303.36
303.344
303.32
303.293
303.266
303.244
303.228
303.219
303.213
303.274
303.253
303.246
303.245
303.244
303.244
303.242
303.241
303.239
303.237
303.236
303.234
303.232
303.231
303.231
303.232
303.234
303.237
303.261
303.974
303.428
303.391
303.403
303.419
303.433
303.442
303.445
303.438
303.414
303.375
303.328
303.284
303.251
303.23
303.221
303.217
303.238
303.238
303.241
303.244
303.247
303.247
303.245
303.242
303.24
303.237
303.234
303.232
303.229
303.226
303.224
303.224
303.224
303.227
303.253
304.163
303.489
303.424
303.441
303.469
303.497
303.521
303.536
303.53
303.495
303.435
303.364
303.3
303.255
303.229
303.219
303.218
303.225
303.23
303.238
303.246
303.253
303.258
303.261
303.263
303.265
303.266
303.267
303.267
303.267
303.266
303.264
303.262
303.247
303.234
303.228
303.25
304.345
303.565
303.46
303.47
303.505
303.546
303.587
303.619
303.616
303.567
303.483
303.389
303.306
303.252
303.224
303.215
303.218
303.226
303.237
303.25
303.261
303.271
303.277
303.282
303.285
303.288
303.289
303.29
303.29
303.287
303.284
303.279
303.272
303.26
303.244
303.232
303.244
303.299
303.335
303.343
304.506
303.664
303.522
303.505
303.533
303.575
303.626
303.682
303.674
303.605
303.5
303.39
303.299
303.24
303.212
303.208
303.218
303.234
303.251
303.268
303.282
303.293
303.3
303.305
303.308
303.31
303.311
303.31
303.309
303.305
303.299
303.291
303.282
303.27
303.254
303.239
303.24
303.264
303.276
303.308
304.647
303.824
303.677
303.625
303.622
303.645
303.694
303.73
303.698
303.603
303.476
303.354
303.262
303.208
303.191
303.2
303.223
303.249
303.274
303.294
303.308
303.318
303.324
303.327
303.329
303.33
303.33
303.329
303.326
303.321
303.312
303.302
303.291
303.278
303.264
303.249
303.244
303.251
303.259
303.286
304.86
304.244
304.081
303.962
303.886
303.854
303.851
303.801
303.688
303.534
303.379
303.257
303.183
303.157
303.168
303.199
303.24
303.276
303.306
303.323
303.334
303.341
303.345
303.347
303.349
303.349
303.349
303.347
303.343
303.338
303.331
303.319
303.308
303.297
303.286
303.276
303.274
303.286
303.306
303.437
305.162
304.88
304.616
304.385
304.204
304.066
303.939
303.73
303.492
303.284
303.144
303.077
303.07
303.105
303.163
303.223
303.281
303.316
303.336
303.348
303.355
303.36
303.364
303.366
303.367
303.368
303.368
303.367
303.365
303.364
303.364
303.366
303.371
303.381
303.398
303.424
303.459
303.492
303.514
303.568
297.05
299.737
301.218
301.79
302.007
302.188
302.362
302.533
302.702
302.862
303.001
303.12
303.229
303.291
303.328
303.349
303.361
303.368
303.374
303.378
303.381
303.384
303.387
303.389
303.391
303.393
303.395
303.398
303.402
303.406
303.412
303.423
303.438
303.458
303.482
303.504
303.519
303.533
297.669
299.842
300.899
301.509
301.874
302.152
302.408
302.641
302.859
303.044
303.17
303.257
303.313
303.343
303.361
303.371
303.378
303.383
303.388
303.392
303.396
303.399
303.402
303.406
303.409
303.412
303.415
303.418
303.421
303.425
303.43
303.438
303.449
303.463
303.479
303.495
303.489
303.516
299.718
299.643
299.639
301.254
301.94
302.329
302.618
302.843
303
303.116
303.204
303.265
303.306
303.334
303.351
303.361
303.368
303.373
303.378
303.383
303.387
303.391
303.395
303.399
303.403
303.407
303.411
303.414
303.418
303.421
303.425
303.429
303.433
303.438
303.445
303.456
303.465
303.47
303.47
303.507
)
;

boundaryField
{
    floor
    {
        type            wallHeatTransfer;
        Tinf            uniform 305.2;
        alphaWall       uniform 0.24;
        value           nonuniform List<scalar> 
29
(
303.437
303.67
303.605
303.583
303.59
303.602
303.615
303.631
303.646
303.661
303.676
303.691
303.704
303.717
303.73
303.742
303.755
303.769
303.778
303.811
303.811
303.709
303.659
303.629
303.437
303.67
303.606
303.465
303.41
)
;
    }
    ceiling
    {
        type            wallHeatTransfer;
        Tinf            uniform 303.2;
        alphaWall       uniform 0.24;
        value           nonuniform List<scalar> 
43
(
299.962
299.882
299.87
301.375
302.022
302.39
302.661
302.872
303.016
303.123
303.204
303.259
303.294
303.316
303.328
303.335
303.339
303.343
303.347
303.351
303.355
303.359
303.363
303.367
303.371
303.375
303.379
303.383
303.387
303.391
303.395
303.4
303.405
303.411
303.418
303.429
303.438
303.442
303.441
303.472
305.07
304.812
298.013
)
;
    }
    sWall
    {
        type            wallHeatTransfer;
        Tinf            uniform 315.2;
        alphaWall       uniform 0.36;
        value           uniform 301.297;
    }
    nWall
    {
        type            wallHeatTransfer;
        Tinf            uniform 307.2;
        alphaWall       uniform 0.36;
        value           nonuniform List<scalar> 6(304.067 304.02 303.953 304.066 304.045 304.105);
    }
    sideWalls
    {
        type            empty;
    }
    glass1
    {
        type            wallHeatTransfer;
        Tinf            uniform 315.2;
        alphaWall       uniform 4.3;
        value           nonuniform List<scalar> 9(311.736 311.08 310.659 310.33 310.055 309.808 309.612 309.672 309.887);
    }
    glass2
    {
        type            wallHeatTransfer;
        Tinf            uniform 307.2;
        alphaWall       uniform 4.3;
        value           nonuniform List<scalar> 2(305.782 305.875);
    }
    sun
    {
        type            wallHeatTransfer;
        Tinf            uniform 305.2;
        alphaWall       uniform 0.24;
        value           nonuniform List<scalar> 
14
(
303.781
303.535
303.523
303.514
303.506
303.498
303.491
303.483
303.474
303.464
303.453
303.443
303.436
303.434
)
;
    }
    heatsource1
    {
        type            fixedGradient;
        gradient        uniform 0;
    }
    heatsource2
    {
        type            fixedGradient;
        gradient        uniform 0;
    }
    Table_master
    {
        type            zeroGradient;
    }
    Table_slave
    {
        type            zeroGradient;
    }
    inlet
    {
        type            fixedValue;
        value           uniform 293.15;
    }
    outlet
    {
        type            zeroGradient;
    }
}


// ************************************************************************* //
