/*--------------------------------*- C++ -*----------------------------------*\
  =========                 |
  \\      /  F ield         | OpenFOAM: The Open Source CFD Toolbox
   \\    /   O peration     | Website:  https://openfoam.org
    \\  /    A nd           | Version:  6
     \\/     M anipulation  |
\*---------------------------------------------------------------------------*/
FoamFile
{
    version     2.0;
    format      ascii;
    class       volScalarField;
    location    "600";
    object      nut;
}
// * * * * * * * * * * * * * * * * * * * * * * * * * * * * * * * * * * * * * //

dimensions      [0 2 -1 0 0 0 0];

internalField   nonuniform List<scalar> 
459
(
0.00103017
0.00112025
0.00113699
0.00118976
0.00123816
0.00128283
0.00132572
0.00136938
0.00140442
0.00142427
0.00142364
0.00139845
0.00134814
0.0012789
0.00120332
0.00044955
0.000554761
0.00061305
0.000598825
0.000573082
0.000543438
0.000510513
0.000479022
0.000450554
0.00042518
0.000402589
0.000382428
0.000364456
0.000348176
0.000333041
0.000318291
0.000302768
0.000292923
0.000268313
0.0014187
0.00333025
0.00314038
0.00364756
0.00413175
0.00462414
0.00508079
0.00543091
0.00573679
0.00599628
0.00616916
0.00620221
0.00601294
0.00542128
0.00389278
0.00122036
0.000786503
0.000499678
0.000979179
0.0013045
0.00152016
0.00161994
0.00160631
0.00134547
0.00118256
0.0010616
0.000966463
0.000889307
0.000825139
0.000767384
0.000713403
0.00066165
0.000616665
0.000576189
0.000684567
0.000359225
0.00174577
0.0045562
0.00384585
0.0049105
0.00541422
0.00578299
0.00606553
0.00628369
0.00650758
0.00674984
0.00698391
0.00716559
0.00723375
0.0071216
0.00667262
0.00536573
0.00118148
0.00102067
0.0013861
0.00169252
0.00194323
0.00209897
0.0020315
0.00072433
0.000645025
0.000581032
0.000529089
0.000486509
0.000451241
0.000421801
0.000397212
0.000377019
0.000404611
0.000464318
0.000766091
0.000418786
0.00206316
0.00591126
0.00381946
0.00521618
0.00571074
0.00586818
0.00593522
0.00601142
0.0061599
0.00638601
0.0066649
0.00695227
0.00717779
0.00729713
0.00724162
0.006806
0.0052781
0.00139011
0.00172942
0.00217649
0.00254935
0.00280928
0.00295313
0.00276621
0.000811307
0.00074509
0.000698651
0.000663889
0.000634292
0.000605993
0.000578692
0.00054965
0.000515273
0.000484473
0.000491181
0.00087612
0.000464479
0.00238799
0.00767247
0.00422091
0.00496296
0.00567843
0.00575732
0.00568097
0.00563699
0.00576068
0.00598335
0.00628969
0.0066332
0.00691433
0.00707155
0.00706198
0.0068423
0.0062784
0.00513085
0.00467831
0.00446094
0.00432862
0.00423984
0.00417169
0.0040386
0.00349358
0.0032479
0.0031131
0.00300647
0.00288311
0.00269236
0.0024099
0.0020536
0.00164911
0.00123071
0.000905871
0.000896236
0.000617304
0.000580103
0.000701965
0.000786076
0.00273196
0.00958857
0.00594952
0.00481139
0.00533952
0.00562896
0.00554304
0.00549884
0.00561368
0.00581802
0.00611999
0.00647408
0.00678358
0.00694717
0.00690603
0.00666708
0.00629287
0.00586872
0.00557858
0.00536298
0.00517394
0.00501403
0.00487832
0.00473578
0.00452837
0.00434668
0.00418123
0.00401409
0.00383457
0.00363284
0.00335406
0.00298172
0.00251464
0.00197782
0.00148719
0.00109697
0.000841078
0.000723991
0.00104183
0.000818329
0.00305099
0.0109697
0.0085889
0.00628986
0.00576606
0.00583217
0.00578592
0.00569375
0.00569205
0.0058477
0.00615698
0.00653987
0.00686909
0.00701857
0.00692301
0.00661414
0.00622581
0.00592416
0.00576295
0.00562418
0.0054372
0.00521024
0.00496318
0.00471937
0.00449465
0.00430232
0.00412603
0.00395469
0.00378754
0.00363019
0.00348274
0.0032419
0.00287182
0.00240551
0.0019487
0.00152771
0.00122864
0.00113691
0.00116724
0.000919558
0.00311662
0.00993614
0.00872524
0.00791471
0.00729387
0.00677144
0.00621211
0.00584417
0.00577399
0.0059891
0.00639349
0.00683961
0.00716645
0.00723975
0.00701924
0.00658343
0.00613171
0.00586169
0.00574206
0.00549917
0.00513875
0.00474425
0.00438665
0.0041029
0.00388972
0.0037226
0.00357905
0.00345253
0.00334776
0.0032748
0.00324469
0.00323569
0.00302646
0.00271011
0.00242613
0.00227755
0.00236445
0.00274633
0.00342815
0.00145333
0.00303726
0.00361539
0.00404465
0.0042122
0.00429863
0.00437679
0.00458322
0.00499652
0.00560488
0.00631403
0.00698087
0.00746229
0.0076439
0.00744564
0.00692974
0.00629884
0.00585983
0.00554105
0.00519219
0.00472584
0.00422729
0.00380055
0.00348333
0.00325949
0.0030955
0.00296292
0.00284528
0.0027356
0.00263037
0.00252592
0.00241806
0.00230801
0.0022165
0.00214875
0.00212687
0.00214501
0.00214467
0.00206955
0.00194004
0.00136891
0.00162205
0.00319582
0.00447568
0.00549391
0.00641054
0.00722743
0.00788629
0.00830256
0.00842946
0.00825984
0.00779979
0.00703358
0.00613842
0.00541035
0.00491795
0.00445015
0.00393979
0.00345185
0.00306427
0.00278963
0.0025991
0.00246112
0.0023538
0.0022653
0.00219073
0.00212904
0.00208104
0.00204861
0.00203545
0.00204547
0.00206546
0.00209417
0.00212595
0.00213766
0.00209003
0.00196777
0.00178303
0.00113678
0.00202644
0.00467288
0.00662586
0.00743787
0.00804913
0.0084015
0.00846291
0.00819184
0.00763457
0.00686624
0.00600343
0.00518393
0.00449156
0.00392303
0.00342105
0.00298608
0.0026582
0.00243218
0.00226989
0.00214355
0.00204431
0.00196872
0.00191246
0.00187379
0.00185223
0.00184747
0.00185849
0.00188263
0.00192416
0.00198381
0.00205912
0.0021442
0.00222464
0.00228123
0.00227085
0.00230325
0.00232784
0.00115763
0.00178252
0.00188778
0.00196321
0.00209267
0.0020045
0.00190192
0.00182233
0.00173527
0.00163491
0.00151329
0.00136954
0.00121112
0.00105141
0.000905745
0.000788499
0.000705969
0.000653059
0.000620937
0.000602649
0.000593824
0.000591785
0.00059543
0.000603472
0.000615
0.000630019
0.00064864
0.000671056
0.000697587
0.000728788
0.00076567
0.00080803
0.000855392
0.00090841
0.000967731
0.00103328
0.00111107
0.00113892
0.00111184
0.00104375
0.000972308
)
;

boundaryField
{
    floor
    {
        type            nutkWallFunction;
        Cmu             0.09;
        kappa           0.41;
        E               9.8;
        value           nonuniform List<scalar> 
29
(
0.00014439
5.32166e-05
6.66618e-05
7.39721e-05
7.2196e-05
6.8969e-05
6.52309e-05
6.10495e-05
5.70189e-05
5.33467e-05
5.0049e-05
4.7092e-05
4.44353e-05
4.20519e-05
3.98797e-05
3.78484e-05
3.58573e-05
3.37488e-05
3.24042e-05
2.9016e-05
2.90159e-05
4.13554e-05
4.92144e-05
5.51468e-05
0.000144391
5.32166e-05
5.96663e-05
0.000123154
0.000165735
)
;
    }
    ceiling
    {
        type            nutkWallFunction;
        Cmu             0.09;
        kappa           0.41;
        E               9.8;
        value           nonuniform List<scalar> 
43
(
0.000209457
0.000221017
0.000229261
0.000243419
0.000233877
0.00022269
0.000213962
0.000204363
0.000193228
0.00017963
0.000163399
0.000145287
0.000126754
0.000109568
9.55021e-05
8.54541e-05
7.89393e-05
7.49536e-05
7.26735e-05
7.15704e-05
7.13155e-05
7.1772e-05
7.27775e-05
7.42159e-05
7.60849e-05
7.83946e-05
8.11646e-05
8.44286e-05
8.82484e-05
9.27387e-05
9.78646e-05
0.000103558
0.000109889
0.000116922
0.000124635
0.000133717
0.000136951
0.000133808
0.000125862
0.000117463
0.000344025
0.000403797
0.000236031
)
;
    }
    sWall
    {
        type            nutkWallFunction;
        Cmu             0.09;
        kappa           0.41;
        E               9.8;
        value           uniform 0.000209515;
    }
    nWall
    {
        type            nutkWallFunction;
        Cmu             0.09;
        kappa           0.41;
        E               9.8;
        value           nonuniform List<scalar> 6(9.52123e-05 9.91071e-05 0.000111218 0.000136712 0.000139129 0.000117468);
    }
    sideWalls
    {
        type            empty;
    }
    glass1
    {
        type            nutkWallFunction;
        Cmu             0.09;
        kappa           0.41;
        E               9.8;
        value           nonuniform List<scalar> 9(0.000124357 0.00016918 0.000205831 0.000240681 0.000275752 0.000312344 0.000345853 0.000352711 0.000344445);
    }
    glass2
    {
        type            nutkWallFunction;
        Cmu             0.09;
        kappa           0.41;
        E               9.8;
        value           nonuniform List<scalar> 2(0.000172958 0.000163397);
    }
    sun
    {
        type            nutkWallFunction;
        Cmu             0.09;
        kappa           0.41;
        E               9.8;
        value           nonuniform List<scalar> 
14
(
0.000124272
0.000134782
0.000136725
0.000142829
0.0001484
0.00015352
0.000158418
0.000163385
0.000167358
0.000169604
0.000169533
0.000166681
0.000160969
0.000153069
)
;
    }
    heatsource1
    {
        type            nutkWallFunction;
        Cmu             0.09;
        kappa           0.41;
        E               9.8;
        value           nonuniform List<scalar> 3(6.98542e-05 8.49665e-05 9.52121e-05);
    }
    heatsource2
    {
        type            nutkWallFunction;
        Cmu             0.09;
        kappa           0.41;
        E               9.8;
        value           nonuniform List<scalar> 4(0.000146349 9.52635e-05 9.52635e-05 0.000141868);
    }
    Table_master
    {
        type            nutkWallFunction;
        Cmu             0.09;
        kappa           0.41;
        E               9.8;
        value           nonuniform List<scalar> 9(8.7703e-05 7.79475e-05 6.99704e-05 6.34167e-05 5.79853e-05 5.3442e-05 4.96152e-05 4.63932e-05 4.37283e-05);
    }
    Table_slave
    {
        type            nutkWallFunction;
        Cmu             0.09;
        kappa           0.41;
        E               9.8;
        value           nonuniform List<scalar> 9(9.82575e-05 9.02352e-05 8.45588e-05 8.02806e-05 7.66166e-05 7.3094e-05 6.96767e-05 6.60199e-05 6.16604e-05);
    }
    inlet
    {
        type            calculated;
        value           uniform 0.000100623;
    }
    outlet
    {
        type            calculated;
        value           nonuniform List<scalar> 2(0.00178252 0.00188778);
    }
}


// ************************************************************************* //
