/*--------------------------------*- C++ -*----------------------------------*\
  =========                 |
  \\      /  F ield         | OpenFOAM: The Open Source CFD Toolbox
   \\    /   O peration     | Website:  https://openfoam.org
    \\  /    A nd           | Version:  6
     \\/     M anipulation  |
\*---------------------------------------------------------------------------*/
FoamFile
{
    version     2.0;
    format      ascii;
    class       surfaceScalarField;
    location    "600";
    object      phi;
}
// * * * * * * * * * * * * * * * * * * * * * * * * * * * * * * * * * * * * * //

dimensions      [1 0 -1 0 0 0 0];

internalField   nonuniform List<scalar> 
852
(
-0.0029029
0.00295962
-0.00388506
0.000982161
-0.00465613
0.000771081
-0.00528117
0.000625043
-0.00573254
0.000451377
-0.00599046
0.000257918
-0.00603266
4.22097e-05
-0.0058351
-0.000197559
-0.00538847
-0.000446625
-0.0047186
-0.000669868
-0.00388544
-0.000833152
-0.00296781
-0.000917633
-0.00203469
-0.000933115
-0.0010905
-0.000944178
-0.00108908
-0.000605145
0.000607921
-0.000207433
-0.000397706
0.000405396
-0.000612822
0.000843179
-0.000437776
0.00111568
-0.000272489
0.0012742
-0.000158522
0.0013557
-8.14852e-05
0.00139594
-4.02396e-05
0.00141791
-2.19594e-05
0.00143003
-1.21073e-05
0.00143523
-5.19441e-06
0.00143429
9.50115e-07
0.00142498
9.31236e-06
0.00139873
2.62595e-05
0.00133328
6.5462e-05
0.00119172
0.000141566
0.000961524
0.000230204
0.000687978
0.000273556
0.000691743
-0.00206912
0.00518129
-0.00303833
0.00195137
-0.00383311
0.00156587
-0.00444478
0.00123672
-0.00488355
0.000890148
-0.00514128
0.000515658
-0.00519471
9.56397e-05
-0.00501817
-0.000374096
-0.00460915
-0.000855644
-0.00400525
-0.00127375
-0.00327459
-0.00156381
-0.002497
-0.00169522
-0.00175111
-0.00167901
-0.00114655
-0.00154873
-0.000958652
-0.00127697
-0.000253918
-0.00070478
-0.000253964
0.000521474
9.42039e-05
0.000919988
-0.000796213
0.00113154
-0.000824372
0.00131609
-0.000622319
0.00144633
-0.00040272
0.0015133
-0.000225482
0.00151979
-8.7971e-05
0.00152185
-4.2291e-05
0.00152457
-2.46762e-05
0.00152688
-1.44097e-05
0.00152841
-6.71246e-06
0.00152891
4.62731e-07
0.00152738
1.08459e-05
0.00152021
3.3439e-05
0.00147861
0.000107074
0.00130349
0.000316694
0.00100094
0.000532756
0.00062165
0.00065286
0.00132295
-0.00145155
0.00686579
-0.00229531
0.00279513
-0.00299683
0.00226739
-0.00351427
0.00175417
-0.0038929
0.00126878
-0.00412413
0.000746895
-0.00417202
0.000143534
-0.0039934
-0.000552719
-0.00359271
-0.00125633
-0.00302695
-0.00183952
-0.00237183
-0.00221893
-0.00170216
-0.00236488
-0.00108295
-0.00229822
-0.000582337
-0.00204934
-0.000237675
-0.00162163
7.22689e-05
-0.00101472
-0.00018169
0.00143148
-0.0013293
0.00164393
-0.00100866
0.00163168
-0.000812119
0.00163868
-0.00062931
0.00165993
-0.000423967
0.00164765
-0.00021319
0.00155984
0.00151771
0.00149319
0.00147894
0.00147239
0.00147302
0.00148402
0.00151762
0.00162486
0.00134433
0.000597229
0.000999916
0.000877182
0.00055646
0.00109632
0.00189393
-0.00102034
0.00818717
-0.00170062
0.00347541
-0.0021594
0.00272618
-0.00249561
0.00209038
-0.0027503
0.00152348
-0.00290757
0.000904172
-0.00290767
0.000143637
-0.00268713
-0.000773252
-0.0022786
-0.00166485
-0.00176487
-0.00235325
-0.00121988
-0.00276391
-0.000700483
-0.00288428
-0.000239985
-0.00275872
0.000147447
-0.00243677
0.000486676
-0.00196085
0.0008703
-0.00139834
0.0015547
-0.000866082
0.00225337
-0.0006912
0.00181877
-0.000894696
0.00172134
-0.000911219
0.00165117
-0.000741941
0.00159508
-0.000573219
0.00158072
-0.000409596
0.00161341
-0.00024587
0.00172389
-0.000110634
0.0018077
-8.395e-05
0.00188125
-7.36939e-05
0.00194113
-6.00228e-05
0.0019718
-3.0814e-05
0.00195068
2.09677e-05
0.00185283
9.77071e-05
0.00164676
0.000205934
0.00127973
0.000366877
0.00114715
0.00072982
0.000852987
0.00117136
0.000395974
0.00155335
0.0023089
-0.000720922
0.00926668
-0.00125021
0.00400471
-0.00134272
0.00281869
-0.00141518
0.00216285
-0.00147981
0.00158811
-0.00150478
0.000929147
-0.0013757
1.45631e-05
-0.00105852
-0.00109043
-0.000653528
-0.00206984
-0.000241211
-0.00276557
0.00012819
-0.00313331
0.000431004
-0.0031871
0.000664556
-0.00299227
0.0008469
-0.00261911
0.00101707
-0.00213102
0.0012214
-0.00160267
0.00149175
-0.00113642
0.00167289
-0.000872332
0.00158894
-0.000810739
0.0014348
-0.000757074
0.0013197
-0.000626838
0.00123627
-0.000489779
0.00119349
-0.000366806
0.001203
-0.000255375
0.00127083
-0.000178457
0.00134048
-0.000153593
0.00141348
-0.000146684
0.00148459
-0.000131121
0.00154196
-8.81776e-05
0.00156494
-1.99875e-06
0.0015327
0.000129954
0.0014351
0.000303549
0.001274
0.000527981
0.00113179
0.000872042
0.000977029
0.00132613
0.000637611
0.00189278
0.00052847
0.00241805
-0.00100025
0.00152853
-0.00146014
0.000459694
-0.00141258
-0.000634349
0.010308
-0.00101214
0.0043825
-0.000604055
0.00241061
-0.000288773
0.00184757
-7.26576e-05
0.001372
0.000153906
0.000702589
0.000499422
-0.000330946
0.000890764
-0.00148177
0.00122286
-0.00240193
0.0014486
-0.00299131
0.00156231
-0.00324703
0.00158575
-0.00321054
0.00154481
-0.00295132
0.00146778
-0.00254208
0.00138998
-0.00205323
0.00134087
-0.00155355
0.00132208
-0.00111763
0.00127214
-0.000822387
0.00113554
-0.000674134
0.000957288
-0.000578816
0.00081178
-0.000481324
0.000713999
-0.00039199
0.000666661
-0.00031946
0.000673266
-0.000261971
0.000723624
-0.000228807
0.000793341
-0.000223301
0.000873688
-0.000227021
0.000960468
-0.000217892
0.0010476
-0.000175295
0.00112339
-7.77805e-05
0.00116944
8.39105e-05
0.00118199
0.000291013
0.00117104
0.000538935
0.00118622
0.000856873
0.00127578
0.00123658
0.00145171
0.00171685
0.00188359
0.00198618
0.00213413
0.001278
0.00174243
0.000851404
0.000387153
-0.000719673
0.0114782
-0.000630718
0.00429355
0.000450583
0.00132932
0.00112676
0.00117141
0.00159715
0.000901618
0.00212592
0.000173823
0.00267992
-0.000884938
0.00305618
-0.00185803
0.00321301
-0.00255876
0.00316786
-0.00294617
0.00296075
-0.00303992
0.00264427
-0.00289405
0.00227079
-0.00257784
0.00188474
-0.00215602
0.00152447
-0.00169296
0.00121472
-0.00124379
0.000959952
-0.000862858
0.000740155
-0.000602584
0.000526846
-0.000460818
0.000334758
-0.00038672
0.000190215
-0.000336772
9.97296e-05
-0.000301496
5.91793e-05
-0.0002789
6.38546e-05
-0.000266637
0.000102257
-0.000267199
0.00015917
-0.000280204
0.00022711
-0.00029495
0.000306573
-0.000297345
0.000402449
-0.00027116
0.000519567
-0.000194888
0.000644229
-4.07411e-05
0.000765538
0.000169715
0.000895223
0.000409261
0.00107441
0.000677692
0.00135248
0.00095853
0.0017915
0.00127784
0.00245442
0.00132327
0.0029893
0.000743136
0.00301903
0.000821679
0.0034688
0.00252747
0.00945426
0.00318501
0.00363601
0.0034784
0.00103594
0.00390678
0.000743028
0.00443594
0.000372472
0.00504728
-0.000437514
0.00543773
-0.00127539
0.00548965
-0.00190995
0.00522704
-0.00229617
0.00472202
-0.00244115
0.00405957
-0.00237747
0.00332268
-0.00215717
0.00258143
-0.0018366
0.00188191
-0.0014565
0.00126289
-0.00107393
0.000744687
-0.000725579
0.000334704
-0.000452869
2.72366e-05
-0.000295109
-0.000201883
-0.00023169
-0.000368288
-0.000220307
-0.000483041
-0.00022201
-0.000555867
-0.00022866
-0.000595649
-0.000239109
-0.000609218
-0.000253057
-0.000604995
-0.000271412
-0.000592105
-0.000293084
-0.000574671
-0.000312374
-0.000550585
-0.00032142
-0.000510765
-0.00031097
-0.00043558
-0.000270062
-0.000293508
-0.000182802
-0.000106266
-1.75172e-05
0.000108695
0.000194311
0.000379139
0.000407259
0.000719486
0.000618194
0.00117338
0.000823952
0.00167538
0.000821284
0.00188985
0.000528673
0.00112758
0.00158396
0.00484892
0.010006
0.0136337
0.0123549
0.00231469
0.0114453
0.00165272
0.01076
0.00105776
0.0100369
0.000285586
0.00908158
-0.000320123
0.00794261
-0.000770988
0.00670746
-0.00106104
0.00544464
-0.00117834
0.00421417
-0.00114701
0.003068
-0.001011
0.00204618
-0.00081478
0.00115219
-0.000562499
0.000408414
-0.000330147
-0.000163271
-0.000153885
-0.000550851
-6.52808e-05
-0.000792672
-5.3279e-05
-0.000953395
-7.09578e-05
-0.00107299
-0.000100703
-0.00116518
-0.000129808
-0.0012384
-0.000155433
-0.00129902
-0.000178478
-0.0013523
-0.000199761
-0.00140462
-0.000219078
-0.00146332
-0.000234377
-0.00153504
-0.000240647
-0.00162637
-0.000230078
-0.00174557
-0.000191761
-0.00190337
-0.000112243
-0.00210643
2.02665e-05
-0.00233871
0.000214776
-0.00262797
0.000483577
-0.00306376
0.000843058
-0.00373802
0.00129246
-0.00471755
0.00180349
-0.00611863
0.00222237
-0.00782077
0.00223082
-0.00735144
0.00111465
-0.00222288
0.00474849
0.0036926
0.00414726
0.00225387
0.00481591
0.000389011
0.0049523
0.000149106
0.00461819
1.39266e-05
0.00404059
-0.000193426
0.003312
-0.000332464
0.00249683
-0.000363166
0.00165668
-0.000306855
0.000839287
-0.000193605
6.99841e-05
-4.54679e-05
-0.000580256
8.77536e-05
-0.00103941
0.000129019
-0.00132122
0.000127935
-0.00148367
9.71773e-05
-0.00158916
5.22158e-05
-0.00167141
1.13025e-05
-0.00174842
-2.36793e-05
-0.00182527
-5.29497e-05
-0.00190458
-7.61119e-05
-0.00198822
-9.48294e-05
-0.00207749
-0.000110471
-0.00217448
-0.000122079
-0.0022812
-0.000127647
-0.00239844
-0.000123395
-0.00252488
-0.00010363
-0.00265595
-6.0676e-05
-0.00278355
1.53618e-05
-0.0028955
0.000132226
-0.0029878
0.000307089
-0.00307029
0.000566081
-0.00315031
0.000923081
-0.00322552
0.00136769
-0.00325218
0.00183016
-0.00317906
0.00214926
-0.00283433
0.0018861
-0.00156646
-0.000153209
-0.00371595
-0.000567862
0.00432055
0.000462609
0.00122334
0.000386522
0.000465071
0.000289802
0.000245822
0.000171801
0.000131941
-7.32822e-05
5.16859e-05
-0.000443242
3.75139e-05
-0.000871189
6.47961e-05
-0.00128658
0.000108546
-0.00163272
0.000152547
-0.00186496
0.000186789
-0.00198013
0.000202928
-0.00203919
0.000188096
-0.00206799
0.000156746
-0.00208984
0.000119033
-0.00211963
8.2018e-05
-0.00215896
5.06439e-05
-0.00220951
2.68791e-05
-0.00227064
8.19641e-06
-0.00233998
-6.7641e-06
-0.00241611
-1.86898e-05
-0.00249804
-2.85313e-05
-0.0025839
-3.61998e-05
-0.00267076
-4.07852e-05
-0.00275375
-4.03874e-05
-0.00282541
-3.1958e-05
-0.00287459
-1.14913e-05
-0.00288812
2.89029e-05
-0.00285678
0.000100893
-0.00275945
0.000209777
-0.00256424
0.000370877
-0.00224434
0.000603194
-0.00178205
0.000905408
-0.0011522
0.00120032
-0.000181669
0.00117874
0.00114051
0.000563936
0.00158913
-0.000601824
-0.00204637
-0.00729453
-0.0101441
-0.00578074
-0.00453588
-0.00405738
-0.00380243
-0.0036644
-0.00360898
-0.00356955
-0.00350429
-0.00339655
-0.00324593
-0.00306215
-0.00286325
-0.0026801
-0.00252905
-0.00241627
-0.00234089
-0.00229715
-0.00227736
-0.00227637
-0.0022904
-0.00231638
-0.00235219
-0.00239562
-0.00244357
-0.00249102
-0.00252991
-0.00254817
-0.00252586
-0.00243134
-0.00222774
-0.00186281
-0.00126537
-0.000365532
0.000829363
0.00200263
0.00256089
0.00195307
)
;

boundaryField
{
    floor
    {
        type            calculated;
        value           nonuniform List<scalar> 
29
(
0
0
0
0
0
0
0
0
0
0
0
0
0
0
0
0
0
0
0
0
-3.75607e-06
-9.55206e-06
-1.45026e-05
-1.89911e-05
-1.41747e-06
-2.76859e-06
-7.75023e-06
-7.97465e-06
-7.46677e-06
)
;
    }
    ceiling
    {
        type            calculated;
        value           nonuniform List<scalar> 
43
(
-4.54676e-05
-4.41551e-05
-4.284e-05
-2.15053e-05
-1.34022e-05
-9.10663e-06
-6.06562e-06
-3.72678e-06
-1.9053e-06
-4.44757e-07
8.08531e-07
1.94545e-06
3.01852e-06
4.03835e-06
4.95869e-06
5.70747e-06
6.26143e-06
6.64982e-06
6.91656e-06
7.0968e-06
7.21411e-06
7.27799e-06
7.30001e-06
7.28906e-06
7.24654e-06
7.17357e-06
7.07144e-06
6.94132e-06
6.78374e-06
6.59716e-06
6.39124e-06
6.1789e-06
5.96606e-06
5.76093e-06
5.57907e-06
5.43819e-06
5.48517e-06
5.68435e-06
6.00839e-06
7.14982e-06
1.14144e-05
8.27579e-06
-6.0127e-05
)
;
    }
    sWall
    {
        type            calculated;
        value           uniform -0.000274458;
    }
    nWall
    {
        type            calculated;
        value           nonuniform List<scalar> 6(-4.77534e-05 -5.72945e-05 -6.26004e-05 -7.33783e-05 -8.04438e-05 -0.000100439);
    }
    sideWalls
    {
        type            empty;
        value           nonuniform 0();
    }
    glass1
    {
        type            calculated;
        value           nonuniform List<scalar> 9(-5.67157e-05 -0.000152547 -0.000232941 -0.000301035 -0.000358591 -0.000406998 -0.000450467 -0.000503551 -0.000563111);
    }
    glass2
    {
        type            calculated;
        value           nonuniform List<scalar> 2(-0.000252534 -0.000279636);
    }
    sun
    {
        type            calculated;
        value           uniform 0;
    }
    heatsource1
    {
        type            calculated;
        value           nonuniform List<scalar> 3(2.04008e-07 2.03963e-07 2.03978e-07);
    }
    heatsource2
    {
        type            calculated;
        value           nonuniform List<scalar> 4(5.10502e-08 5.11897e-08 0 0);
    }
    Table_master
    {
        type            calculated;
        value           nonuniform List<scalar> 9(-1.53006e-07 -1.53071e-07 -1.53095e-07 -1.53112e-07 -1.53124e-07 -1.53132e-07 -1.53134e-07 -1.53128e-07 -1.53096e-07);
    }
    Table_slave
    {
        type            calculated;
        value           nonuniform List<scalar> 9(1.52893e-07 1.52908e-07 1.52888e-07 1.5287e-07 1.52863e-07 1.52868e-07 1.52882e-07 1.52924e-07 1.53004e-07);
    }
    inlet
    {
        type            calculated;
        value           uniform -0.00612643;
    }
    outlet
    {
        type            calculated;
        value           nonuniform List<scalar> 2(0.00761446 0.00289376);
    }
}


// ************************************************************************* //
