/*--------------------------------*- C++ -*----------------------------------*\
  =========                 |
  \\      /  F ield         | OpenFOAM: The Open Source CFD Toolbox
   \\    /   O peration     | Website:  https://openfoam.org
    \\  /    A nd           | Version:  6
     \\/     M anipulation  |
\*---------------------------------------------------------------------------*/
FoamFile
{
    version     2.0;
    format      ascii;
    class       volScalarField;
    location    "500";
    object      nut;
}
// * * * * * * * * * * * * * * * * * * * * * * * * * * * * * * * * * * * * * //

dimensions      [0 2 -1 0 0 0 0];

internalField   nonuniform List<scalar> 
459
(
0.00101981
0.00110728
0.00112213
0.00117347
0.0012205
0.00126378
0.00130519
0.00134714
0.00138152
0.00140144
0.00140163
0.00137792
0.00132956
0.00126285
0.00119013
0.000442684
0.000545276
0.000599823
0.000584713
0.000559371
0.000530665
0.00049907
0.000468875
0.000441529
0.000417095
0.000395285
0.000375836
0.000358434
0.000342621
0.000327882
0.00031349
0.000298335
0.000289659
0.000266231
0.00140961
0.00327614
0.00307688
0.00357126
0.00403784
0.00451347
0.00495707
0.00530235
0.0055987
0.00585129
0.00602001
0.00605097
0.00585917
0.0052661
0.00375907
0.00120561
0.00078704
0.000494332
0.000950318
0.00125942
0.00146549
0.00156178
0.00155159
0.00130902
0.00115584
0.00104142
0.000950989
0.000877306
0.000814735
0.00075837
0.000705713
0.000655412
0.000611865
0.000571696
0.000683881
0.000360729
0.00173832
0.00448529
0.00375206
0.00481183
0.00529986
0.00565431
0.00592449
0.0061338
0.00634559
0.00657666
0.00680122
0.00697727
0.00704049
0.00692638
0.00649039
0.00525518
0.00116581
0.00100778
0.00135555
0.00164335
0.00187981
0.0020291
0.0019667
0.000705268
0.000629399
0.00056813
0.000518352
0.000477508
0.000443646
0.000415348
0.000391688
0.000372247
0.000400414
0.00045965
0.000765413
0.000422341
0.0020577
0.00584061
0.00371709
0.00511156
0.00559685
0.00574415
0.00579979
0.00586575
0.00600006
0.00621194
0.00647581
0.00675575
0.00697282
0.00708608
0.00703467
0.0066141
0.00513109
0.00135384
0.00169112
0.00212255
0.00247568
0.00272186
0.00286216
0.00268474
0.00078885
0.000726894
0.000684131
0.000652482
0.000625443
0.00059877
0.000572932
0.000545233
0.000512143
0.00048225
0.000488497
0.000880154
0.000469356
0.00238423
0.00760313
0.00411059
0.00485206
0.00556513
0.00563589
0.00554698
0.00549583
0.00560372
0.00581249
0.00609845
0.00643507
0.00670739
0.00685885
0.00684516
0.00662421
0.00606703
0.00494948
0.00449825
0.00427881
0.00414895
0.00407046
0.00401888
0.00390613
0.00339424
0.00317025
0.00304938
0.00295221
0.00283707
0.00266189
0.00238695
0.00203698
0.00163874
0.00122704
0.000904344
0.000893792
0.000624427
0.0005867
0.000708195
0.000792885
0.00272936
0.00951763
0.00581722
0.00467146
0.00521049
0.00549598
0.00544538
0.00534679
0.00545227
0.00564492
0.00593083
0.00626881
0.00656661
0.00672409
0.00667942
0.00643461
0.00604931
0.0056137
0.00531619
0.0051032
0.00492719
0.00478701
0.00467094
0.00454508
0.00435617
0.00419177
0.00404214
0.00389022
0.00372618
0.00354157
0.00328495
0.00293239
0.00248295
0.00196092
0.00147903
0.00108616
0.000843052
0.000730276
0.00105304
0.000825947
0.00305087
0.0109068
0.00846061
0.00610176
0.00554191
0.00559887
0.00561035
0.00553357
0.00552963
0.00566877
0.00595475
0.00631522
0.00662877
0.00677216
0.00667447
0.00635831
0.0059502
0.00562323
0.00545015
0.00531855
0.00514796
0.00493684
0.00470411
0.00447887
0.0042789
0.00411289
0.00396212
0.00381517
0.00367074
0.00353364
0.00340429
0.00318348
0.00283057
0.00237824
0.0019313
0.0015142
0.00122431
0.00113982
0.00117651
0.000929096
0.00311793
0.00992465
0.00868142
0.00781949
0.00713327
0.00664341
0.00611174
0.00572914
0.00562334
0.00579534
0.00615912
0.00657415
0.0068838
0.00695664
0.00673901
0.00629509
0.00581495
0.00551541
0.00539416
0.00516285
0.00481743
0.00444391
0.00411679
0.00386963
0.00369309
0.00355951
0.00344633
0.00334711
0.0032661
0.00321282
0.00319809
0.00320151
0.00300675
0.00269886
0.00242133
0.00228082
0.00238305
0.00278648
0.00348299
0.00146737
0.00303937
0.00362127
0.00406135
0.00424509
0.00434413
0.00439128
0.00453739
0.00487346
0.00539995
0.00604011
0.00666119
0.00712085
0.00730255
0.00713039
0.00662798
0.00597574
0.00549766
0.00516952
0.00483298
0.00438414
0.0039138
0.0035279
0.00325626
0.00307525
0.00294889
0.00284922
0.00276051
0.00267587
0.0025916
0.00250411
0.0024097
0.0023087
0.00222362
0.00216099
0.00214325
0.00216415
0.00216419
0.00208664
0.0019545
0.00137867
0.00167621
0.00325501
0.00439835
0.00526298
0.00606903
0.00679915
0.00741582
0.00784258
0.00800745
0.00787828
0.00745344
0.00673116
0.00582666
0.00505898
0.00455946
0.00411417
0.00362331
0.00315539
0.00280189
0.00256716
0.00241634
0.00231521
0.00224161
0.0021836
0.00213588
0.00209682
0.00206677
0.00204754
0.00204259
0.00205889
0.00208307
0.00211446
0.00214764
0.00215911
0.00210908
0.00198265
0.00179238
0.00113973
0.00204878
0.00456391
0.00626976
0.00696908
0.00756018
0.00796927
0.00808924
0.00792313
0.00741819
0.00665335
0.00575174
0.00487787
0.00415479
0.00358741
0.00310018
0.00266863
0.00234412
0.00213142
0.00198764
0.00188743
0.00182248
0.00178177
0.00175959
0.00175332
0.00176179
0.00178414
0.00181896
0.00186331
0.00192022
0.00199171
0.00207586
0.00216714
0.00225154
0.00231093
0.00230108
0.00233213
0.0023318
0.0011593
0.00179179
0.00189658
0.00197219
0.0020924
0.00199099
0.0018754
0.00177793
0.00167878
0.00157786
0.00146353
0.00132319
0.00116428
0.00100111
0.000851047
0.000731194
0.000647575
0.000596026
0.000567574
0.000554593
0.000551978
0.000556475
0.000566403
0.000579724
0.000596159
0.000615649
0.000638257
0.000664153
0.000693659
0.000727354
0.000766293
0.000810719
0.00085994
0.000914645
0.000975524
0.0010426
0.00112298
0.00115063
0.00112313
0.00105347
0.000979809
)
;

boundaryField
{
    floor
    {
        type            nutkWallFunction;
        Cmu             0.09;
        kappa           0.41;
        E               9.8;
        value           nonuniform List<scalar> 
29
(
0.00014287
5.23275e-05
6.54646e-05
7.23219e-05
7.04302e-05
6.72442e-05
6.36137e-05
5.95897e-05
5.57145e-05
5.21778e-05
4.89943e-05
4.61328e-05
4.3564e-05
4.12511e-05
3.91368e-05
3.71547e-05
3.52081e-05
3.31454e-05
3.19585e-05
2.87289e-05
2.87288e-05
4.15569e-05
4.96799e-05
5.57765e-05
0.00014287
5.23274e-05
5.89835e-05
0.00012164
0.000161616
)
;
    }
    ceiling
    {
        type            nutkWallFunction;
        Cmu             0.09;
        kappa           0.41;
        E               9.8;
        value           nonuniform List<scalar> 
43
(
0.000210478
0.00022198
0.000230239
0.000243388
0.000232403
0.000219781
0.000209069
0.000198101
0.000186862
0.000174031
0.000158125
0.000139882
0.000120853
0.000103035
8.85403e-05
7.82616e-05
7.18463e-05
6.82769e-05
6.66414e-05
6.63115e-05
6.68793e-05
6.81303e-05
6.98048e-05
7.18641e-05
7.42974e-05
7.71082e-05
8.03131e-05
8.39465e-05
8.80733e-05
9.28143e-05
9.81887e-05
0.000104103
0.00011063
0.000117841
0.000125727
0.000135101
0.000138308
0.000135118
0.000126999
0.000118347
0.000344242
0.000404396
0.000238461
)
;
    }
    sWall
    {
        type            nutkWallFunction;
        Cmu             0.09;
        kappa           0.41;
        E               9.8;
        value           uniform 0.000210536;
    }
    nWall
    {
        type            nutkWallFunction;
        Cmu             0.09;
        kappa           0.41;
        E               9.8;
        value           nonuniform List<scalar> 6(9.60362e-05 0.000100024 0.00011235 0.000137054 0.00013932 0.000118353);
    }
    sideWalls
    {
        type            empty;
    }
    glass1
    {
        type            nutkWallFunction;
        Cmu             0.09;
        kappa           0.41;
        E               9.8;
        value           nonuniform List<scalar> 9(0.000123138 0.00016815 0.000205006 0.000240086 0.000275349 0.000312069 0.00034584 0.000352846 0.000344664);
    }
    glass2
    {
        type            nutkWallFunction;
        Cmu             0.09;
        kappa           0.41;
        E               9.8;
        value           nonuniform List<scalar> 2(0.000174543 0.000164505);
    }
    sun
    {
        type            nutkWallFunction;
        Cmu             0.09;
        kappa           0.41;
        E               9.8;
        value           nonuniform List<scalar> 
14
(
0.000123057
0.000133275
0.000135
0.000140948
0.00014637
0.000151339
0.000156076
0.000160856
0.000164763
0.00016702
0.000167041
0.000164353
0.000158854
0.000151231
)
;
    }
    heatsource1
    {
        type            nutkWallFunction;
        Cmu             0.09;
        kappa           0.41;
        E               9.8;
        value           nonuniform List<scalar> 3(7.06823e-05 8.57306e-05 9.60358e-05);
    }
    heatsource2
    {
        type            nutkWallFunction;
        Cmu             0.09;
        kappa           0.41;
        E               9.8;
        value           nonuniform List<scalar> 4(0.000144651 9.53286e-05 9.53286e-05 0.000140058);
    }
    Table_master
    {
        type            nutkWallFunction;
        Cmu             0.09;
        kappa           0.41;
        E               9.8;
        value           nonuniform List<scalar> 9(8.53715e-05 7.601e-05 6.83507e-05 6.20537e-05 5.68311e-05 5.24591e-05 4.87734e-05 4.56675e-05 4.30974e-05);
    }
    Table_slave
    {
        type            nutkWallFunction;
        Cmu             0.09;
        kappa           0.41;
        E               9.8;
        value           nonuniform List<scalar> 9(9.55469e-05 8.80173e-05 8.2776e-05 7.88718e-05 7.55182e-05 7.21928e-05 6.89543e-05 6.54627e-05 6.12628e-05);
    }
    inlet
    {
        type            calculated;
        value           uniform 0.000100623;
    }
    outlet
    {
        type            calculated;
        value           nonuniform List<scalar> 2(0.00179179 0.00189658);
    }
}


// ************************************************************************* //
