// -*- C++ -*-
// File generated by PyFoam - sorry for the ugliness

FoamFile
{
 version 2.0;
 format ascii;
 class volVectorField;
 location "670";
 object U;
}

dimensions [ 0 1 -1 0 0 0 0 ];

internalField nonuniform List<vector> 459
(
  (-0.0305736 0.0131051 0)
  (-0.0331852 0.012394 0)
  (-0.0534628 0.00284687 0)
  (-0.0588145 -0.00610287 0)
  (-0.0504067 -0.0154167 0)
  (-0.0308921 -0.0261765 0)
  (0.00467272 -0.0313154 0)
  (0.0350805 -0.0252399 0)
  (0.0590321 -0.0185201 0)
  (0.0763946 -0.0123124 0)
  (0.0859176 -0.00685459 0)
  (0.0875271 -0.00184709 0)
  (0.0810863 0.0038919 0)
  (0.0632312 0.0133511 0)
  (0.0719202 0.035867 0)
  (-0.0981914 -0.0019046 0)
  (0.0285774 0.00668407 0)
  (-0.000111217 -0.00739884 0)
  (0.0141547 -0.0130684 0)
  (0.0259141 -0.0103087 0)
  (0.0354172 -0.00691451 0)
  (0.0414928 -0.00424699 0)
  (0.0448124 -0.0028677 0)
  (0.0465651 -0.00229785 0)
  (0.0476931 -0.00202824 0)
  (0.0485488 -0.00183861 0)
  (0.0491243 -0.00164861 0)
  (0.0492599 -0.0013618 0)
  (0.0486064 -0.000766508 0)
  (0.0464975 0.000522449 0)
  (0.0416971 0.00315654 0)
  (0.0362577 0.00693579 0)
  (-0.0224675 0.0163538 0)
  (0.114407 -0.00692794 0)
  (-0.0458002 0.0256841 0)
  (-0.0195199 0.0330759 0)
  (-0.0406882 0.01958 0)
  (-0.0455122 0.00230498 0)
  (-0.0380099 -0.0194936 0)
  (-0.0206659 -0.0415334 0)
  (0.00599563 -0.0497687 0)
  (0.0298349 -0.0417373 0)
  (0.050046 -0.029986 0)
  (0.0647672 -0.0179548 0)
  (0.0731521 -0.00666916 0)
  (0.0757218 0.00383961 0)
  (0.0734289 0.0141598 0)
  (0.0667678 0.0258687 0)
  (0.0701908 0.044198 0)
  (0.0628358 0.0412132 0)
  (0.0394741 0.0380114 0)
  (-0.134518 0.00126108 0)
  (0.0356906 0.000428329 0)
  (0.0207677 -0.0157928 0)
  (0.0287474 -0.0194995 0)
  (0.0374668 -0.0152359 0)
  (0.0433491 -0.00931695 0)
  (0.0457127 -0.0041258 0)
  (0.0462346 -0.00123696 0)
  (0.0463252 2.7805e-06 0)
  (0.0465347 0.000618543 0)
  (0.0468112 0.00108333 0)
  (0.0470422 0.00160486 0)
  (0.0471895 0.00242698 0)
  (0.0471132 0.00382787 0)
  (0.0463701 0.00658427 0)
  (0.0428049 0.0130408 0)
  (0.039216 0.0193013 0)
  (-0.0164838 0.0278449 0)
  (0.155853 0.0142835 0)
  (-0.0642586 0.0357513 0)
  (-0.00478676 0.0491636 0)
  (-0.0302859 0.0286767 0)
  (-0.0343202 0.00144963 0)
  (-0.0262863 -0.0317274 0)
  (-0.010802 -0.0623081 0)
  (0.0088724 -0.0720086 0)
  (0.0268202 -0.0624104 0)
  (0.0429361 -0.0462528 0)
  (0.054658 -0.0288487 0)
  (0.0614043 -0.0125407 0)
  (0.0639794 0.00225266 0)
  (0.0633198 0.0159593 0)
  (0.0601616 0.0290083 0)
  (0.0589401 0.0430948 0)
  (0.0515128 0.046278 0)
  (0.0385352 0.061116 0)
  (-0.166327 0.0110074 0)
  (0.0571163 -0.030549 0)
  (0.0420733 -0.0323618 0)
  (0.0447119 -0.0282369 0)
  (0.049215 -0.0209747 0)
  (0.0516623 -0.0137284 0)
  (0.0498525 -0.011593 0)
  (0.0458455 -0.00878557 0)
  (0.04284 -0.00732751 0)
  (0.0411775 -0.00654754 0)
  (0.0401623 -0.00606972 0)
  (0.0394564 -0.00570707 0)
  (0.03919 -0.00522066 0)
  (0.0400897 -0.00406351 0)
  (0.0436027 -0.000489147 0)
  (0.0430664 0.0153301 0)
  (0.0413657 0.0263066 0)
  (-0.0139913 0.0361537 0)
  (0.180349 0.0339738 0)
  (-0.0867044 0.0413156 0)
  (0.0116076 0.0619129 0)
  (-0.0214033 0.0366282 0)
  (-0.0239187 0.00130798 0)
  (-0.012388 -0.0434242 0)
  (0.00104609 -0.0791176 0)
  (0.0137996 -0.0888165 0)
  (0.0264486 -0.0784012 0)
  (0.0377842 -0.0585018 0)
  (0.0456818 -0.0364175 0)
  (0.0498754 -0.0160182 0)
  (0.0513185 0.00169429 0)
  (0.0510629 0.0169115 0)
  (0.050298 0.0301063 0)
  (0.0518351 0.0429729 0)
  (0.0556579 0.0524267 0)
  (0.0616131 0.0667016 0)
  (0.0783901 -0.0417959 0)
  (0.071343 -0.0282543 0)
  (0.0726703 -0.0362579 0)
  (0.0629438 -0.0349155 0)
  (0.0577446 -0.0288638 0)
  (0.0558713 -0.0211848 0)
  (0.0549685 -0.0124066 0)
  (0.0561439 -0.00750602 0)
  (0.0581063 -0.00516106 0)
  (0.057881 -0.00361228 0)
  (0.0555877 -0.00253397 0)
  (0.0520382 -0.00171079 0)
  (0.0476272 -0.00101795 0)
  (0.0423264 -0.000334469 0)
  (0.0357281 0.000557637 0)
  (0.024075 0.00224858 0)
  (0.0235647 0.0210372 0)
  (0.0329565 0.0309601 0)
  (-0.0146688 0.0387165 0)
  (0.196058 0.0613888 0)
  (-0.112236 0.0422551 0)
  (0.0286096 0.0707168 0)
  (-0.0139658 0.043246 0)
  (-0.0116017 0.00187226 0)
  (0.00557499 -0.0562811 0)
  (0.0150683 -0.0901781 0)
  (0.0220258 -0.0996397 0)
  (0.0285813 -0.0884782 0)
  (0.0340178 -0.0656456 0)
  (0.0369733 -0.0400565 0)
  (0.0376037 -0.0170752 0)
  (0.0369896 0.00187294 0)
  (0.0367611 0.016954 0)
  (0.0381638 0.0289051 0)
  (0.0429098 0.0392404 0)
  (0.0515627 0.0464634 0)
  (0.0642963 0.0492541 0)
  (0.0772137 0.0136773 0)
  (0.0777196 -0.00281631 0)
  (0.0703726 -0.01907 0)
  (0.0616599 -0.0245138 0)
  (0.054554 -0.0223822 0)
  (0.0492987 -0.0168742 0)
  (0.0453976 -0.00999692 0)
  (0.0428448 -0.00310166 0)
  (0.0405117 0.00146964 0)
  (0.0374795 0.00411145 0)
  (0.0337444 0.00573506 0)
  (0.0296674 0.00693482 0)
  (0.0253968 0.00803436 0)
  (0.0209467 0.00926328 0)
  (0.0164909 0.0108759 0)
  (0.0108767 0.0129308 0)
  (0.0108019 0.0203873 0)
  (0.0261364 0.0262999 0)
  (0.000723829 0.0273641 0)
  (0.100575 0.0583307 0)
  (0.0750601 0.0539341 0)
  (-0.0707244 0.0484694 0)
  (0.253677 -0.0084038 0)
  (-0.133 0.0408099 0)
  (0.0416073 0.0749913 0)
  (-0.00686358 0.0460316 0)
  (0.00823107 -0.0123779 0)
  (0.0260556 -0.0661583 0)
  (0.0326658 -0.0967855 0)
  (0.0336856 -0.104581 0)
  (0.0327296 -0.091874 0)
  (0.0308223 -0.0666446 0)
  (0.0276059 -0.038738 0)
  (0.0237564 -0.0147614 0)
  (0.0204567 0.00350422 0)
  (0.0202544 0.0162819 0)
  (0.0232297 0.0252166 0)
  (0.0296552 0.0316427 0)
  (0.0394714 0.0342445 0)
  (0.052939 0.0300865 0)
  (0.0618112 0.00961244 0)
  (0.0618287 -0.00740681 0)
  (0.0562416 -0.0168815 0)
  (0.0485325 -0.0191185 0)
  (0.0405651 -0.0164286 0)
  (0.0334397 -0.0113383 0)
  (0.0275215 -0.00529732 0)
  (0.0225057 0.000696889 0)
  (0.0186425 0.00477486 0)
  (0.0152602 0.00715074 0)
  (0.0118817 0.00870446 0)
  (0.00846681 0.0099927 0)
  (0.00505303 0.0112821 0)
  (0.00183142 0.0126788 0)
  (-0.000683934 0.014123 0)
  (-0.00260095 0.0146504 0)
  (-0.000776117 0.0145965 0)
  (0.0115886 0.0144015 0)
  (-0.00452545 0.00409273 0)
  (0.0336249 0.0335402 0)
  (0.0347083 0.0483879 0)
  (-0.0915192 0.0521797 0)
  (0.242136 -0.0208037 0)
  (-0.147219 0.0444429 0)
  (0.0497747 0.0746729 0)
  (0.00452346 0.0385363 0)
  (0.0342446 -0.0321585 0)
  (0.0528349 -0.0772021 0)
  (0.0552792 -0.0993477 0)
  (0.0483216 -0.102184 0)
  (0.0376023 -0.0868554 0)
  (0.0265558 -0.0599528 0)
  (0.0160812 -0.031433 0)
  (0.00749308 -0.00876233 0)
  (0.00231954 0.00618451 0)
  (0.00288268 0.0146243 0)
  (0.00699081 0.0197915 0)
  (0.0139702 0.0227827 0)
  (0.0232677 0.0224971 0)
  (0.0339463 0.0171827 0)
  (0.0396363 0.00485121 0)
  (0.0391164 -0.00513197 0)
  (0.0339636 -0.0102984 0)
  (0.0263826 -0.0110719 0)
  (0.0182508 -0.00857085 0)
  (0.0107956 -0.00427525 0)
  (0.00412606 0.000762792 0)
  (-0.000590646 0.00523213 0)
  (-0.00357427 0.00815253 0)
  (-0.00602453 0.0100356 0)
  (-0.00833069 0.0114754 0)
  (-0.0105272 0.0127072 0)
  (-0.0124413 0.0137315 0)
  (-0.0136897 0.0143495 0)
  (-0.0137913 0.0141306 0)
  (-0.012756 0.012279 0)
  (-0.00999955 0.00901151 0)
  (-0.00522881 0.00669437 0)
  (-0.0128444 0.00441376 0)
  (0.00340361 0.0284162 0)
  (0.0147266 0.0600169 0)
  (-0.117787 0.0618284 0)
  (0.285372 -0.0273919 0)
  (-0.167353 -0.0643008 0)
  (0.0532553 0.0321527 0)
  (0.0333762 -0.0166054 0)
  (0.077331 -0.0619083 0)
  (0.0910283 -0.0833625 0)
  (0.0837442 -0.0920296 0)
  (0.0640007 -0.0882709 0)
  (0.0398827 -0.0704845 0)
  (0.0176883 -0.0435637 0)
  (-0.000370917 -0.0169614 0)
  (-0.0118344 0.000238607 0)
  (-0.0156088 0.00800938 0)
  (-0.0144457 0.0117442 0)
  (-0.0104536 0.013915 0)
  (-0.00449385 0.0149077 0)
  (0.00293101 0.0139138 0)
  (0.00965765 0.0102403 0)
  (0.0121463 0.00379772 0)
  (0.0104047 -0.00129592 0)
  (0.00559333 -0.00365819 0)
  (-0.00150459 -0.00310457 0)
  (-0.00881128 -0.000534126 0)
  (-0.0149263 0.0026893 0)
  (-0.0189578 0.00569752 0)
  (-0.0214427 0.00826936 0)
  (-0.0229635 0.0102843 0)
  (-0.0240408 0.0118919 0)
  (-0.0248336 0.0131771 0)
  (-0.0252745 0.0140932 0)
  (-0.0251502 0.0144793 0)
  (-0.0241723 0.0140755 0)
  (-0.0221477 0.0125804 0)
  (-0.0192646 0.00984132 0)
  (-0.0158071 0.00670296 0)
  (-0.0123632 0.00517343 0)
  (-0.0114834 0.00691591 0)
  (-0.00126494 0.0238469 0)
  (0.0253319 0.0598719 0)
  (-0.103271 0.0526996 0)
  (0.478435 0.00346603 0)
  (-0.168573 0.328556 0)
  (0.0631538 0.223707 0)
  (0.13447 0.00593825 0)
  (0.150963 -0.0452771 0)
  (0.142577 -0.0597147 0)
  (0.113068 -0.061975 0)
  (0.0721077 -0.0556827 0)
  (0.0303224 -0.0392167 0)
  (-0.0032475 -0.0154805 0)
  (-0.024132 0.00219637 0)
  (-0.0325803 0.00867159 0)
  (-0.034467 0.0104968 0)
  (-0.033228 0.0111329 0)
  (-0.0302794 0.0115115 0)
  (-0.0264102 0.0115785 0)
  (-0.022332 0.0110047 0)
  (-0.0192752 0.00950311 0)
  (-0.0188864 0.00707238 0)
  (-0.0211704 0.00518761 0)
  (-0.0250182 0.00462314 0)
  (-0.0293345 0.00533433 0)
  (-0.0329496 0.00667543 0)
  (-0.035523 0.00824103 0)
  (-0.0369816 0.0098643 0)
  (-0.0375171 0.0114718 0)
  (-0.0373701 0.0129356 0)
  (-0.0367452 0.0141822 0)
  (-0.0357117 0.0151009 0)
  (-0.0342457 0.0155331 0)
  (-0.0322793 0.0152842 0)
  (-0.0297569 0.0141578 0)
  (-0.026724 0.0120425 0)
  (-0.023409 0.00910054 0)
  (-0.0200651 0.00608704 0)
  (-0.0167458 0.00419745 0)
  (-0.0127486 0.00530786 0)
  (-0.00305943 0.0154587 0)
  (0.0236656 0.0423908 0)
  (-0.0783263 0.0311168 0)
  (0.469393 0.0286424 0)
  (0.228098 -0.103809 0)
  (0.203234 -0.0778299 0)
  (0.160265 -0.0485532 0)
  (0.0985335 -0.022498 0)
  (0.0335262 -0.00282892 0)
  (-0.0221343 0.0118873 0)
  (-0.0433589 0.0171404 0)
  (-0.0520901 0.018015 0)
  (-0.0544363 0.0171942 0)
  (-0.0540401 0.015923 0)
  (-0.0525881 0.0149355 0)
  (-0.0506469 0.0143387 0)
  (-0.0485138 0.013981 0)
  (-0.0465171 0.0136634 0)
  (-0.0451385 0.0131942 0)
  (-0.0449001 0.0124893 0)
  (-0.0457238 0.0119336 0)
  (-0.0470457 0.0118429 0)
  (-0.0482582 0.0122386 0)
  (-0.0489368 0.0128838 0)
  (-0.0489564 0.0135895 0)
  (-0.0483217 0.0142711 0)
  (-0.0470898 0.014886 0)
  (-0.0453345 0.0153414 0)
  (-0.0431357 0.0155368 0)
  (-0.0405627 0.0153568 0)
  (-0.0376904 0.0146752 0)
  (-0.034622 0.0133664 0)
  (-0.0315117 0.0113364 0)
  (-0.0285901 0.00858693 0)
  (-0.026169 0.00531222 0)
  (-0.0245657 0.0019315 0)
  (-0.0238354 -0.00106538 0)
  (-0.0225923 -0.000488528 0)
  (-0.0176437 0.00756588 0)
  (-0.0111228 0.0232677 0)
  (-0.0957712 0.0168769 0)
  (0.278477 0.0475804 0)
  (-0.153095 -0.045797 0)
  (-0.0497199 -0.0432285 0)
  (-0.072156 -0.0356907 0)
  (-0.0775455 -0.0328903 0)
  (-0.0789789 -0.0352417 0)
  (-0.0790859 -0.0428735 0)
  (-0.0764805 -0.0540475 0)
  (-0.074429 -0.0623028 0)
  (-0.072579 -0.067456 0)
  (-0.0708006 -0.0704252 0)
  (-0.0691019 -0.0717487 0)
  (-0.0673963 -0.0719351 0)
  (-0.0656078 -0.0714931 0)
  (-0.0637587 -0.0709145 0)
  (-0.0620059 -0.0706562 0)
  (-0.060577 -0.0709847 0)
  (-0.0595433 -0.0717188 0)
  (-0.0587657 -0.0725038 0)
  (-0.0580104 -0.0730728 0)
  (-0.0570728 -0.0733289 0)
  (-0.0558303 -0.0732339 0)
  (-0.0542102 -0.0727701 0)
  (-0.0521652 -0.0719602 0)
  (-0.0496746 -0.0709027 0)
  (-0.0467555 -0.0697471 0)
  (-0.0434708 -0.0686893 0)
  (-0.039941 -0.0679668 0)
  (-0.0363576 -0.067846 0)
  (-0.0329954 -0.0685801 0)
  (-0.0302233 -0.070315 0)
  (-0.0284945 -0.0729194 0)
  (-0.0282375 -0.0757167 0)
  (-0.0295869 -0.0770661 0)
  (-0.0308577 -0.0773839 0)
  (-0.0301161 -0.0702417 0)
  (-0.0351571 -0.0555177 0)
  (-0.076989 -0.0544053 0)
  (0.229413 -0.0520113 0)
  (-0.21081 -0.175145 0)
  (-0.180399 0.010312 0)
  (-0.169143 0.223293 0)
  (-0.160107 0.205984 0)
  (-0.158804 0.202223 0)
  (-0.149079 0.209108 0)
  (-0.134971 0.218531 0)
  (-0.119839 0.229737 0)
  (-0.106916 0.241312 0)
  (-0.0976615 0.249813 0)
  (-0.0912596 0.255105 0)
  (-0.0867905 0.258161 0)
  (-0.0834929 0.259739 0)
  (-0.0807793 0.260425 0)
  (-0.078252 0.260712 0)
  (-0.0756918 0.261036 0)
  (-0.0730548 0.261771 0)
  (-0.0704291 0.263099 0)
  (-0.067899 0.264891 0)
  (-0.0654557 0.266881 0)
  (-0.06302 0.268837 0)
  (-0.0605015 0.270616 0)
  (-0.0578266 0.272125 0)
  (-0.0549343 0.273308 0)
  (-0.0517801 0.27414 0)
  (-0.0483558 0.274633 0)
  (-0.0447119 0.274807 0)
  (-0.040969 0.274698 0)
  (-0.0373243 0.274364 0)
  (-0.0340442 0.273906 0)
  (-0.0314468 0.273484 0)
  (-0.0298965 0.273314 0)
  (-0.0297897 0.27359 0)
  (-0.0312112 0.274164 0)
  (-0.0328278 0.273457 0)
  (-0.0325256 0.274163 0)
  (-0.0330455 0.269801 0)
  (-0.0517371 0.264081 0)
  (-0.103266 0.2772 0)
  (0.306524 0.326022 0)
)
;

boundaryField
{
  floor
  {
    type noSlip;
  }
  ceiling
  {
    type noSlip;
  }
  sWall
  {
    type noSlip;
  }
  nWall
  {
    type noSlip;
  }
  sideWalls
  {
    type empty;
  }
  glass1
  {
    type noSlip;
  }
  glass2
  {
    type noSlip;
  }
  sun
  {
    type noSlip;
  }
  heatsource1
  {
    type noSlip;
  }
  heatsource2
  {
    type noSlip;
  }
  Table_master
  {
    type noSlip;
  }
  Table_slave
  {
    type noSlip;
  }
  inlet
  {
    type fixedValue;
    value uniform (0.277164 -0.114805 0);
  }
  outlet
  {
    type zeroGradient;
  }
} 	// ************************************************************************* //

