/*--------------------------------*- C++ -*----------------------------------*\
  =========                 |
  \\      /  F ield         | OpenFOAM: The Open Source CFD Toolbox
   \\    /   O peration     | Website:  https://openfoam.org
    \\  /    A nd           | Version:  6
     \\/     M anipulation  |
\*---------------------------------------------------------------------------*/
FoamFile
{
    version     2.0;
    format      ascii;
    class       volScalarField;
    location    "1100";
    object      alphat;
}
// * * * * * * * * * * * * * * * * * * * * * * * * * * * * * * * * * * * * * //

dimensions      [1 -1 -1 0 0 0 0];

internalField   nonuniform List<scalar> 
459
(
0.00125376
0.00137105
0.00139652
0.00146364
0.00152578
0.00158393
0.00164092
0.00169663
0.00173594
0.00175248
0.00174038
0.00169598
0.0016191
0.00151622
0.00140338
0.00055081
0.000673801
0.000757674
0.000752483
0.000726286
0.000692034
0.000649273
0.000606956
0.000568542
0.000534426
0.000504211
0.000477363
0.00045349
0.000432053
0.00041229
0.000393206
0.00037334
0.000359097
0.000326947
0.00170766
0.00418382
0.0040066
0.00466356
0.00530839
0.00595265
0.00652077
0.00694792
0.00733415
0.00764808
0.00784552
0.00787607
0.00766321
0.00701573
0.00524356
0.00143088
0.000843217
0.000595915
0.00124963
0.00172393
0.00206215
0.00224049
0.00223169
0.00179651
0.00155089
0.00137487
0.00123952
0.00113172
0.0010439
0.000968078
0.00089737
0.000828766
0.000767742
0.000714613
0.000837082
0.000427034
0.00208457
0.00571531
0.00497604
0.00624373
0.00687473
0.00734117
0.00770235
0.00798972
0.00830219
0.00862875
0.00893023
0.00915084
0.009229
0.00907452
0.00845041
0.00651434
0.00142237
0.00118955
0.00170697
0.00218359
0.00260591
0.00288989
0.00280718
0.000929657
0.000820885
0.000733527
0.000663046
0.00060563
0.000558357
0.000519129
0.000486608
0.000460234
0.000496105
0.000574016
0.000941548
0.000493707
0.00244562
0.00730109
0.00499285
0.00661397
0.00717071
0.00735674
0.0074751
0.00762049
0.00786899
0.00820361
0.00858355
0.00893923
0.00920661
0.00931422
0.00917839
0.00850959
0.00623523
0.00170287
0.00211167
0.00272375
0.0033099
0.00376928
0.00404552
0.00378319
0.00104894
0.000954747
0.000887229
0.000835729
0.000792005
0.00075197
0.000713581
0.000673389
0.000626893
0.0005882
0.000601862
0.00107491
0.000545325
0.00281325
0.00933375
0.00548824
0.00636911
0.00710788
0.00715402
0.00708722
0.00716379
0.00738387
0.00772422
0.00815061
0.0085678
0.00888758
0.00903841
0.00899502
0.00870929
0.00798836
0.00660529
0.00613078
0.00597318
0.00591821
0.0058831
0.00581809
0.00559108
0.00471624
0.00429604
0.00405112
0.00386187
0.00366314
0.00337816
0.00299401
0.00252782
0.00200998
0.00148822
0.00109747
0.00110303
0.000732448
0.000671495
0.000813121
0.000912719
0.00320261
0.0115444
0.00754503
0.00633822
0.00689348
0.00713758
0.00697596
0.00704092
0.0072076
0.00751251
0.00794181
0.00839832
0.0087503
0.0088956
0.00881019
0.00854869
0.00820148
0.00784235
0.00764154
0.00749495
0.00733057
0.00714317
0.00693163
0.0066641
0.00626697
0.00591028
0.00559344
0.00529045
0.00498343
0.0046515
0.00423512
0.00371799
0.00310013
0.00241666
0.0018126
0.00135757
0.00102289
0.000867986
0.00123661
0.000952559
0.00355619
0.0130858
0.0105549
0.00815734
0.0077167
0.00761705
0.00736012
0.00719848
0.00725187
0.00754875
0.00802374
0.00853206
0.00890241
0.00901467
0.00885615
0.00853989
0.00826575
0.0081701
0.00818158
0.00811116
0.00790337
0.00759555
0.00722307
0.00680589
0.00636464
0.00595427
0.00557864
0.00522991
0.00490858
0.00462201
0.00437
0.00402634
0.00354465
0.002957
0.00239222
0.00188723
0.00151624
0.00140156
0.00142855
0.00108576
0.00362214
0.0116253
0.0103365
0.00955033
0.00885012
0.0080408
0.00740931
0.00716042
0.00731821
0.00779541
0.0084281
0.00900737
0.00933735
0.00932425
0.0090142
0.00860243
0.00835234
0.00834995
0.00836229
0.00811513
0.00767486
0.00712706
0.00654367
0.00598665
0.00549776
0.00508696
0.00473961
0.00444738
0.00421358
0.00404689
0.0039554
0.00390988
0.00366913
0.00329257
0.00296184
0.00279354
0.00290175
0.00334157
0.0040996
0.00169427
0.00352204
0.0041795
0.00464341
0.00476131
0.00486184
0.00513529
0.00568424
0.00651808
0.00753927
0.00857034
0.00942105
0.00991307
0.00992786
0.00952199
0.00891309
0.00849357
0.00825803
0.00805659
0.00771674
0.00717076
0.0064969
0.00579967
0.00516707
0.00464389
0.00423041
0.00390212
0.00363374
0.00340983
0.00322041
0.00305555
0.00290474
0.00276633
0.00265707
0.00257669
0.0025464
0.00255761
0.00254286
0.00244065
0.00228093
0.00159281
0.00176192
0.00361136
0.00585379
0.00771724
0.00916705
0.0102693
0.0109606
0.011229
0.0111172
0.0106187
0.00983724
0.00886158
0.00803322
0.00751845
0.00710258
0.00659431
0.00597228
0.00530612
0.00467291
0.00412625
0.00369443
0.00336239
0.00310457
0.00290085
0.00273955
0.0026148
0.0025237
0.00246482
0.00244007
0.00244677
0.00246885
0.00250177
0.00253654
0.00254527
0.002483
0.00233538
0.00211355
0.00132434
0.00235356
0.00604528
0.00899696
0.0101105
0.0106685
0.0108393
0.0105922
0.00999861
0.00917994
0.00825479
0.00738019
0.00660043
0.00597101
0.00543483
0.00489528
0.00436498
0.00389502
0.0035128
0.00321726
0.00299144
0.00280894
0.00265575
0.0025257
0.00242215
0.00234732
0.00230032
0.00227941
0.0022823
0.00231489
0.00237386
0.00245517
0.00255023
0.00264023
0.00270228
0.00268162
0.00271098
0.00275023
0.00135039
0.00208719
0.00221236
0.00230068
0.00246333
0.00237691
0.002277
0.00221224
0.00212166
0.00199241
0.0018322
0.00165219
0.00146522
0.00128385
0.00112825
0.00101073
0.000927243
0.000867998
0.000825158
0.000793966
0.000771711
0.000756703
0.000747898
0.000744636
0.000747139
0.000755914
0.000770549
0.000790874
0.000817288
0.000850449
0.000891292
0.000938747
0.000992893
0.00105432
0.00112354
0.00119999
0.00129078
0.00132026
0.00128639
0.00120846
0.00112573
)
;

boundaryField
{
    floor
    {
        type            compressible::alphatWallFunction;
        Prt             0.85;
        value           nonuniform List<scalar> 
29
(
0.000197958
7.69842e-05
9.53549e-05
0.000107645
0.000106889
0.000103066
9.80417e-05
9.17266e-05
8.54269e-05
7.96614e-05
7.45003e-05
6.98952e-05
6.57741e-05
6.20851e-05
5.87516e-05
5.56595e-05
5.26557e-05
4.95087e-05
4.72391e-05
4.20725e-05
4.20719e-05
5.79682e-05
6.82866e-05
7.6154e-05
0.000197956
7.69832e-05
8.37741e-05
0.000168725
0.000238084
)
;
    }
    ceiling
    {
        type            compressible::alphatWallFunction;
        Prt             0.85;
        value           nonuniform List<scalar> 
43
(
0.000288356
0.000304532
0.00031589
0.000336805
0.000325827
0.000313045
0.000304727
0.000293037
0.000276257
0.000255286
0.000231481
0.000206447
0.000181816
0.000160368
0.000143945
0.000132143
0.000123692
0.000117539
0.000113035
0.000109808
0.000107626
0.000106344
0.000105868
0.000106233
0.000107512
0.00010964
0.000112588
0.000116406
0.000121177
0.000127024
0.000133779
0.000141436
0.000150065
0.000159719
0.000170302
0.000182772
0.000186799
0.000182171
0.000171471
0.000160028
0.000469285
0.000549248
0.000322497
)
;
    }
    sWall
    {
        type            compressible::alphatWallFunction;
        Prt             0.85;
        value           uniform 0.000287147;
    }
    nWall
    {
        type            compressible::alphatWallFunction;
        Prt             0.85;
        value           nonuniform List<scalar> 6(0.000129759 0.000135411 0.000154122 0.00018703 0.000190576 0.000159706);
    }
    sideWalls
    {
        type            empty;
    }
    glass1
    {
        type            compressible::alphatWallFunction;
        Prt             0.85;
        value           nonuniform List<scalar> 9(0.000173279 0.000233627 0.000282516 0.000328541 0.000374733 0.000423015 0.00046638 0.00047455 0.000462569);
    }
    glass2
    {
        type            compressible::alphatWallFunction;
        Prt             0.85;
        value           nonuniform List<scalar> 2(0.00023539 0.000222003);
    }
    sun
    {
        type            compressible::alphatWallFunction;
        Prt             0.85;
        value           nonuniform List<scalar> 
14
(
0.000177583
0.000193579
0.000197034
0.000206108
0.000214467
0.000222255
0.000229857
0.00023726
0.000242467
0.000244654
0.000243053
0.000237171
0.000226946
0.000213179
)
;
    }
    heatsource1
    {
        type            compressible::alphatWallFunction;
        Prt             0.85;
        value           nonuniform List<scalar> 3(9.5118e-05 0.000115787 0.000130062);
    }
    heatsource2
    {
        type            compressible::alphatWallFunction;
        Prt             0.85;
        value           nonuniform List<scalar> 4(0.000201801 0.000120122 0.00012012 0.000200649);
    }
    Table_master
    {
        type            compressible::alphatWallFunction;
        Prt             0.85;
        value           nonuniform List<scalar> 9(0.000132468 0.000116905 0.000104228 9.3867e-05 8.53276e-05 7.82218e-05 7.22685e-05 6.72903e-05 6.32223e-05);
    }
    Table_slave
    {
        type            compressible::alphatWallFunction;
        Prt             0.85;
        value           nonuniform List<scalar> 9(0.000149294 0.000136029 0.000126427 0.000119045 0.000112735 0.000106921 0.000101311 9.53977e-05 8.85032e-05);
    }
    inlet
    {
        type            fixedValue;
        value           uniform 1.94e-05;
    }
    outlet
    {
        type            zeroGradient;
    }
}


// ************************************************************************* //
