/*--------------------------------*- C++ -*----------------------------------*\
  =========                 |
  \\      /  F ield         | OpenFOAM: The Open Source CFD Toolbox
   \\    /   O peration     | Website:  https://openfoam.org
    \\  /    A nd           | Version:  6
     \\/     M anipulation  |
\*---------------------------------------------------------------------------*/
FoamFile
{
    version     2.0;
    format      ascii;
    class       volScalarField;
    location    "1000";
    object      alphat;
}
// * * * * * * * * * * * * * * * * * * * * * * * * * * * * * * * * * * * * * //

dimensions      [1 -1 -1 0 0 0 0];

internalField   nonuniform List<scalar> 
459
(
0.00121728
0.00132786
0.00135022
0.00141405
0.00147273
0.0015271
0.00157959
0.00163345
0.00167464
0.00169654
0.00169306
0.00165976
0.00159651
0.00151055
0.00141716
0.000534623
0.000660712
0.000734559
0.000720133
0.000690105
0.000654528
0.000614102
0.000575223
0.000540094
0.000508847
0.000481093
0.000456343
0.000434328
0.000414455
0.000396038
0.000378146
0.000359364
0.000346336
0.000315979
0.00166729
0.00399122
0.00379192
0.00441093
0.00501038
0.00561683
0.00617211
0.00658334
0.00695418
0.00726455
0.0074676
0.00750292
0.00728014
0.00658885
0.00477049
0.00143956
0.000910005
0.000591073
0.00119016
0.00160088
0.00187552
0.00200466
0.00198619
0.00164361
0.00143498
0.00128181
0.00116229
0.00106599
0.000986828
0.000916523
0.00085083
0.000787576
0.000732195
0.000683289
0.00080379
0.000417753
0.00204394
0.005457
0.00467653
0.00593551
0.00655316
0.00700897
0.00735997
0.00762659
0.00790819
0.0082085
0.00849472
0.00870959
0.00878873
0.00865163
0.00809424
0.00642716
0.00139643
0.00120774
0.0016687
0.00206551
0.00239307
0.00259649
0.00250966
0.000876378
0.000777624
0.000698153
0.000633818
0.000581213
0.000537745
0.000501543
0.000471384
0.000446698
0.000479059
0.000550372
0.0008986
0.000484565
0.00240764
0.00703518
0.00466619
0.00630523
0.00689962
0.00710056
0.00720058
0.00730334
0.00750259
0.00779127
0.0081422
0.00848433
0.0087528
0.0088919
0.00880843
0.00826119
0.00639062
0.00167287
0.00207945
0.00263768
0.00311894
0.00345975
0.0036455
0.00340491
0.000983982
0.000899536
0.000839364
0.000793758
0.000755029
0.000719145
0.000684704
0.000648455
0.000606111
0.000568916
0.000578092
0.00102109
0.00053592
0.00277943
0.00907681
0.00515051
0.00602293
0.00685589
0.00695091
0.00686932
0.00685602
0.0070293
0.00731379
0.00770769
0.00811423
0.00844799
0.00863142
0.00861989
0.00836147
0.00768938
0.0062954
0.00577
0.00553009
0.00538473
0.00527718
0.00517865
0.00498571
0.00427058
0.00393543
0.0037454
0.00359721
0.00343384
0.00318745
0.00284193
0.00241432
0.00193272
0.0014367
0.00105704
0.00104998
0.000711654
0.000666755
0.000808295
0.000905489
0.00317353
0.0112967
0.00719191
0.00590592
0.00650836
0.00683485
0.00669958
0.0067136
0.00685928
0.00711881
0.00749915
0.00793521
0.00830669
0.00849808
0.00845091
0.00818352
0.00777176
0.00730187
0.0069823
0.006735
0.00650173
0.0062871
0.00609197
0.00588393
0.00559017
0.00533078
0.00509688
0.00486588
0.00462342
0.00435302
0.00399452
0.00353165
0.00296307
0.00231921
0.0017388
0.00129114
0.000978476
0.000836761
0.00120064
0.000942452
0.00353534
0.0128703
0.0102301
0.00768761
0.00716425
0.00722245
0.00707013
0.00692972
0.00693708
0.00715487
0.00755879
0.00803943
0.00843833
0.00861207
0.00849976
0.00815652
0.00774829
0.00745122
0.00729355
0.00712824
0.00688534
0.00658678
0.00625987
0.00592648
0.00560369
0.00531807
0.00505665
0.00480753
0.00457013
0.00435137
0.004151
0.0038422
0.00338908
0.00282949
0.00228709
0.00179477
0.00143744
0.00132325
0.00135139
0.00105931
0.00360548
0.0115491
0.0102066
0.0093557
0.00875568
0.00805937
0.00738039
0.00700311
0.00700646
0.00734597
0.00789
0.00845518
0.00884638
0.00891967
0.00865468
0.008169
0.00770467
0.00745263
0.00732655
0.00703024
0.00658049
0.00607261
0.00558726
0.00517568
0.00484765
0.00458302
0.00435667
0.00416009
0.00399841
0.00388308
0.00382617
0.00379957
0.00354029
0.00316439
0.00282935
0.00265034
0.00273718
0.00315897
0.00393336
0.00167222
0.00350796
0.0041723
0.00465433
0.00482072
0.00489279
0.00505415
0.0054362
0.00608326
0.0069489
0.00789112
0.00873109
0.00930511
0.00947617
0.00918939
0.00857194
0.00789566
0.00745453
0.00710772
0.00669145
0.00612013
0.00548159
0.00489869
0.00443401
0.00408611
0.00382231
0.00360856
0.00342319
0.0032566
0.00310395
0.00295997
0.00281836
0.00268103
0.00256865
0.00248528
0.00245579
0.00247335
0.00247126
0.0023852
0.00223687
0.00157759
0.00183816
0.00367661
0.00547488
0.00701865
0.00828391
0.00934073
0.0101044
0.0105081
0.010548
0.010248
0.00958363
0.00864427
0.00764604
0.00687658
0.00632342
0.00575592
0.00512785
0.00451286
0.00398698
0.003589
0.00329625
0.00307411
0.00289638
0.00274798
0.00262278
0.00251974
0.00243991
0.00238527
0.00235995
0.00236418
0.00238284
0.00241347
0.00244895
0.00246261
0.00240949
0.00227183
0.00206277
0.00131603
0.00237067
0.00573607
0.00839769
0.00945632
0.0101039
0.0104081
0.0103308
0.00989285
0.00916949
0.00826787
0.00730787
0.00642784
0.00566924
0.00502372
0.00443153
0.00390841
0.00350007
0.00320392
0.00298791
0.00281372
0.00266286
0.00253187
0.00242367
0.00233763
0.0022742
0.00223386
0.00221606
0.00221816
0.00224734
0.00230197
0.00237859
0.00246976
0.00255814
0.00262037
0.00260701
0.00264544
0.00269971
0.00134189
0.00208598
0.00221081
0.00229925
0.00245117
0.00235784
0.00224765
0.00217412
0.00208715
0.00197006
0.00182251
0.00165079
0.00146641
0.00128389
0.00111829
0.000985909
0.000892024
0.000829371
0.000788279
0.000761506
0.000744514
0.000734755
0.000730788
0.00073254
0.000739574
0.000751149
0.000767502
0.00078893
0.000815835
0.000848853
0.000889121
0.000935694
0.000988415
0.00104798
0.00111505
0.00118938
0.00127699
0.00130903
0.00127776
0.00120061
0.00112009
)
;

boundaryField
{
    floor
    {
        type            compressible::alphatWallFunction;
        Prt             0.85;
        value           nonuniform List<scalar> 
29
(
0.000199828
7.45321e-05
9.34221e-05
0.000104276
0.000102166
9.77584e-05
9.25057e-05
8.64949e-05
8.06681e-05
7.53613e-05
7.06048e-05
6.63493e-05
6.25282e-05
5.91072e-05
5.60001e-05
5.31035e-05
5.02729e-05
4.72827e-05
4.51967e-05
4.02956e-05
4.0295e-05
5.65177e-05
6.68843e-05
7.47293e-05
0.000199826
7.45311e-05
8.30499e-05
0.000171236
0.000234102
)
;
    }
    ceiling
    {
        type            compressible::alphatWallFunction;
        Prt             0.85;
        value           nonuniform List<scalar> 
43
(
0.000288201
0.000304333
0.000315706
0.000335252
0.000323381
0.000309266
0.000299804
0.00028856
0.000273337
0.000254008
0.000231292
0.000206604
0.000181818
0.000158981
0.000140444
0.000127123
0.000118142
0.000112208
0.000108322
0.000105847
0.000104423
0.000103844
0.000104101
0.000105128
0.000106817
0.000109197
0.000112306
0.000116196
0.000120948
0.000126715
0.000133346
0.000140805
0.000149177
0.000158539
0.000168839
0.000180885
0.000185267
0.000180991
0.00017039
0.000159244
0.00046756
0.000548384
0.0003247
)
;
    }
    sWall
    {
        type            compressible::alphatWallFunction;
        Prt             0.85;
        value           uniform 0.000286992;
    }
    nWall
    {
        type            compressible::alphatWallFunction;
        Prt             0.85;
        value           nonuniform List<scalar> 6(0.000128732 0.000133981 0.000150431 0.000185897 0.00018942 0.000158923);
    }
    sideWalls
    {
        type            empty;
    }
    glass1
    {
        type            compressible::alphatWallFunction;
        Prt             0.85;
        value           nonuniform List<scalar> 9(0.000168371 0.000228372 0.000277338 0.000323785 0.000370564 0.000419483 0.000463888 0.000472571 0.000460898);
    }
    glass2
    {
        type            compressible::alphatWallFunction;
        Prt             0.85;
        value           nonuniform List<scalar> 2(0.000232483 0.000219983);
    }
    sun
    {
        type            compressible::alphatWallFunction;
        Prt             0.85;
        value           nonuniform List<scalar> 
14
(
0.000172571
0.000187703
0.000190749
0.00019941
0.000207335
0.000214646
0.000221676
0.000228864
0.000234342
0.000237248
0.000236786
0.000232363
0.000223934
0.000212421
)
;
    }
    heatsource1
    {
        type            compressible::alphatWallFunction;
        Prt             0.85;
        value           nonuniform List<scalar> 3(9.44178e-05 0.000115091 0.000129032);
    }
    heatsource2
    {
        type            compressible::alphatWallFunction;
        Prt             0.85;
        value           nonuniform List<scalar> 4(0.000202974 0.000129676 0.000129675 0.000197134);
    }
    Table_master
    {
        type            compressible::alphatWallFunction;
        Prt             0.85;
        value           nonuniform List<scalar> 9(0.00012487 0.000110646 9.90416e-05 8.95301e-05 8.1665e-05 7.50992e-05 6.95805e-05 6.49446e-05 6.11221e-05);
    }
    Table_slave
    {
        type            compressible::alphatWallFunction;
        Prt             0.85;
        value           nonuniform List<scalar> 9(0.000140158 0.000128181 0.000119565 0.000112987 0.000107365 0.000102124 9.70653e-05 9.17069e-05 8.54006e-05);
    }
    inlet
    {
        type            fixedValue;
        value           uniform 1.94e-05;
    }
    outlet
    {
        type            zeroGradient;
    }
}


// ************************************************************************* //
