// -*- C++ -*-
// File generated by PyFoam - sorry for the ugliness

FoamFile
{
 version 2.0;
 format ascii;
 class volScalarField;
 location "10";
 object T;
}

dimensions [ 0 0 0 1 0 0 0 ];

internalField nonuniform List<scalar> 459
(
  307.95
  307.842
  307.786
  307.76
  307.771
  307.793
  307.813
  307.828
  307.839
  307.846
  307.851
  307.854
  307.854
  307.85
  307.819
  307.781
  307.832
  307.849
  307.854
  307.855
  307.852
  307.845
  307.842
  307.84
  307.84
  307.84
  307.84
  307.84
  307.84
  307.841
  307.844
  307.841
  307.824
  307.784
  307.981
  307.801
  307.673
  307.62
  307.648
  307.703
  307.756
  307.799
  307.829
  307.85
  307.864
  307.872
  307.876
  307.877
  307.875
  307.89
  307.901
  307.849
  307.875
  307.882
  307.885
  307.886
  307.887
  307.887
  307.887
  307.888
  307.888
  307.888
  307.888
  307.888
  307.888
  307.886
  307.883
  307.879
  307.872
  307.848
  307.984
  307.683
  307.467
  307.39
  307.455
  307.561
  307.661
  307.739
  307.794
  307.832
  307.856
  307.871
  307.88
  307.885
  307.888
  307.894
  307.899
  307.874
  307.889
  307.892
  307.894
  307.896
  307.897
  307.898
  307.9
  307.901
  307.901
  307.901
  307.901
  307.901
  307.9
  307.898
  307.895
  307.892
  307.887
  307.868
  307.946
  307.47
  307.139
  307.041
  307.177
  307.365
  307.532
  307.658
  307.747
  307.805
  307.843
  307.866
  307.879
  307.887
  307.892
  307.896
  307.897
  307.889
  307.893
  307.896
  307.898
  307.899
  307.9
  307.901
  307.903
  307.904
  307.905
  307.905
  307.905
  307.905
  307.905
  307.905
  307.904
  307.901
  307.899
  307.895
  307.882
  307.836
  307.147
  306.683
  306.564
  306.817
  307.122
  307.378
  307.565
  307.692
  307.775
  307.827
  307.858
  307.876
  307.887
  307.893
  307.896
  307.898
  307.898
  307.899
  307.9
  307.9
  307.901
  307.902
  307.903
  307.904
  307.904
  307.904
  307.905
  307.905
  307.905
  307.905
  307.904
  307.904
  307.903
  307.903
  307.903
  307.906
  307.933
  307.973
  308.018
  307.645
  306.75
  306.146
  305.984
  306.396
  306.852
  307.215
  307.471
  307.64
  307.747
  307.813
  307.851
  307.873
  307.886
  307.893
  307.897
  307.899
  307.9
  307.901
  307.901
  307.902
  307.902
  307.903
  307.903
  307.904
  307.904
  307.904
  307.904
  307.904
  307.904
  307.904
  307.904
  307.904
  307.904
  307.905
  307.907
  307.914
  307.939
  307.99
  308.08
  307.464
  306.45
  305.663
  305.365
  305.943
  306.581
  307.066
  307.393
  307.602
  307.729
  307.804
  307.847
  307.871
  307.885
  307.893
  307.897
  307.899
  307.9
  307.901
  307.902
  307.902
  307.902
  307.903
  307.903
  307.903
  307.903
  307.904
  307.904
  307.904
  307.904
  307.904
  307.904
  307.904
  307.905
  307.906
  307.91
  307.918
  307.939
  307.991
  308.141
  307.467
  306.586
  305.433
  304.801
  305.483
  306.335
  306.958
  307.353
  307.589
  307.725
  307.803
  307.847
  307.872
  307.885
  307.893
  307.897
  307.899
  307.9
  307.901
  307.902
  307.902
  307.902
  307.902
  307.903
  307.903
  307.903
  307.903
  307.903
  307.903
  307.903
  307.903
  307.903
  307.904
  307.905
  307.907
  307.911
  307.92
  307.942
  308
  308.243
  307.579
  307.351
  305.332
  304.274
  305.067
  306.186
  306.943
  307.374
  307.609
  307.738
  307.811
  307.851
  307.874
  307.887
  307.893
  307.897
  307.899
  307.9
  307.901
  307.901
  307.901
  307.901
  307.901
  307.902
  307.902
  307.902
  307.902
  307.902
  307.902
  307.902
  307.902
  307.902
  307.903
  307.904
  307.906
  307.911
  307.92
  307.944
  308.003
  308.256
  300.967
  302.69
  304.883
  306.37
  307.114
  307.467
  307.658
  307.765
  307.825
  307.859
  307.878
  307.888
  307.894
  307.897
  307.898
  307.899
  307.899
  307.899
  307.9
  307.9
  307.9
  307.9
  307.9
  307.9
  307.9
  307.9
  307.9
  307.9
  307.9
  307.901
  307.901
  307.902
  307.904
  307.909
  307.918
  307.942
  307.994
  308.142
  305.607
  305.941
  306.497
  307.015
  307.373
  307.593
  307.724
  307.8
  307.844
  307.868
  307.882
  307.889
  307.893
  307.895
  307.896
  307.896
  307.896
  307.897
  307.897
  307.897
  307.897
  307.897
  307.897
  307.897
  307.897
  307.897
  307.897
  307.897
  307.897
  307.897
  307.898
  307.898
  307.9
  307.904
  307.913
  307.936
  307.985
  308.069
  306.907
  306.847
  306.834
  307.063
  307.3
  307.486
  307.629
  307.732
  307.799
  307.839
  307.862
  307.875
  307.881
  307.884
  307.886
  307.887
  307.887
  307.887
  307.887
  307.887
  307.887
  307.887
  307.887
  307.887
  307.887
  307.887
  307.887
  307.887
  307.887
  307.887
  307.887
  307.887
  307.887
  307.888
  307.889
  307.892
  307.9
  307.918
  307.952
  308.006
)
;

boundaryField
{
  floor
  {
    type wallHeatTransfer;
    Tinf uniform 298.8499999999999;
    alphaWall uniform 0.24;
    value nonuniform List<scalar> 29
(
  307.165
  306.919
  307.106
  307.177
  307.196
  307.185
  307.136
  307.032
  306.96
  306.93
  306.922
  306.92
  306.92
  306.923
  306.933
  306.965
  307.03
  307.05
  307.005
  306.89
  306.89
  307.094
  307.207
  307.293
  307.165
  306.919
  307.175
  307.317
  307.403
)
;
  }
  ceiling
  {
    type wallHeatTransfer;
    Tinf uniform 298.8499999999999;
    alphaWall uniform 0.24;
    value nonuniform List<scalar> 43
(
  306.257
  306.261
  306.322
  306.586
  306.832
  307.022
  307.167
  307.27
  307.334
  307.373
  307.393
  307.404
  307.408
  307.408
  307.408
  307.406
  307.405
  307.403
  307.402
  307.401
  307.401
  307.4
  307.4
  307.399
  307.398
  307.398
  307.397
  307.396
  307.396
  307.395
  307.394
  307.393
  307.392
  307.39
  307.389
  307.392
  307.404
  307.43
  307.459
  307.465
  307.117
  306.907
  305.234
)
;
  }
  sWall
  {
    type wallHeatTransfer;
    Tinf uniform 311.14860725308637;
    alphaWall uniform 0.36;
    value uniform 307.402;
  }
  nWall
  {
    type wallHeatTransfer;
    Tinf uniform 299.15;
    alphaWall uniform 0.36;
    value nonuniform List<scalar> 6
(
  307.207
  307.413
  307.579
  307.592
  307.421
  307.244
)
;
  }
  sideWalls
  {
    type empty;
  }
  glass1
  {
    type wallHeatTransfer;
    Tinf uniform 311.14860725308637;
    alphaWall uniform 4.3;
    value nonuniform List<scalar> 9
(
  309.916
  309.786
  309.701
  309.612
  309.494
  309.345
  309.231
  309.253
  309.374
)
;
  }
  glass2
  {
    type wallHeatTransfer;
    Tinf uniform 299.15;
    alphaWall uniform 4.3;
    value nonuniform List<scalar> 2
(
  304.669
  304.753
)
;
  }
  sun
  {
    type wallHeatTransfer;
    Tinf uniform 298.8499999999999;
    alphaWall uniform 0.24;
    value nonuniform List<scalar> 14
(
  307.212
  307.227
  307.233
  307.226
  307.237
  307.249
  307.257
  307.259
  307.263
  307.266
  307.266
  307.263
  307.254
  307.231
)
;
  }
  heatsource1
  {
    type fixedGradient;
    gradient uniform 0;
  }
  heatsource2
  {
    type fixedGradient;
    gradient uniform 0;
  }
  Table_master
  {
    type zeroGradient;
  }
  Table_slave
  {
    type zeroGradient;
  }
  inlet
  {
    type fixedValue;
    value uniform 300.15;
  }
  outlet
  {
    type zeroGradient;
  }
} 	// ************************************************************************* //

