/*--------------------------------*- C++ -*----------------------------------*\
  =========                 |
  \\      /  F ield         | OpenFOAM: The Open Source CFD Toolbox
   \\    /   O peration     | Website:  https://openfoam.org
    \\  /    A nd           | Version:  6
     \\/     M anipulation  |
\*---------------------------------------------------------------------------*/
FoamFile
{
    version     2.0;
    format      ascii;
    class       surfaceScalarField;
    location    "1400";
    object      phi;
}
// * * * * * * * * * * * * * * * * * * * * * * * * * * * * * * * * * * * * * //

dimensions      [1 0 -1 0 0 0 0];

internalField   nonuniform List<scalar> 
852
(
-0.00290653
0.00296427
-0.00387249
0.00096598
-0.00463063
0.000758164
-0.00524642
0.000615818
-0.00568947
0.000443077
-0.00593881
0.000249363
-0.00597211
3.3326e-05
-0.00576621
-0.000205875
-0.00531416
-0.000452027
-0.00464461
-0.000669519
-0.00381941
-0.000825171
-0.00291697
-0.000902418
-0.00200387
-0.000913075
-0.00107883
-0.000925013
-0.00107721
-0.000603967
0.00060716
-0.000204236
-0.000399707
0.000391983
-0.000596196
0.000803726
-0.000411721
0.00105427
-0.000250523
0.00119739
-0.000143091
0.00126752
-7.01141e-05
0.00129811
-3.05673e-05
0.00131124
-1.30988e-05
0.00131521
-3.94985e-06
0.00131305
2.18927e-06
0.00130568
7.3903e-06
0.00129116
1.45497e-05
0.00126181
2.93719e-05
0.00119711
6.47292e-05
0.00106389
0.000133247
0.000859841
0.000204074
0.00065653
0.000203339
0.000660938
-0.00207385
0.00519304
-0.00304133
0.00193349
-0.00383158
0.00154844
-0.0044389
0.00122316
-0.00487288
0.000877081
-0.00512459
0.000501101
-0.00517064
7.94058e-05
-0.00498667
-0.000389821
-0.00457249
-0.000866178
-0.00396823
-0.00127376
-0.00324338
-0.00154999
-0.0024766
-0.00166917
-0.00174439
-0.00164527
-0.00115313
-0.00151624
-0.00097583
-0.00125449
-0.000274901
-0.000700955
-0.000274926
0.000588793
2.7213e-05
0.00092669
-0.000737581
0.00109152
-0.000761007
0.0012511
-0.000571275
0.00136793
-0.000367329
0.00142858
-0.000203726
0.00143306
-7.45689e-05
0.00143353
-3.10192e-05
0.00143501
-1.45564e-05
0.00143627
-5.18309e-06
0.0014368
1.67716e-06
0.00143646
7.76289e-06
0.00143443
1.66017e-05
0.00142742
3.64043e-05
0.00138759
0.000104585
0.00121821
0.000302654
0.000931884
0.000490425
0.00058854
0.00054671
0.00126025
-0.00145865
0.006888
-0.00231119
0.00278605
-0.00301715
0.00225443
-0.0035374
0.00174345
-0.0039172
0.00125691
-0.00414707
0.000730996
-0.0041903
0.00012266
-0.00400549
-0.000574603
-0.00360006
-0.00127158
-0.0030331
-0.00184069
-0.00238184
-0.00220122
-0.00171946
-0.00233153
-0.0011101
-0.00225459
-0.000618476
-0.00200785
-0.000280004
-0.00159293
3.89952e-05
-0.00101993
-0.000235907
0.0013277
-0.00129147
0.00153684
-0.000946693
0.00151809
-0.000742243
0.0015209
-0.000574059
0.00154335
-0.000389767
0.00154061
-0.000200969
0.00146622
0.00143537
0.00142099
0.00141598
0.00141783
0.00142577
0.00144255
0.00147913
0.00158389
0.00129633
0.000590246
0.000951811
0.000834964
0.000526318
0.000972229
0.00180267
-0.00102824
0.00822146
-0.00172343
0.00348127
-0.00219559
0.00272661
-0.00254309
0.00209098
-0.00280688
0.00152073
-0.00297067
0.000894806
-0.0029712
0.000123219
-0.0027476
-0.000798177
-0.00233578
-0.00168337
-0.00181995
-0.00235649
-0.00127602
-0.00274512
-0.000759528
-0.00284799
-0.000305313
-0.00270878
7.33241e-05
-0.00238646
0.000400386
-0.00191997
0.000759884
-0.00137941
0.0013891
-0.000865101
0.00206608
-0.00066845
0.00162208
-0.000847445
0.00153479
-0.00085938
0.00148234
-0.000689774
0.00144076
-0.000532465
0.00143718
-0.000386167
0.00147693
-0.000240705
0.00159866
-0.000121861
0.00170265
-0.000104134
0.00180279
-0.00010027
0.00189331
-9.06649e-05
0.00195574
-6.25699e-05
0.00196134
-5.73467e-06
0.00187882
8.23759e-05
0.00167373
0.000204953
0.00129123
0.000382354
0.0011363
0.000745197
0.00081094
0.00116035
0.000301242
0.00148195
0.00212488
-0.00072687
0.00931189
-0.00127238
0.00402681
-0.00138384
0.0028381
-0.00147455
0.00218171
-0.00155498
0.00160118
-0.00159694
0.000936794
-0.00147715
3.45189e-06
-0.00116398
-0.00111132
-0.000759176
-0.00208814
-0.000345234
-0.0027704
2.76846e-05
-0.003118
0.000333573
-0.00315385
0.000567591
-0.00294277
0.000744966
-0.00256381
0.000904847
-0.00207983
0.00108917
-0.00156371
0.00133207
-0.00110798
0.00150024
-0.000836598
0.00142137
-0.000768554
0.00127497
-0.000712968
0.00117214
-0.000586929
0.00110138
-0.000461679
0.00107035
-0.00035513
0.00109134
-0.000261676
0.00117211
-0.000202613
0.00126042
-0.000192431
0.00135673
-0.000196576
0.0014541
-0.000188015
0.00153796
-0.000146419
0.00158534
-5.31119e-05
0.00157022
9.75147e-05
0.00147764
0.000297545
0.00131241
0.000547595
0.00115566
0.000901952
0.000977913
0.00133811
0.000588119
0.00187176
0.000407951
0.00230508
-0.00102174
0.00142951
-0.00147471
0.000452787
-0.00142522
-0.000638471
0.0103631
-0.001028
0.00441636
-0.00063676
0.00244689
-0.000346924
0.0018919
-0.000158028
0.0014123
4.70355e-05
0.000731753
0.000371947
-0.000321439
0.000750455
-0.0014898
0.00107963
-0.00241729
0.00130891
-0.00299964
0.00142964
-0.0032387
0.00145931
-0.00318348
0.00142452
-0.00290796
0.00135084
-0.00249009
0.00127232
-0.00200129
0.00121709
-0.00150845
0.00118915
-0.00108001
0.00113793
-0.000785367
0.00100648
-0.000637081
0.000836813
-0.000543284
0.000701908
-0.000452008
0.000614733
-0.00037449
0.000577209
-0.000317592
0.000593249
-0.000277703
0.000653662
-0.000263014
0.000736003
-0.000274761
0.000832113
-0.000292675
0.00093764
-0.000293533
0.00104637
-0.000255141
0.00114649
-0.000153219
0.00121293
3.10843e-05
0.00123415
0.000276327
0.00122549
0.000556266
0.00123783
0.000889632
0.00132035
0.0012556
0.00148665
0.00170548
0.00190837
0.00188338
0.00216759
0.00117031
0.00178854
0.000831855
0.000422634
-0.000723043
0.0115432
-0.000636713
0.00433006
0.000429085
0.00138111
0.00107299
0.00124801
0.00150846
0.000976853
0.00200796
0.000232281
0.00253326
-0.000846719
0.00289558
-0.00185209
0.00304922
-0.00257089
0.0030083
-0.00295868
0.00281062
-0.00304098
0.00250625
-0.00287908
0.0021462
-0.00254788
0.00177294
-0.00211681
0.0014231
-0.00165143
0.00112045
-0.00120579
0.000870007
-0.000829549
0.000656042
-0.000571384
0.000449604
-0.000430626
0.000265467
-0.000359131
0.000128685
-0.000315212
4.44217e-05
-0.000290213
8.23703e-06
-0.000281396
1.59953e-05
-0.00028545
5.69254e-05
-0.000303933
0.000116839
-0.000334664
0.000189134
-0.000364961
0.000274719
-0.000379108
0.000378657
-0.00035907
0.000506476
-0.000281029
0.000652648
-0.00011508
0.00079773
0.000131253
0.000942651
0.000411354
0.00113334
0.000698951
0.00142103
0.000967928
0.00187395
0.00125257
0.00253934
0.00121801
0.00308498
0.000624678
0.00310557
0.000811291
0.00359142
0.0025388
0.0095154
0.00319956
0.00366932
0.00346362
0.00111708
0.00384142
0.000870233
0.00431055
0.00050774
0.00487983
-0.000336983
0.00526281
-0.00122967
0.00531642
-0.00190566
0.00505936
-0.00231378
0.00456465
-0.00246393
0.00391765
-0.00239394
0.00320003
-0.00216143
0.00248005
-0.00182787
0.0018025
-0.00143924
0.00120357
-0.00105248
0.000702222
-0.000704418
0.0003037
-0.00043101
4.41421e-06
-0.000272083
-0.00021807
-0.000208128
-0.000379149
-0.000198039
-0.000490767
-0.000203582
-0.00056296
-0.000218009
-0.000604531
-0.000239814
-0.000622076
-0.000267895
-0.000623818
-0.000302182
-0.000618451
-0.000340022
-0.00060948
-0.000373922
-0.000594274
-0.000394306
-0.000563183
-0.000390152
-0.000495494
-0.000348709
-0.000356354
-0.000254211
-0.000148194
-7.68976e-05
9.78181e-05
0.000165351
0.000388938
0.000407842
0.000735631
0.000621246
0.00117198
0.000816234
0.00160589
0.00078412
0.001752
0.000478579
0.000998212
0.0015651
0.0048543
0.0100768
0.0137389
0.0123652
0.00249089
0.0113659
0.0018695
0.0106307
0.00124296
0.00989218
0.000401593
0.00893401
-0.000271449
0.00779685
-0.000768434
0.00657202
-0.00108889
0.00532767
-0.00121953
0.00412106
-0.00118729
0.00300101
-0.00104136
0.00200543
-0.000832261
0.00113903
-0.000572818
0.000419707
-0.000333143
-0.000134607
-0.000150091
-0.000512725
-5.28791e-05
-0.000748732
-3.60633e-05
-0.000905398
-5.14499e-05
-0.00102287
-8.05594e-05
-0.00111473
-0.000111704
-0.00118973
-0.000143001
-0.00125468
-0.000174859
-0.00131544
-0.000207119
-0.00137877
-0.000238842
-0.00145196
-0.000266824
-0.00154127
-0.000284607
-0.00165276
-0.000282798
-0.00179389
-0.00024902
-0.00197435
-0.000168235
-0.00220303
-2.5519e-05
-0.00246745
0.000187528
-0.00278561
0.00048353
-0.00325108
0.000873317
-0.0039745
0.00134468
-0.00501452
0.00185627
-0.00647953
0.00224914
-0.00821614
0.00221521
-0.00764157
0.000990533
-0.00249311
0.00478374
0.00381797
0.0041979
0.0024555
0.00486631
0.000574727
0.00498965
0.000278432
0.00465069
6.76369e-05
0.00407642
-0.000194078
0.00335219
-0.000364608
0.00254012
-0.000407434
0.00170383
-0.000350988
0.000894228
-0.000231744
0.000140872
-7.88968e-05
-0.000494382
6.24401e-05
-0.000946405
0.000118888
-0.00122146
0.000124976
-0.00137609
0.000101759
-0.00147537
6.32287e-05
-0.0015527
2.58884e-05
-0.00162601
-7.23951e-06
-0.00170021
-3.74949e-05
-0.00177744
-6.57572e-05
-0.00186031
-9.19873e-05
-0.00195186
-0.000115559
-0.00205539
-0.000135299
-0.00217353
-0.000148676
-0.00230694
-0.000151184
-0.00245345
-0.000136278
-0.00260687
-9.55892e-05
-0.00275583
-1.92598e-05
-0.00288575
0.000104415
-0.00299186
0.000293651
-0.00308312
0.000574798
-0.00317069
0.000960902
-0.00325644
0.00143044
-0.0032895
0.00188935
-0.00319865
0.0021583
-0.00278376
0.00180033
-0.00151313
-0.000280082
-0.00392938
-0.000630582
0.00450645
0.000452786
0.00137224
0.000473215
0.000554367
0.000443307
0.000308376
0.000351332
0.000159615
0.000107965
4.92736e-05
-0.000276363
1.9682e-05
-0.000729808
4.5997e-05
-0.00117106
9.02628e-05
-0.00153782
0.000135013
-0.00178608
0.000169371
-0.00190832
0.000184688
-0.00196174
0.000172323
-0.00198057
0.00014381
-0.00198822
0.00010942
-0.00200114
7.61605e-05
-0.00202251
4.72698e-05
-0.00205229
2.25432e-05
-0.00209143
1.66081e-06
-0.00214119
-1.59886e-05
-0.00220198
-3.1192e-05
-0.00227357
-4.39563e-05
-0.00235497
-5.38844e-05
-0.00244382
-5.98201e-05
-0.00253544
-5.95472e-05
-0.00262203
-4.96791e-05
-0.00269195
-2.56564e-05
-0.00273003
1.8834e-05
-0.00271937
9.37701e-05
-0.00263553
0.000209828
-0.0024439
0.000383174
-0.0021185
0.000635517
-0.0016531
0.000965052
-0.00102781
0.00126408
-5.57703e-05
0.00118628
0.00120217
0.000542401
0.00154632
-0.000624217
-0.00229863
0.000762391
-0.0104082
-0.00585886
-0.00446362
-0.0038939
-0.00357419
-0.00340611
-0.00335056
-0.00332625
-0.00327684
-0.0031841
-0.00304736
-0.00287687
-0.00269156
-0.00251905
-0.00237537
-0.00226634
-0.00219074
-0.00214414
-0.00212235
-0.00212148
-0.00213829
-0.00217033
-0.00221515
-0.00226991
-0.00233061
-0.00239104
-0.0024416
-0.00246813
-0.00245016
-0.00235723
-0.00214824
-0.00176589
-0.00113121
-0.000167023
0.00109608
0.00228127
0.00282246
0.00219692
)
;

boundaryField
{
    floor
    {
        type            calculated;
        value           nonuniform List<scalar> 
29
(
0
0
0
0
0
0
0
0
0
0
0
0
0
0
0
0
0
0
0
0
-4.37926e-06
-1.07428e-05
-1.60797e-05
-2.09395e-05
-1.59686e-06
-3.16705e-06
-8.82092e-06
-9.00464e-06
-8.50964e-06
)
;
    }
    ceiling
    {
        type            calculated;
        value           nonuniform List<scalar> 
43
(
-2.1887e-05
-4.1622e-05
-4.28856e-05
-2.30029e-05
-1.53758e-05
-1.13573e-05
-8.47366e-06
-6.27748e-06
-4.63271e-06
-3.4083e-06
-2.46751e-06
-1.72125e-06
-1.11361e-06
-6.0828e-07
-1.88862e-07
1.45828e-07
3.94736e-07
5.67376e-07
6.80816e-07
7.53728e-07
8.013e-07
8.32975e-07
8.56405e-07
8.73753e-07
8.85799e-07
8.92929e-07
8.95355e-07
8.93166e-07
8.86263e-07
8.74141e-07
8.58362e-07
8.45652e-07
8.40281e-07
8.47987e-07
8.78989e-07
9.87693e-07
1.1064e-06
1.2261e-06
1.34129e-06
2.18924e-06
1.0174e-05
7.19017e-06
-5.78369e-05
)
;
    }
    sWall
    {
        type            calculated;
        value           uniform -0.000228354;
    }
    nWall
    {
        type            calculated;
        value           nonuniform List<scalar> 6(-4.9676e-05 -5.92846e-05 -6.3197e-05 -7.68441e-05 -8.44127e-05 -0.000103893);
    }
    sideWalls
    {
        type            empty;
        value           nonuniform 0();
    }
    glass1
    {
        type            calculated;
        value           nonuniform List<scalar> 9(-5.77058e-05 -0.000154903 -0.000236285 -0.000305197 -0.000363535 -0.00041274 -0.000457015 -0.000510962 -0.000571536);
    }
    glass2
    {
        type            calculated;
        value           nonuniform List<scalar> 2(-0.000264656 -0.000294137);
    }
    sun
    {
        type            calculated;
        value           uniform 0;
    }
    heatsource1
    {
        type            calculated;
        value           nonuniform List<scalar> 3(2.04411e-07 2.04319e-07 2.04333e-07);
    }
    heatsource2
    {
        type            calculated;
        value           nonuniform List<scalar> 4(5.11247e-08 5.12664e-08 0 0);
    }
    Table_master
    {
        type            calculated;
        value           nonuniform List<scalar> 9(-1.5328e-07 -1.53343e-07 -1.53367e-07 -1.53384e-07 -1.53395e-07 -1.53403e-07 -1.53406e-07 -1.53402e-07 -1.53375e-07);
    }
    Table_slave
    {
        type            calculated;
        value           nonuniform List<scalar> 9(1.53166e-07 1.53175e-07 1.53144e-07 1.53116e-07 1.53097e-07 1.53099e-07 1.53107e-07 1.53144e-07 1.53224e-07);
    }
    inlet
    {
        type            calculated;
        value           uniform -0.00611075;
    }
    outlet
    {
        type            calculated;
        value           nonuniform List<scalar> 2(-0.000512144 0.0112122);
    }
}


// ************************************************************************* //
