/*--------------------------------*- C++ -*----------------------------------*\
  =========                 |
  \\      /  F ield         | OpenFOAM: The Open Source CFD Toolbox
   \\    /   O peration     | Website:  https://openfoam.org
    \\  /    A nd           | Version:  6
     \\/     M anipulation  |
\*---------------------------------------------------------------------------*/
FoamFile
{
    version     2.0;
    format      ascii;
    class       volScalarField;
    location    "1700";
    object      nut;
}
// * * * * * * * * * * * * * * * * * * * * * * * * * * * * * * * * * * * * * //

dimensions      [0 2 -1 0 0 0 0];

internalField   nonuniform List<scalar> 
459
(
0.00247896
0.00238339
0.00229079
0.0022109
0.00214351
0.00208506
0.00203306
0.00198493
0.00193838
0.00189134
0.00184161
0.00178636
0.00172107
0.00163615
0.00152424
0.000202722
0.000213126
0.000219363
0.000206415
0.000192775
0.00018101
0.000164109
0.000152022
0.00014701
0.000151668
0.000163007
0.000181089
0.000204058
0.000217473
0.000219776
0.000228563
0.000241995
0.000234119
0.000215135
0.0028095
0.00305879
0.00306443
0.00296949
0.00291211
0.00289533
0.00290253
0.00289535
0.00286243
0.00280193
0.00271295
0.00259235
0.00242808
0.00218065
0.00184368
0.00144736
0.00125826
0.000318162
0.000496034
0.000618127
0.000727118
0.00076791
0.000591332
0.000247225
0.000194093
0.000207111
0.000260832
0.000352851
0.000472021
0.000594351
0.000687214
0.000758969
0.000922813
0.000777706
0.000562373
0.000266421
0.00301896
0.00338891
0.00310962
0.00280339
0.00269141
0.00270168
0.00277424
0.00286046
0.0029284
0.0029598
0.00294214
0.00286586
0.00271949
0.00247474
0.00215585
0.00185939
0.00126709
0.000481693
0.00133997
0.00135156
0.00126321
0.00109281
0.000857379
0.000302024
0.000206326
0.000214223
0.000239778
0.00026781
0.000299969
0.000338592
0.000388171
0.000461817
0.0014378
0.00151294
0.00131087
0.000429794
0.00318021
0.00365618
0.00282253
0.00229253
0.00228844
0.00249594
0.00274779
0.00293024
0.00303401
0.00306947
0.00305273
0.00298504
0.00285367
0.00262639
0.00232952
0.00205805
0.00157345
0.00072254
0.00178559
0.00181437
0.00156549
0.00125328
0.000950287
0.000698721
0.000519636
0.000536757
0.000555454
0.000573513
0.000591496
0.00061229
0.00063925
0.000677306
0.000736734
0.00220818
0.00234423
0.0021288
0.000675669
0.0033261
0.00377068
0.00229229
0.00192676
0.00271031
0.00346
0.00390957
0.00395215
0.00366194
0.00337785
0.00318442
0.0030441
0.00289239
0.00266061
0.00236176
0.00209161
0.00173317
0.00179438
0.00243547
0.00269746
0.00261648
0.00253432
0.00251182
0.00255906
0.00266305
0.00279871
0.00286545
0.00287395
0.00285653
0.00282649
0.00279925
0.0027921
0.00282101
0.00290802
0.00284232
0.00271388
0.00245493
0.000970759
0.00084071
0.000724503
0.00347677
0.00372052
0.00180037
0.00233505
0.00381021
0.00431904
0.00445319
0.00433448
0.00381863
0.00341334
0.00316189
0.00299111
0.00281788
0.00258118
0.00231376
0.00209944
0.00193953
0.00252539
0.00318101
0.0035406
0.00361839
0.00369981
0.00380933
0.00393525
0.00405665
0.00414732
0.00417831
0.00416353
0.00410146
0.00398851
0.00383014
0.0036454
0.00345776
0.00327659
0.00309032
0.00288397
0.00260995
0.00216915
0.00161815
0.000748023
0.00365364
0.00356477
0.00180015
0.00213926
0.00358283
0.00390712
0.00384589
0.00369356
0.00345817
0.003208
0.00301038
0.00284952
0.00267994
0.00247269
0.00226956
0.00215981
0.00222559
0.00319158
0.00386339
0.00416175
0.00432551
0.00448197
0.00462899
0.00475683
0.00485948
0.00493631
0.00498953
0.00502229
0.00502296
0.00496667
0.00482269
0.00457553
0.00424682
0.00388087
0.0035065
0.00312246
0.00270146
0.00221524
0.00166423
0.000795388
0.0039023
0.00381071
0.00245133
0.00157109
0.00281261
0.0032351
0.00319906
0.00312148
0.00305139
0.00294194
0.00282301
0.00270202
0.00256621
0.00241227
0.00228659
0.00229409
0.00257615
0.00378266
0.00440146
0.0047147
0.0049572
0.00514102
0.00527628
0.00536539
0.00542041
0.00546253
0.0055082
0.00556922
0.00564919
0.00573718
0.00579742
0.0057665
0.0055832
0.00523784
0.00475674
0.00419533
0.0036159
0.00305396
0.00258536
0.00143269
0.00431806
0.00492944
0.00475445
0.00211951
0.00236589
0.0029327
0.00295014
0.00288772
0.00283575
0.00279046
0.00273222
0.00266115
0.00257397
0.00247624
0.00241352
0.00250858
0.0029577
0.00417128
0.00485043
0.00531664
0.00562347
0.00581878
0.00591298
0.00593275
0.00591328
0.0058845
0.00586736
0.00587747
0.0059276
0.00602749
0.0061784
0.00635969
0.00650627
0.00658935
0.00661713
0.00659469
0.00639795
0.00585902
0.00525177
0.00153521
0.00763448
0.00318333
0.00295949
0.00322293
0.00321491
0.00316634
0.00308367
0.00300648
0.00295615
0.00291248
0.0028613
0.00280174
0.00277348
0.00292211
0.00351666
0.00443944
0.0052787
0.00590172
0.00629319
0.00651308
0.00658541
0.00655792
0.00648016
0.00639028
0.00631337
0.00626427
0.00625138
0.0062795
0.00634998
0.00645588
0.00657313
0.00666568
0.00668647
0.00658858
0.00631803
0.00580519
0.00482186
0.00158661
0.00341046
0.00284657
0.00388953
0.00373193
0.00358023
0.00338792
0.00319695
0.00300534
0.00291719
0.00288912
0.00288303
0.00287251
0.0028683
0.00296662
0.00338292
0.00412756
0.00503926
0.0059277
0.00654624
0.00685579
0.00692671
0.00686073
0.00674241
0.00662568
0.00653706
0.00648374
0.0064613
0.00645972
0.0064668
0.00646922
0.00645106
0.00639448
0.00627634
0.00606124
0.00570178
0.00512724
0.00442315
0.00171158
0.00123578
0.00122395
0.00209584
0.00139038
0.00123861
0.00120549
0.00119885
0.0011993
0.00120544
0.00121609
0.00122477
0.00123464
0.00124537
0.00125453
0.00125829
0.00124549
0.00123458
0.00124371
0.00127483
0.00132638
0.00139973
0.00146847
0.00151763
0.00154452
0.00155336
0.00155046
0.00154157
0.0015309
0.00152084
0.00151222
0.00150466
0.00149706
0.00148799
0.00147609
0.00145998
0.00143725
0.00140285
0.00134659
0.00129426
0.0012786
)
;

boundaryField
{
    floor
    {
        type            nutkWallFunction;
        Cmu             0.09;
        kappa           0.41;
        E               9.8;
        value           nonuniform List<scalar> 
29
(
0.000181
1.97497e-05
2.12414e-05
2.21312e-05
2.02808e-05
1.83136e-05
1.66011e-05
1.41139e-05
1.23123e-05
1.15611e-05
1.22611e-05
1.39514e-05
1.66132e-05
1.99415e-05
2.18614e-05
2.21894e-05
2.34369e-05
2.53316e-05
2.42234e-05
2.15302e-05
2.15301e-05
2.87354e-05
5.06286e-05
8.17193e-05
0.000181
1.97496e-05
3.58236e-05
5.73493e-05
8.74825e-05
)
;
    }
    ceiling
    {
        type            nutkWallFunction;
        Cmu             0.09;
        kappa           0.41;
        E               9.8;
        value           nonuniform List<scalar> 
43
(
0.000148275
0.000146908
0.000244109
0.000165854
0.000148518
0.000144705
0.000143938
0.000143991
0.0001447
0.000145928
0.000146927
0.000148063
0.000149297
0.000150348
0.000150779
0.000149305
0.000148048
0.000149096
0.000152666
0.00015856
0.000166902
0.000174676
0.000180211
0.00018323
0.00018422
0.000183894
0.000182896
0.000181697
0.000180566
0.000179596
0.000178745
0.000177889
0.000176866
0.000175524
0.000173706
0.000171138
0.000167243
0.000160848
0.000154876
0.000153084
0.000475538
0.000536751
0.000382967
)
;
    }
    sWall
    {
        type            nutkWallFunction;
        Cmu             0.09;
        kappa           0.41;
        E               9.8;
        value           uniform 0.0001483;
    }
    nWall
    {
        type            nutkWallFunction;
        Cmu             0.09;
        kappa           0.41;
        E               9.8;
        value           nonuniform List<scalar> 6(8.77221e-05 9.05956e-05 9.63429e-05 0.000187943 0.00020186 0.000153093);
    }
    sideWalls
    {
        type            empty;
    }
    glass1
    {
        type            nutkWallFunction;
        Cmu             0.09;
        kappa           0.41;
        E               9.8;
        value           nonuniform List<scalar> 9(0.000285599 0.000320662 0.000342656 0.000359478 0.000374621 0.000390189 0.000408376 0.000433797 0.000475943);
    }
    glass2
    {
        type            nutkWallFunction;
        Cmu             0.09;
        kappa           0.41;
        E               9.8;
        value           nonuniform List<scalar> 2(0.000170649 0.000182207);
    }
    sun
    {
        type            nutkWallFunction;
        Cmu             0.09;
        kappa           0.41;
        E               9.8;
        value           nonuniform List<scalar> 
14
(
0.000285343
0.000275118
0.000265173
0.00025656
0.000249271
0.000242928
0.000237268
0.000232017
0.000226926
0.000221767
0.000216298
0.000210204
0.000202976
0.00019353
)
;
    }
    heatsource1
    {
        type            nutkWallFunction;
        Cmu             0.09;
        kappa           0.41;
        E               9.8;
        value           nonuniform List<scalar> 3(0.000117305 0.000101808 8.77229e-05);
    }
    heatsource2
    {
        type            nutkWallFunction;
        Cmu             0.09;
        kappa           0.41;
        E               9.8;
        value           nonuniform List<scalar> 4(0.000172339 0.000150796 0.000150796 0.000151809);
    }
    Table_master
    {
        type            nutkWallFunction;
        Cmu             0.09;
        kappa           0.41;
        E               9.8;
        value           nonuniform List<scalar> 9(3.36303e-05 2.02697e-05 2.14012e-05 2.50198e-05 2.89299e-05 3.33492e-05 3.85763e-05 4.51752e-05 5.47858e-05);
    }
    Table_slave
    {
        type            nutkWallFunction;
        Cmu             0.09;
        kappa           0.41;
        E               9.8;
        value           nonuniform List<scalar> 9(6.21888e-05 6.43639e-05 6.67297e-05 6.90056e-05 7.12632e-05 7.38633e-05 7.72187e-05 8.19263e-05 8.92152e-05);
    }
    inlet
    {
        type            calculated;
        value           uniform 0.00763448;
    }
    outlet
    {
        type            calculated;
        value           nonuniform List<scalar> 2(0.00123578 0.00122395);
    }
}


// ************************************************************************* //
