/*--------------------------------*- C++ -*----------------------------------*\
  =========                 |
  \\      /  F ield         | OpenFOAM: The Open Source CFD Toolbox
   \\    /   O peration     | Website:  https://openfoam.org
    \\  /    A nd           | Version:  6
     \\/     M anipulation  |
\*---------------------------------------------------------------------------*/
FoamFile
{
    version     2.0;
    format      ascii;
    class       volVectorField;
    location    "1400";
    object      U;
}
// * * * * * * * * * * * * * * * * * * * * * * * * * * * * * * * * * * * * * //

dimensions      [0 1 -1 0 0 0 0];

internalField   nonuniform List<vector> 
459
(
(0.0331167 0.0854074 0)
(-0.166013 0.025622 0)
(-0.190511 0.0178291 0)
(-0.22109 0.0123365 0)
(-0.243422 0.00633085 0)
(-0.256672 3.17127e-05 0)
(-0.259514 -0.0066166 0)
(-0.250719 -0.0136181 0)
(-0.230942 -0.0205101 0)
(-0.201611 -0.026244 0)
(-0.165693 -0.0299775 0)
(-0.126597 -0.0314398 0)
(-0.0875691 -0.0311561 0)
(-0.0533803 -0.0307835 0)
(-0.037744 -0.0320666 0)
(-0.00248432 0.00738983 0)
(-0.0222546 -0.0175089 0)
(0.00147513 -0.0261881 0)
(0.0223119 -0.0194045 0)
(0.0379805 -0.0130235 0)
(0.0495388 -0.00830666 0)
(0.0563531 -0.00497876 0)
(0.0597419 -0.00323612 0)
(0.0612743 -0.0024829 0)
(0.0620709 -0.00211862 0)
(0.0625726 -0.00188946 0)
(0.0628418 -0.00170648 0)
(0.062809 -0.00147084 0)
(0.0622567 -0.00101752 0)
(0.0606159 3.40681e-05 0)
(0.0566835 0.0022304 0)
(0.0491363 0.00461644 0)
(0.0413493 0.00666388 0)
(-0.0105018 0.0203566 0)
(0.20548 0.174503 0)
(-0.154269 0.0670533 0)
(-0.152506 0.0520934 0)
(-0.183732 0.040658 0)
(-0.205535 0.0278654 0)
(-0.218744 0.013707 0)
(-0.222019 -0.00207824 0)
(-0.213932 -0.0190608 0)
(-0.19566 -0.0351376 0)
(-0.169008 -0.0478073 0)
(-0.13717 -0.0552815 0)
(-0.103558 -0.0570836 0)
(-0.0713966 -0.0538876 0)
(-0.0444459 -0.0472802 0)
(-0.0273281 -0.0384379 0)
(-0.0137442 -0.0188658 0)
(-0.00719299 0.0131767 0)
(0.0602834 0.0312046 0)
(0.0315959 -0.0198355 0)
(0.0385856 -0.0305137 0)
(0.0493386 -0.0258372 0)
(0.05774 -0.0177499 0)
(0.0632748 -0.0103721 0)
(0.065445 -0.00426902 0)
(0.0657505 -0.000883872 0)
(0.0656639 0.000566919 0)
(0.0657446 0.00124212 0)
(0.0659051 0.00165809 0)
(0.0660185 0.00201072 0)
(0.0660463 0.0024925 0)
(0.0659331 0.0034271 0)
(0.0651456 0.00571598 0)
(0.0612635 0.0120379 0)
(0.0515036 0.0174267 0)
(0.0451997 0.0212474 0)
(-0.044007 0.0439844 0)
(0.363377 0.260751 0)
(-0.170034 0.106345 0)
(-0.113925 0.0838325 0)
(-0.143707 0.0634863 0)
(-0.162669 0.0424977 0)
(-0.174505 0.0195969 0)
(-0.177059 -0.00599782 0)
(-0.168072 -0.0331199 0)
(-0.149784 -0.0580213 0)
(-0.124761 -0.0766473 0)
(-0.0964827 -0.0865992 0)
(-0.0679183 -0.0877462 0)
(-0.0413642 -0.0812371 0)
(-0.0190299 -0.0686339 0)
(-0.00275934 -0.0509859 0)
(0.00971212 -0.0253594 0)
(0.0164648 0.00896494 0)
(0.105545 -0.0393593 0)
(0.0728562 -0.0431795 0)
(0.0689234 -0.0393877 0)
(0.0711122 -0.0315228 0)
(0.0726518 -0.0223622 0)
(0.0734614 -0.014683 0)
(0.0717227 -0.0119715 0)
(0.0677499 -0.00856932 0)
(0.065024 -0.00672638 0)
(0.0638015 -0.0056786 0)
(0.0632717 -0.00502001 0)
(0.0630093 -0.00456785 0)
(0.0630513 -0.00411889 0)
(0.0638787 -0.00331806 0)
(0.0667018 -0.000194711 0)
(0.06465 0.0170195 0)
(0.0513749 0.0292184 0)
(0.0508513 0.0378437 0)
(-0.0735056 0.0690667 0)
(0.50541 0.32992 0)
(-0.203416 0.140988 0)
(-0.0737304 0.110375 0)
(-0.101266 0.0823754 0)
(-0.114396 0.0554621 0)
(-0.12227 0.0255258 0)
(-0.121158 -0.00952969 0)
(-0.108849 -0.0471679 0)
(-0.0897384 -0.0801179 0)
(-0.0670943 -0.103138 0)
(-0.0441308 -0.114026 0)
(-0.0226564 -0.113772 0)
(-0.00345416 -0.104171 0)
(0.0129378 -0.0869568 0)
(0.0263527 -0.0650412 0)
(0.0406928 -0.0390565 0)
(0.0627871 -0.0124636 0)
(0.0933025 -1.49249e-05 0)
(0.100968 -0.0330129 0)
(0.0874238 -0.0382693 0)
(0.078893 -0.0340362 0)
(0.0747605 -0.0277482 0)
(0.0720747 -0.02035 0)
(0.0708266 -0.0117789 0)
(0.0726053 -0.00691905 0)
(0.0767297 -0.00547722 0)
(0.0801405 -0.00466896 0)
(0.0824576 -0.00403535 0)
(0.0838691 -0.00320868 0)
(0.0838048 -0.00194181 0)
(0.0812155 -1.93928e-05 0)
(0.0748679 0.00284859 0)
(0.0619731 0.0071896 0)
(0.0510251 0.0274323 0)
(0.0403577 0.0442118 0)
(0.0537417 0.0577167 0)
(-0.104032 0.0918531 0)
(0.627375 0.383409 0)
(-0.244174 0.169215 0)
(-0.0347135 0.125032 0)
(-0.0572094 0.0925557 0)
(-0.061972 0.062338 0)
(-0.0627454 0.0275284 0)
(-0.0518915 -0.0161475 0)
(-0.0340087 -0.0630594 0)
(-0.0150955 -0.100608 0)
(0.00260182 -0.124413 0)
(0.0171074 -0.133168 0)
(0.0284816 -0.129898 0)
(0.0372545 -0.117647 0)
(0.0441402 -0.0989486 0)
(0.0502719 -0.0764724 0)
(0.057621 -0.0528694 0)
(0.0687775 -0.0335871 0)
(0.079231 -0.0289286 0)
(0.0808143 -0.0347313 0)
(0.074292 -0.0334935 0)
(0.0663063 -0.0285278 0)
(0.060223 -0.022959 0)
(0.0559532 -0.0172215 0)
(0.0537114 -0.0113483 0)
(0.0538537 -0.00623799 0)
(0.0560176 -0.00389778 0)
(0.0584252 -0.00305754 0)
(0.0607673 -0.00233979 0)
(0.0629344 -0.000808762 0)
(0.064539 0.0020655 0)
(0.0644147 0.00639822 0)
(0.0619831 0.0123605 0)
(0.0565567 0.020593 0)
(0.0499853 0.0359913 0)
(0.0409633 0.0544819 0)
(0.0619807 0.0749356 0)
(-0.0172566 0.104093 0)
(0.045448 0.0339332 0)
(-0.0611959 -0.034321 0)
(-0.26895 -0.0566226 0)
(0.71504 0.427943 0)
(-0.283466 0.188037 0)
(-0.00566759 0.119882 0)
(-0.0118099 0.0916627 0)
(-0.00500592 0.0623602 0)
(0.0051724 0.0208615 0)
(0.033792 -0.0334084 0)
(0.0548668 -0.081637 0)
(0.069708 -0.116054 0)
(0.0782704 -0.135258 0)
(0.0813219 -0.140445 0)
(0.0803464 -0.134326 0)
(0.0767148 -0.11993 0)
(0.0718334 -0.100242 0)
(0.0671783 -0.0781628 0)
(0.0641107 -0.0563842 0)
(0.0635201 -0.0386319 0)
(0.0630482 -0.0294818 0)
(0.0590223 -0.0271254 0)
(0.0514282 -0.0249461 0)
(0.0432178 -0.021317 0)
(0.0366535 -0.0173344 0)
(0.0321619 -0.0134714 0)
(0.0299118 -0.00980141 0)
(0.0298743 -0.00696939 0)
(0.0315688 -0.00604123 0)
(0.0340753 -0.00603473 0)
(0.037055 -0.00574113 0)
(0.0403399 -0.00419609 0)
(0.0437129 -0.000572971 0)
(0.0466731 0.00540075 0)
(0.0482105 0.0134183 0)
(0.0485414 0.0236755 0)
(0.0490825 0.0379499 0)
(0.0483902 0.0558546 0)
(0.0703886 0.0786623 0)
(0.0522404 0.0971392 0)
(0.0915008 0.0681972 0)
(0.114483 0.0445591 0)
(-0.128117 -0.00727763 0)
(0.767881 0.468554 0)
(-0.302034 0.173435 0)
(0.0220095 0.067735 0)
(0.0494352 0.062991 0)
(0.0700797 0.0440901 0)
(0.102839 -0.00339802 0)
(0.134624 -0.0570656 0)
(0.152987 -0.0981479 0)
(0.159055 -0.123973 0)
(0.154903 -0.135505 0)
(0.143156 -0.134887 0)
(0.12667 -0.12496 0)
(0.107987 -0.108623 0)
(0.0892624 -0.0887931 0)
(0.0722475 -0.0680598 0)
(0.0580521 -0.0484943 0)
(0.0471885 -0.0327514 0)
(0.0385477 -0.0232087 0)
(0.0301437 -0.0189057 0)
(0.0216154 -0.0165247 0)
(0.0139645 -0.014225 0)
(0.00816042 -0.0120773 0)
(0.00440103 -0.0102479 0)
(0.00267921 -0.00876014 0)
(0.0028291 -0.00795816 0)
(0.00434265 -0.00824451 0)
(0.00660697 -0.00897398 0)
(0.00940677 -0.00926842 0)
(0.0127969 -0.00827781 0)
(0.0169049 -0.00503426 0)
(0.022679 0.00144431 0)
(0.0283818 0.0102262 0)
(0.0338224 0.0205709 0)
(0.0408235 0.0331647 0)
(0.0486483 0.0477774 0)
(0.0704357 0.0661451 0)
(0.0840417 0.0744343 0)
(0.115932 0.0524011 0)
(0.155425 0.0439547 0)
(-0.0359775 0.0925711 0)
(0.872676 0.469922 0)
(-0.0644365 0.152094 0)
(0.109921 -0.0138381 0)
(0.181647 -0.0409399 0)
(0.212071 -0.0525676 0)
(0.243553 -0.0750982 0)
(0.261384 -0.0974172 0)
(0.262231 -0.113328 0)
(0.24767 -0.120856 0)
(0.221776 -0.120046 0)
(0.189043 -0.112124 0)
(0.153505 -0.0989018 0)
(0.118312 -0.082133 0)
(0.0858567 -0.0640036 0)
(0.0577528 -0.0464373 0)
(0.0346281 -0.0306452 0)
(0.0172735 -0.0187768 0)
(0.00476816 -0.0121416 0)
(-0.00481856 -0.00955401 0)
(-0.012144 -0.00877507 0)
(-0.0179565 -0.00835288 0)
(-0.0221865 -0.00813031 0)
(-0.024943 -0.00812548 0)
(-0.0263787 -0.00837511 0)
(-0.0267218 -0.0090145 0)
(-0.026384 -0.0101248 0)
(-0.0257532 -0.0113778 0)
(-0.0249331 -0.0123113 0)
(-0.0237559 -0.0124371 0)
(-0.0218257 -0.0111861 0)
(-0.0181645 -0.00780754 0)
(-0.00949773 -0.00161793 0)
(-0.00123114 0.00634201 0)
(0.00930224 0.0144655 0)
(0.0209802 0.0214982 0)
(0.0407286 0.0288055 0)
(0.0597132 0.0223298 0)
(0.0796685 -0.00475906 0)
(0.13831 0.0391805 0)
(-0.405239 0.202619 0)
(1.01962 0.423017 0)
(0.485047 0.279556 0)
(0.499882 0.18307 0)
(0.52625 0.111837 0)
(0.507256 0.0605804 0)
(0.465397 0.0134397 0)
(0.416677 -0.0258888 0)
(0.363145 -0.0528451 0)
(0.305094 -0.0666302 0)
(0.245429 -0.0692449 0)
(0.187616 -0.0640593 0)
(0.134251 -0.0542367 0)
(0.0869014 -0.0416584 0)
(0.047131 -0.0285423 0)
(0.0150244 -0.0167016 0)
(-0.0104175 -0.00721495 0)
(-0.0253944 -0.00295694 0)
(-0.0346259 -0.00191434 0)
(-0.0408379 -0.00241216 0)
(-0.0456513 -0.00339595 0)
(-0.0495891 -0.00439954 0)
(-0.0527895 -0.0053956 0)
(-0.0553653 -0.00639954 0)
(-0.0574816 -0.00744559 0)
(-0.0593791 -0.00857614 0)
(-0.0614076 -0.00978299 0)
(-0.063914 -0.0108476 0)
(-0.0671882 -0.0114007 0)
(-0.0715398 -0.0109225 0)
(-0.0773953 -0.00871357 0)
(-0.0853022 -0.00395275 0)
(-0.0952146 0.0039095 0)
(-0.105336 0.0143525 0)
(-0.120147 0.0276228 0)
(-0.14338 0.0438526 0)
(-0.177542 0.0619731 0)
(-0.225976 0.0781197 0)
(-0.281671 0.0897307 0)
(-0.349635 0.0967506 0)
(-0.609213 0.0997337 0)
(-0.150995 0.00207364 0)
(0.121472 0.0019571 0)
(0.200724 -0.0313322 0)
(0.18767 -0.041537 0)
(0.171594 -0.0397519 0)
(0.149531 -0.0350159 0)
(0.120103 -0.0289267 0)
(0.0863782 -0.0216345 0)
(0.0518624 -0.0136094 0)
(0.0170435 -0.00546337 0)
(-0.0164344 0.00213624 0)
(-0.038885 0.00647414 0)
(-0.0543791 0.00882825 0)
(-0.0636629 0.00934319 0)
(-0.0687909 0.00852586 0)
(-0.0723484 0.00760591 0)
(-0.0751538 0.00686014 0)
(-0.0776396 0.00628946 0)
(-0.0801258 0.0057932 0)
(-0.0827426 0.00511121 0)
(-0.0854718 0.00432135 0)
(-0.0883971 0.00344621 0)
(-0.0916425 0.00254821 0)
(-0.0953473 0.00174857 0)
(-0.0995836 0.00130001 0)
(-0.104346 0.00151725 0)
(-0.109563 0.00272405 0)
(-0.115061 0.00522655 0)
(-0.120228 0.00954269 0)
(-0.124342 0.0165661 0)
(-0.127758 0.0274037 0)
(-0.130689 0.0424443 0)
(-0.133797 0.0608821 0)
(-0.137516 0.0793053 0)
(-0.138803 0.0882008 0)
(-0.121357 0.0671034 0)
(-0.0783008 -0.0230726 0)
(-0.2739 -0.19838 0)
(0.0152147 0.194688 0)
(0.0412694 0.070473 0)
(0.000335366 0.00602773 0)
(-0.0125385 -0.00206969 0)
(-0.0257741 -0.000140406 0)
(-0.0406119 0.000116178 0)
(-0.0568437 0.00118294 0)
(-0.0723359 0.00342098 0)
(-0.084592 0.00554251 0)
(-0.0913847 0.0059094 0)
(-0.0957251 0.0040202 0)
(-0.0975397 4.47257e-05 0)
(-0.0978567 -0.00448351 0)
(-0.0973271 -0.00936148 0)
(-0.0968557 -0.014583 0)
(-0.0969805 -0.0196791 0)
(-0.0977273 -0.0243545 0)
(-0.0989968 -0.0283427 0)
(-0.100661 -0.0314427 0)
(-0.102645 -0.0335532 0)
(-0.105005 -0.0348182 0)
(-0.10765 -0.0352112 0)
(-0.110486 -0.0346963 0)
(-0.113435 -0.0334941 0)
(-0.116381 -0.0316216 0)
(-0.119087 -0.0288493 0)
(-0.121176 -0.0247593 0)
(-0.122174 -0.0187394 0)
(-0.121649 -0.0108618 0)
(-0.118721 -0.000810508 0)
(-0.112028 0.0121419 0)
(-0.100291 0.028644 0)
(-0.0830704 0.0482083 0)
(-0.0611223 0.0669111 0)
(-0.0373251 0.0778187 0)
(0.00254893 0.0618898 0)
(0.142728 -0.00826992 0)
(-0.204785 -0.108534 0)
(-0.0435998 -0.319883 0)
(-0.413214 -0.123177 0)
(-0.30124 0.0644345 0)
(-0.249665 -0.0172869 0)
(-0.209814 -0.0227747 0)
(-0.198498 -0.0118156 0)
(-0.194013 -0.00216533 0)
(-0.19054 0.00582775 0)
(-0.186034 0.0133278 0)
(-0.179584 0.0207853 0)
(-0.171016 0.0282813 0)
(-0.160643 0.0357198 0)
(-0.149595 0.0429377 0)
(-0.139028 0.0499284 0)
(-0.129734 0.056973 0)
(-0.121991 0.0640166 0)
(-0.115846 0.0710097 0)
(-0.111129 0.0777268 0)
(-0.107598 0.0837517 0)
(-0.10505 0.0886825 0)
(-0.103307 0.0922546 0)
(-0.102217 0.0943225 0)
(-0.101694 0.0949808 0)
(-0.101692 0.0942022 0)
(-0.102162 0.0919779 0)
(-0.10302 0.0887474 0)
(-0.10414 0.0847818 0)
(-0.105304 0.0801804 0)
(-0.106129 0.0749851 0)
(-0.105943 0.0692921 0)
(-0.103486 0.0643534 0)
(-0.0969269 0.0610721 0)
(-0.0839034 0.0603231 0)
(-0.0626246 0.0630519 0)
(-0.0335516 0.069782 0)
(0.0121861 0.0796035 0)
(0.0551645 0.0805486 0)
(0.0959593 0.0677931 0)
(0.16088 0.0421245 0)
(-0.23162 -0.00797967 0)
)
;

boundaryField
{
    floor
    {
        type            noSlip;
    }
    ceiling
    {
        type            noSlip;
    }
    sWall
    {
        type            noSlip;
    }
    nWall
    {
        type            noSlip;
    }
    sideWalls
    {
        type            empty;
    }
    glass1
    {
        type            noSlip;
    }
    glass2
    {
        type            noSlip;
    }
    sun
    {
        type            noSlip;
    }
    heatsource1
    {
        type            noSlip;
    }
    heatsource2
    {
        type            noSlip;
    }
    Table_master
    {
        type            noSlip;
    }
    Table_slave
    {
        type            noSlip;
    }
    inlet
    {
        type            fixedValue;
        value           uniform (0.277164 -0.114805 0);
    }
    outlet
    {
        type            zeroGradient;
    }
}


// ************************************************************************* //
