/*--------------------------------*- C++ -*----------------------------------*\
  =========                 |
  \\      /  F ield         | OpenFOAM: The Open Source CFD Toolbox
   \\    /   O peration     | Website:  https://openfoam.org
    \\  /    A nd           | Version:  6
     \\/     M anipulation  |
\*---------------------------------------------------------------------------*/
FoamFile
{
    version     2.0;
    format      ascii;
    class       volScalarField;
    location    "270";
    object      alphat;
}
// * * * * * * * * * * * * * * * * * * * * * * * * * * * * * * * * * * * * * //

dimensions      [1 -1 -1 0 0 0 0];

internalField   nonuniform List<scalar> 
459
(
0.00224992
0.00252672
0.0024734
0.00231175
0.00213548
0.00197566
0.00183696
0.00171314
0.00160029
0.00149541
0.00139581
0.00129857
0.00119975
0.0010921
0.000976435
0.000752307
0.000996248
0.000922897
0.000849288
0.000784477
0.000725715
0.000672791
0.000626948
0.000587141
0.000552447
0.00052204
0.00049523
0.00047129
0.000449279
0.000428112
0.000406459
0.000386709
0.000376207
0.000472082
0.00265495
0.00801384
0.00706122
0.00622196
0.00559449
0.00511098
0.00468106
0.00429196
0.00392635
0.00356892
0.0032027
0.00280989
0.0023767
0.00189318
0.00141166
0.000932881
0.000799462
0.000973005
0.0030733
0.00257454
0.00252532
0.00245541
0.0022879
0.00190437
0.00163921
0.00144719
0.00130097
0.00118584
0.0010909
0.00100118
0.000908291
0.000809664
0.000723418
0.000768484
0.000841935
0.00061777
0.00281288
0.0100777
0.00778483
0.00642562
0.00573922
0.00540631
0.00518513
0.00497323
0.00472315
0.00441386
0.00403393
0.00357819
0.00305179
0.00247347
0.00189909
0.00136223
0.000806563
0.000956816
0.00252736
0.00294491
0.00321531
0.00325294
0.00288644
0.000840263
0.000727321
0.000641755
0.000575349
0.000522721
0.000480437
0.00044721
0.000422377
0.000406597
0.000480088
0.000713275
0.00109589
0.000730002
0.00280061
0.0099692
0.00708767
0.00546686
0.00504668
0.00513164
0.00520666
0.00517243
0.00502472
0.0047674
0.00440654
0.00395215
0.00342203
0.00285105
0.00227899
0.00173318
0.00122559
0.000855115
0.00195544
0.00280308
0.0035165
0.00389883
0.00396571
0.00345954
0.000922784
0.000823709
0.000742144
0.000671464
0.00060741
0.000546871
0.000486984
0.000424842
0.000355881
0.000538651
0.000691962
0.00137829
0.000863047
0.00275268
0.00843853
0.00587999
0.00475081
0.00497675
0.00522505
0.00530677
0.00529311
0.0051776
0.00496126
0.00465229
0.00425929
0.00379224
0.00331796
0.0028622
0.00249618
0.00232898
0.00298317
0.00388456
0.0045806
0.00492122
0.00498953
0.00489226
0.00458319
0.00354484
0.00296947
0.00251671
0.00212068
0.00175729
0.00142062
0.00110937
0.000855647
0.000757068
0.00103413
0.000951517
0.00140305
0.00125925
0.000921254
0.00101072
0.00139092
0.00265399
0.00674101
0.00473264
0.00460234
0.00531779
0.00555081
0.00556541
0.00552365
0.00542623
0.00527018
0.00506178
0.0048136
0.00454489
0.00429425
0.00408952
0.00409511
0.00441496
0.00526464
0.0057331
0.00589983
0.00584847
0.0056701
0.00544178
0.00511476
0.00449177
0.00388155
0.0033132
0.00277699
0.00226955
0.00186226
0.00159458
0.00152352
0.00169241
0.00202163
0.00206343
0.00207666
0.00159597
0.00154372
0.00222444
0.00189247
0.00250877
0.00534745
0.00405994
0.00466374
0.0055278
0.00580889
0.00581489
0.00577265
0.0057061
0.00561727
0.00551538
0.00541733
0.005346
0.00532833
0.00540179
0.00562103
0.00601042
0.00639671
0.00645849
0.00630198
0.00602125
0.00569686
0.00534296
0.00492632
0.0044456
0.00394837
0.00346428
0.00301855
0.00264574
0.00240419
0.00233983
0.00248745
0.00282987
0.00317834
0.00323735
0.00290987
0.00208938
0.00240327
0.0042582
0.00254125
0.00230514
0.00401783
0.00357501
0.00502265
0.0055875
0.00577894
0.00577474
0.00576569
0.0057597
0.00574956
0.00573911
0.00574139
0.00577563
0.00584525
0.00597152
0.00614814
0.00633231
0.00640638
0.00630656
0.00606172
0.0057273
0.00535859
0.00495879
0.00456751
0.00420304
0.00386796
0.00357514
0.00334928
0.00322261
0.00323104
0.00340011
0.00373334
0.0041728
0.00454752
0.00470229
0.00456745
0.00367033
0.00358903
0.00743377
0.00343917
0.00195253
0.00191379
0.00277316
0.00611878
0.00653583
0.00646839
0.00647673
0.00654857
0.00661829
0.00666203
0.00667651
0.00667167
0.00666844
0.00666391
0.00667291
0.00669733
0.00671948
0.00669878
0.00660986
0.00644905
0.00622971
0.00597154
0.00566685
0.00535984
0.00508714
0.0048611
0.00469443
0.0046052
0.00461516
0.00474515
0.00500589
0.0053834
0.00581193
0.00615099
0.00630776
0.00631382
0.00582081
0.00541062
0.00928515
0.00378835
0.00152087
0.00664708
0.00802486
0.00821022
0.00839608
0.0085491
0.00862389
0.00863462
0.00858595
0.00849177
0.00838324
0.00827577
0.00818393
0.00811754
0.00808172
0.00806913
0.00805923
0.00802842
0.00795581
0.00782434
0.00761701
0.00738925
0.0071825
0.00701276
0.0068932
0.00683934
0.00686864
0.00699629
0.00722605
0.00753508
0.007854
0.0080481
0.00811673
0.00814713
0.00809184
0.00785573
0.00942277
0.00314078
0.00306887
0.00950059
0.0102482
0.0103167
0.0104451
0.0105783
0.0105892
0.0105301
0.0104409
0.0103265
0.0101985
0.010068
0.00994691
0.00984856
0.00979373
0.00980675
0.00985616
0.00989857
0.00990007
0.0098137
0.0096408
0.00945634
0.00928973
0.00915196
0.00905206
0.00900161
0.00901477
0.00910566
0.00928119
0.00952617
0.00977863
0.0099028
0.00988492
0.00981862
0.00964262
0.00906301
0.0075337
0.00260567
0.0015101
0.00125056
0.00194072
0.00253261
0.00262628
0.00259931
0.00256781
0.00254868
0.00253795
0.00252514
0.00250848
0.00248854
0.00246634
0.00244281
0.002419
0.0023967
0.00237848
0.00237086
0.00236973
0.00236864
0.00236383
0.00235584
0.00234695
0.00233721
0.00232832
0.00232117
0.0023165
0.00231518
0.00231809
0.0023259
0.00233827
0.00235246
0.00236164
0.00236349
0.00236129
0.00235811
0.00236435
0.00241243
0.00242364
0.00216677
)
;

boundaryField
{
    floor
    {
        type            compressible::alphatWallFunction;
        Prt             0.85;
        value           nonuniform List<scalar> 
29
(
0.000139392
0.000107267
0.000142206
0.000131823
0.000121304
0.000111952
0.000103392
9.56093e-05
8.88076e-05
8.28515e-05
7.76195e-05
7.29999e-05
6.88986e-05
6.52126e-05
6.18024e-05
5.85026e-05
5.51051e-05
5.19855e-05
5.03177e-05
6.5333e-05
6.53322e-05
8.74424e-05
0.000104025
0.000123287
0.000139391
0.000107266
0.000138923
0.000136629
0.000122126
)
;
    }
    ceiling
    {
        type            compressible::alphatWallFunction;
        Prt             0.85;
        value           nonuniform List<scalar> 
43
(
0.000213359
0.000178085
0.000270258
0.0003464
0.000358221
0.000354768
0.000350747
0.000348298
0.000346919
0.000345276
0.000343146
0.000340596
0.000337759
0.000334749
0.0003317
0.000328843
0.000326505
0.000325527
0.000325381
0.00032524
0.000324624
0.000323601
0.000322462
0.000321214
0.000320074
0.000319156
0.000318558
0.000318387
0.00031876
0.00031976
0.000321345
0.000323162
0.000324335
0.000324571
0.000324288
0.000323879
0.000324677
0.000330823
0.000332256
0.000299277
0.000271339
0.000266256
0.000413653
)
;
    }
    sWall
    {
        type            compressible::alphatWallFunction;
        Prt             0.85;
        value           uniform 0.000213704;
    }
    nWall
    {
        type            compressible::alphatWallFunction;
        Prt             0.85;
        value           nonuniform List<scalar> 6(0.000196786 0.000263614 0.000347266 0.000422549 0.000355448 0.00029932);
    }
    sideWalls
    {
        type            empty;
    }
    glass1
    {
        type            compressible::alphatWallFunction;
        Prt             0.85;
        value           nonuniform List<scalar> 9(0.000312012 0.000363876 0.000383851 0.000382294 0.000376222 0.00036369 0.000345153 0.000318961 0.00027303);
    }
    glass2
    {
        type            compressible::alphatWallFunction;
        Prt             0.85;
        value           nonuniform List<scalar> 2(0.000462059 0.00050496);
    }
    sun
    {
        type            compressible::alphatWallFunction;
        Prt             0.85;
        value           nonuniform List<scalar> 
14
(
0.000309924
0.000345315
0.000338534
0.000317873
0.000295165
0.000274401
0.000256233
0.000239887
0.000224875
0.000210817
0.000197365
0.000184126
0.000170557
0.000155627
)
;
    }
    heatsource1
    {
        type            compressible::alphatWallFunction;
        Prt             0.85;
        value           nonuniform List<scalar> 3(0.000131273 0.000143925 0.000196388);
    }
    heatsource2
    {
        type            compressible::alphatWallFunction;
        Prt             0.85;
        value           nonuniform List<scalar> 4(0.00013293 0.000113816 0.000113814 0.000114841);
    }
    Table_master
    {
        type            compressible::alphatWallFunction;
        Prt             0.85;
        value           nonuniform List<scalar> 9(0.000119697 0.000103323 9.0714e-05 8.07867e-05 7.28183e-05 6.63433e-05 6.12045e-05 5.73322e-05 5.48563e-05);
    }
    Table_slave
    {
        type            compressible::alphatWallFunction;
        Prt             0.85;
        value           nonuniform List<scalar> 9(0.000131496 0.000117317 0.00010549 9.51158e-05 8.55986e-05 7.64892e-05 6.73535e-05 5.77219e-05 4.68164e-05);
    }
    inlet
    {
        type            fixedValue;
        value           uniform 1.94e-05;
    }
    outlet
    {
        type            zeroGradient;
    }
}


// ************************************************************************* //
