/*--------------------------------*- C++ -*----------------------------------*\
  =========                 |
  \\      /  F ield         | OpenFOAM: The Open Source CFD Toolbox
   \\    /   O peration     | Website:  https://openfoam.org
    \\  /    A nd           | Version:  6
     \\/     M anipulation  |
\*---------------------------------------------------------------------------*/
FoamFile
{
    version     2.0;
    format      ascii;
    class       volVectorField;
    location    "270";
    object      U;
}
// * * * * * * * * * * * * * * * * * * * * * * * * * * * * * * * * * * * * * //

dimensions      [0 1 -1 0 0 0 0];

internalField   nonuniform List<vector> 
459
(
(-0.122707 -0.12133 0)
(0.163406 -0.0544676 0)
(0.199546 -0.0378318 0)
(0.202002 -0.0268858 0)
(0.209968 -0.0168213 0)
(0.214215 -0.00984431 0)
(0.211058 -0.0051846 0)
(0.203364 -0.0018007 0)
(0.193362 0.000924928 0)
(0.181638 0.00334352 0)
(0.167885 0.00582726 0)
(0.151241 0.0089442 0)
(0.12987 0.0138755 0)
(0.0974509 0.0246635 0)
(0.0941726 0.053714 0)
(-0.12042 -0.00126467 0)
(0.0441049 -0.0109966 0)
(0.0392033 -0.0131412 0)
(0.046877 -0.0106518 0)
(0.0577614 -0.00692177 0)
(0.0643741 -0.00399009 0)
(0.0666367 -0.00267489 0)
(0.0671549 -0.00211478 0)
(0.0675779 -0.00174498 0)
(0.0680677 -0.00146515 0)
(0.0683975 -0.00124328 0)
(0.0683981 -0.000988407 0)
(0.0678385 -0.000553511 0)
(0.0662348 0.000296188 0)
(0.0626549 0.00203633 0)
(0.0554459 0.00545954 0)
(0.0478178 0.00981099 0)
(-0.0305497 0.0212683 0)
(0.153015 -0.00807348 0)
(-0.301425 -0.161685 0)
(0.171164 -0.0552541 0)
(0.141627 -0.0455145 0)
(0.141979 -0.0251615 0)
(0.151767 -0.00626827 0)
(0.155473 0.00522222 0)
(0.152555 0.011322 0)
(0.146578 0.0149195 0)
(0.139298 0.0174518 0)
(0.13108 0.0197029 0)
(0.12186 0.0224112 0)
(0.111519 0.0264648 0)
(0.100354 0.0331254 0)
(0.0877078 0.0446623 0)
(0.090975 0.0676934 0)
(0.081547 0.060063 0)
(0.0492715 0.0507386 0)
(-0.165883 -0.00545375 0)
(0.0487327 -0.0342189 0)
(0.0407099 -0.0287197 0)
(0.0478711 -0.0197415 0)
(0.0560427 -0.0102383 0)
(0.0594976 -0.00281893 0)
(0.0596341 -0.000931304 0)
(0.0592789 -0.000363606 0)
(0.059453 0.000109524 0)
(0.0597897 0.000545461 0)
(0.0600546 0.000970853 0)
(0.0602484 0.00157699 0)
(0.0602958 0.00262547 0)
(0.0600524 0.00458082 0)
(0.0588451 0.00849975 0)
(0.0534582 0.0177137 0)
(0.0485523 0.0249725 0)
(-0.026431 0.0348682 0)
(0.208255 0.0181906 0)
(-0.43098 -0.206259 0)
(0.195502 -0.101594 0)
(0.0810169 -0.0796913 0)
(0.0846512 -0.0401464 0)
(0.0939058 -0.0133776 0)
(0.0943285 0.00158139 0)
(0.0910355 0.0103564 0)
(0.0872101 0.0160639 0)
(0.0833823 0.0202077 0)
(0.079449 0.0237838 0)
(0.0754162 0.0277162 0)
(0.0714686 0.0329238 0)
(0.0681147 0.0403214 0)
(0.0645613 0.0506129 0)
(0.0667324 0.0653718 0)
(0.0598545 0.0617568 0)
(0.0448774 0.0742261 0)
(-0.0906142 -0.0301207 0)
(0.0417594 -0.0488129 0)
(0.0516574 -0.0428604 0)
(0.0545336 -0.0288074 0)
(0.0576245 -0.0139859 0)
(0.0564141 -0.00135063 0)
(0.0507777 -0.00285786 0)
(0.0485849 -0.00306379 0)
(0.0479867 -0.00322269 0)
(0.0475238 -0.0033293 0)
(0.047049 -0.00340562 0)
(0.0468129 -0.00332438 0)
(0.0473098 -0.0027974 0)
(0.0494643 -0.00133072 0)
(0.0553615 0.00315643 0)
(0.0533009 0.0227645 0)
(0.0493391 0.0342949 0)
(-0.0253786 0.0437924 0)
(0.239684 0.042223 0)
(-0.532764 -0.226863 0)
(0.217232 -0.135064 0)
(0.0117062 -0.0942352 0)
(0.0291289 -0.0368809 0)
(0.0347922 -0.00812308 0)
(0.0319243 0.00572439 0)
(0.0303025 0.0136723 0)
(0.029994 0.0188858 0)
(0.030221 0.0226645 0)
(0.0306811 0.0259525 0)
(0.0314866 0.02956 0)
(0.0329482 0.0342083 0)
(0.035559 0.0404916 0)
(0.0389283 0.048775 0)
(0.0473029 0.0604445 0)
(0.0576915 0.0658477 0)
(0.0716022 0.0781229 0)
(0.100075 -0.0653686 0)
(0.0932124 -0.0521518 0)
(0.0837739 -0.0522297 0)
(0.0713289 -0.0444413 0)
(0.0632206 -0.0298627 0)
(0.0604676 -0.0142655 0)
(0.0620935 0.00042618 0)
(0.0646205 0.00188259 0)
(0.0623515 0.000847236 0)
(0.0582889 0.000440689 0)
(0.0536729 0.000432544 0)
(0.048329 0.000665469 0)
(0.0418347 0.00113204 0)
(0.0338632 0.00194137 0)
(0.0241351 0.00346419 0)
(-0.00294741 0.00592364 0)
(0.0203519 0.0334668 0)
(0.0345859 0.0398536 0)
(-0.0281603 0.0448503 0)
(0.257895 0.0750955 0)
(-0.58994 -0.225599 0)
(0.202651 -0.148628 0)
(-0.0563996 -0.0947011 0)
(-0.014237 -0.0272452 0)
(-0.0163521 -0.00342271 0)
(-0.0193506 0.00688512 0)
(-0.0189348 0.0131737 0)
(-0.0170889 0.0175776 0)
(-0.0144295 0.0208966 0)
(-0.0111368 0.0237189 0)
(-0.0070659 0.0265822 0)
(-0.00182797 0.0300486 0)
(0.00541028 0.0347631 0)
(0.0143975 0.0408843 0)
(0.02853 0.0490408 0)
(0.0463708 0.0525259 0)
(0.0690736 0.0492493 0)
(0.0873997 0.00423834 0)
(0.0842754 -0.0196431 0)
(0.0702887 -0.0311205 0)
(0.0571784 -0.0295992 0)
(0.0474141 -0.0203769 0)
(0.0414944 -0.00941411 0)
(0.0389216 -0.000200957 0)
(0.0366538 0.00332583 0)
(0.033636 0.00486086 0)
(0.0297916 0.00624867 0)
(0.0254805 0.00770084 0)
(0.0205581 0.00931736 0)
(0.0147307 0.011274 0)
(0.00815143 0.0137117 0)
(0.00191424 0.0163915 0)
(-0.00984215 0.0154615 0)
(0.000736744 0.0178956 0)
(0.0252125 0.0273865 0)
(-0.00715527 0.0259705 0)
(0.127684 0.0681431 0)
(0.0896166 0.0654635 0)
(-0.0957832 0.0626178 0)
(0.335991 -0.0186194 0)
(-0.629773 -0.206011 0)
(0.166935 -0.144755 0)
(-0.0855514 -0.0939557 0)
(-0.0432713 -0.0250993 0)
(-0.0494669 -0.00211877 0)
(-0.0529724 0.00681594 0)
(-0.0532397 0.0114825 0)
(-0.0515149 0.0146324 0)
(-0.0482996 0.0169874 0)
(-0.0438353 0.0188569 0)
(-0.0381135 0.0205172 0)
(-0.0308965 0.0222876 0)
(-0.0216946 0.0245311 0)
(-0.0103519 0.0273879 0)
(0.00633352 0.0308187 0)
(0.0249162 0.0293635 0)
(0.0453278 0.0197537 0)
(0.0543419 -0.0043221 0)
(0.051839 -0.0203632 0)
(0.0416197 -0.0246168 0)
(0.0302934 -0.0206419 0)
(0.0208471 -0.0126856 0)
(0.0143871 -0.00424729 0)
(0.0105864 0.00267888 0)
(0.00883071 0.00637063 0)
(0.00689248 0.00809884 0)
(0.0042987 0.00963015 0)
(0.00114968 0.0115029 0)
(-0.00259782 0.0138733 0)
(-0.00645044 0.0164658 0)
(-0.00959605 0.0188297 0)
(-0.0109402 0.0193292 0)
(-0.0125288 0.0140603 0)
(-0.00749243 0.0055048 0)
(0.00444938 0.00512399 0)
(-0.0128264 -0.00748345 0)
(0.0372149 0.0330517 0)
(0.0375778 0.0601209 0)
(-0.130814 0.0731338 0)
(0.336774 -0.0397048 0)
(-0.672408 -0.168775 0)
(0.132057 -0.129137 0)
(-0.107184 -0.0982031 0)
(-0.0620953 -0.021775 0)
(-0.0700495 0.00128226 0)
(-0.0735308 0.00831639 0)
(-0.0748359 0.0108251 0)
(-0.0739616 0.012027 0)
(-0.0711798 0.0127241 0)
(-0.066753 0.0130702 0)
(-0.0607897 0.013135 0)
(-0.0532325 0.0130534 0)
(-0.0439182 0.0129688 0)
(-0.0327299 0.0128872 0)
(-0.0189715 0.0127299 0)
(-0.00368665 0.0106363 0)
(0.0112726 0.00468662 0)
(0.0161668 -0.00593931 0)
(0.0145704 -0.0136283 0)
(0.00754766 -0.0148941 0)
(-0.000891271 -0.0111326 0)
(-0.00766058 -0.00538002 0)
(-0.0119585 0.000132039 0)
(-0.0137834 0.00449277 0)
(-0.0143333 0.00742722 0)
(-0.0150158 0.00955797 0)
(-0.0161254 0.0116197 0)
(-0.0175117 0.0138513 0)
(-0.0188779 0.0161525 0)
(-0.0197098 0.0181114 0)
(-0.0193305 0.0189838 0)
(-0.0173742 0.0172424 0)
(-0.0151439 0.0109115 0)
(-0.0123414 0.00297361 0)
(-0.0101226 -0.000373865 0)
(-0.0157869 -0.000664073 0)
(0.000793014 0.0279347 0)
(0.0114158 0.0754087 0)
(-0.174004 0.085172 0)
(0.421639 -0.047641 0)
(-0.718237 -0.0978416 0)
(0.0914961 -0.0954661 0)
(-0.136111 -0.121329 0)
(-0.0743451 -0.0315215 0)
(-0.0811197 0.00305699 0)
(-0.0827794 0.0109207 0)
(-0.0844858 0.0115766 0)
(-0.0843069 0.0106815 0)
(-0.0822324 0.00954033 0)
(-0.0785932 0.00828984 0)
(-0.0735703 0.00686517 0)
(-0.0672284 0.00532314 0)
(-0.0596557 0.0037615 0)
(-0.050962 0.00231315 0)
(-0.0412676 0.00112863 0)
(-0.0313282 -0.000170167 0)
(-0.0227334 -0.0021274 0)
(-0.0182063 -0.00564507 0)
(-0.0182677 -0.00825792 0)
(-0.021641 -0.0077103 0)
(-0.0256702 -0.00485768 0)
(-0.0287317 -0.00124559 0)
(-0.0304043 0.00222281 0)
(-0.0306499 0.00522693 0)
(-0.030314 0.00784075 0)
(-0.0298783 0.010226 0)
(-0.0294593 0.0125131 0)
(-0.0289195 0.0146839 0)
(-0.0279991 0.0165271 0)
(-0.0263712 0.0176049 0)
(-0.0237276 0.017253 0)
(-0.0201332 0.0145463 0)
(-0.0164895 0.00898714 0)
(-0.0132681 0.00273949 0)
(-0.0105105 -0.000978711 0)
(-0.00794541 -8.3275e-05 0)
(0.00680482 0.021558 0)
(0.0382091 0.0706684 0)
(-0.13598 0.0664336 0)
(0.71408 -0.00103308 0)
(-0.780322 0.0742655 0)
(0.0260967 -0.0566627 0)
(-0.18548 -0.159186 0)
(-0.0607778 -0.0501721 0)
(-0.0736717 0.0083977 0)
(-0.0773206 0.0178729 0)
(-0.0789229 0.0161722 0)
(-0.0782636 0.0131832 0)
(-0.0762021 0.010496 0)
(-0.0732689 0.00804992 0)
(-0.0695507 0.00561179 0)
(-0.0650019 0.00314455 0)
(-0.0600481 0.000845491 0)
(-0.054828 -0.00107386 0)
(-0.0494472 -0.00238994 0)
(-0.0442078 -0.00312069 0)
(-0.0397509 -0.00355043 0)
(-0.0370849 -0.00402306 0)
(-0.036588 -0.00373752 0)
(-0.0374932 -0.00207852 0)
(-0.0385987 0.000492289 0)
(-0.0392878 0.00330896 0)
(-0.0393858 0.0058795 0)
(-0.0389021 0.00821359 0)
(-0.037982 0.0104793 0)
(-0.0367362 0.012665 0)
(-0.0351883 0.0146968 0)
(-0.0332783 0.0164396 0)
(-0.0309082 0.0176542 0)
(-0.0279872 0.0179622 0)
(-0.0245046 0.016862 0)
(-0.0207098 0.0138327 0)
(-0.0172121 0.00880882 0)
(-0.014289 0.00285616 0)
(-0.0114829 -0.00214647 0)
(-0.00690965 -0.00340873 0)
(0.00932737 0.00932008 0)
(0.0410717 0.0416688 0)
(-0.0978061 0.033889 0)
(0.704075 0.0406355 0)
(-0.213438 -0.0986917 0)
(-0.0144097 -0.0300274 0)
(-0.0428139 0.02184 0)
(-0.0590874 0.0223708 0)
(-0.0582262 0.0156428 0)
(-0.0546351 0.00967319 0)
(-0.0512149 0.00501276 0)
(-0.0482355 0.000873549 0)
(-0.0454674 -0.00354854 0)
(-0.0433914 -0.00735761 0)
(-0.0418153 -0.0105157 0)
(-0.0406789 -0.0129876 0)
(-0.039866 -0.0145176 0)
(-0.0392747 -0.0149174 0)
(-0.0389841 -0.0142067 0)
(-0.0392387 -0.012471 0)
(-0.040112 -0.00961722 0)
(-0.0412114 -0.0058881 0)
(-0.0419672 -0.0018874 0)
(-0.0421501 0.00191853 0)
(-0.0418346 0.00473757 0)
(-0.0411045 0.00679515 0)
(-0.0399185 0.0085684 0)
(-0.0382438 0.0101004 0)
(-0.0360609 0.0113215 0)
(-0.0333696 0.0121088 0)
(-0.0302084 0.0122765 0)
(-0.0266871 0.0115583 0)
(-0.023035 0.00961892 0)
(-0.0196673 0.00613383 0)
(-0.0171998 0.00099484 0)
(-0.016382 -0.00580587 0)
(-0.0174196 -0.0121073 0)
(-0.0182304 -0.0146335 0)
(-0.0141441 -0.00553652 0)
(-0.0112318 0.0161388 0)
(-0.142573 0.0151171 0)
(0.415382 0.0704092 0)
(-0.257766 -0.184223 0)
(-0.0387244 -0.135667 0)
(-0.0455298 -0.108579 0)
(-0.0393523 -0.103074 0)
(-0.0284098 -0.104682 0)
(-0.0207533 -0.106289 0)
(-0.016126 -0.1051 0)
(-0.0132813 -0.103311 0)
(-0.0120474 -0.101459 0)
(-0.0122844 -0.0998509 0)
(-0.0137951 -0.0985148 0)
(-0.0162978 -0.0973291 0)
(-0.019406 -0.0961417 0)
(-0.0225628 -0.0948889 0)
(-0.0255417 -0.0941236 0)
(-0.0285115 -0.0945247 0)
(-0.031626 -0.0955173 0)
(-0.0346486 -0.0966945 0)
(-0.0371692 -0.0979365 0)
(-0.0388226 -0.0981408 0)
(-0.0395651 -0.0967601 0)
(-0.0395947 -0.0952373 0)
(-0.0389906 -0.093757 0)
(-0.0377502 -0.0922304 0)
(-0.0358598 -0.0906462 0)
(-0.0333381 -0.0891007 0)
(-0.0302683 -0.0878188 0)
(-0.0268415 -0.0871793 0)
(-0.0234222 -0.0876855 0)
(-0.0206024 -0.0897491 0)
(-0.0190982 -0.0929845 0)
(-0.0198813 -0.0945997 0)
(-0.0234775 -0.095078 0)
(-0.0281236 -0.0966152 0)
(-0.032319 -0.0944867 0)
(-0.0489513 -0.0766202 0)
(-0.115368 -0.0628039 0)
(0.333888 -0.0377054 0)
(-1.03481 -0.0658002 0)
(0.282366 0.175434 0)
(0.0307667 0.623371 0)
(0.042926 0.513971 0)
(0.0637562 0.439232 0)
(0.0698232 0.412069 0)
(0.0681673 0.402446 0)
(0.0641755 0.397126 0)
(0.0593017 0.389993 0)
(0.0540804 0.383323 0)
(0.0482023 0.377657 0)
(0.0416113 0.372993 0)
(0.0343016 0.369144 0)
(0.0262763 0.365919 0)
(0.0175978 0.363299 0)
(0.00857988 0.361303 0)
(-0.00110501 0.35914 0)
(-0.0100865 0.35772 0)
(-0.0176393 0.357612 0)
(-0.0238119 0.358899 0)
(-0.0285126 0.36133 0)
(-0.0318884 0.362884 0)
(-0.0339775 0.362567 0)
(-0.0348794 0.362614 0)
(-0.0347832 0.362967 0)
(-0.0338001 0.363354 0)
(-0.0320624 0.363596 0)
(-0.029754 0.363573 0)
(-0.0271324 0.363222 0)
(-0.024548 0.362583 0)
(-0.022459 0.361846 0)
(-0.0215125 0.361325 0)
(-0.0226672 0.360885 0)
(-0.0262715 0.356757 0)
(-0.0303808 0.350434 0)
(-0.0317995 0.347658 0)
(-0.0368505 0.347512 0)
(-0.0742495 0.337405 0)
(-0.155258 0.342899 0)
(0.453932 0.390473 0)
)
;

boundaryField
{
    floor
    {
        type            noSlip;
    }
    ceiling
    {
        type            noSlip;
    }
    sWall
    {
        type            noSlip;
    }
    nWall
    {
        type            noSlip;
    }
    sideWalls
    {
        type            empty;
    }
    glass1
    {
        type            noSlip;
    }
    glass2
    {
        type            noSlip;
    }
    sun
    {
        type            noSlip;
    }
    heatsource1
    {
        type            noSlip;
    }
    heatsource2
    {
        type            noSlip;
    }
    Table_master
    {
        type            noSlip;
    }
    Table_slave
    {
        type            noSlip;
    }
    inlet
    {
        type            fixedValue;
        value           uniform (0.2 0 0);
    }
    outlet
    {
        type            zeroGradient;
    }
}


// ************************************************************************* //
