/*--------------------------------*- C++ -*----------------------------------*\
  =========                 |
  \\      /  F ield         | OpenFOAM: The Open Source CFD Toolbox
   \\    /   O peration     | Website:  https://openfoam.org
    \\  /    A nd           | Version:  6
     \\/     M anipulation  |
\*---------------------------------------------------------------------------*/
FoamFile
{
    version     2.0;
    format      ascii;
    class       volScalarField;
    location    "600";
    object      alphat;
}
// * * * * * * * * * * * * * * * * * * * * * * * * * * * * * * * * * * * * * //

dimensions      [1 -1 -1 0 0 0 0];

internalField   nonuniform List<scalar> 
459
(
0.000796918
0.000826329
0.000769226
0.000797595
0.000828221
0.000857374
0.000885211
0.000912453
0.000940196
0.000968443
0.00099285
0.00101224
0.00102581
0.00103299
0.00102942
0.000326981
0.000370751
0.000351751
0.000288275
0.000252201
0.000235105
0.000233277
0.000253043
0.000276112
0.000298481
0.000315748
0.000321619
0.000315295
0.000312947
0.000316347
0.000327757
0.000329914
0.000308887
0.000283308
0.0013255
0.00243961
0.00190372
0.00247979
0.00272487
0.00296244
0.00320058
0.00342139
0.00359876
0.00371846
0.00377664
0.00373387
0.00352393
0.00303576
0.00214992
0.00111441
0.000700527
0.000482543
0.00111158
0.00117977
0.000982634
0.000715214
0.000545447
0.000495087
0.000615628
0.00077405
0.000919645
0.00102601
0.00107136
0.00107738
0.00108594
0.00117195
0.0014212
0.00120626
0.000819785
0.000413662
0.00180509
0.00402843
0.00204184
0.00350719
0.00410345
0.00440615
0.00465719
0.00486873
0.00503371
0.0051477
0.00521327
0.00518963
0.00500219
0.00452928
0.00363458
0.00237182
0.00116955
0.000742713
0.0019933
0.00170629
0.00128008
0.000914396
0.000614498
0.000339415
0.000362402
0.000392065
0.000422488
0.000455287
0.000493781
0.000542878
0.000612495
0.000722805
0.00233719
0.00245954
0.00202637
0.000611115
0.00227041
0.00609628
0.00238184
0.00358732
0.00475253
0.00511252
0.00533535
0.00551844
0.00567558
0.00580701
0.00594798
0.00608299
0.00614976
0.00602329
0.00549567
0.00432857
0.00254961
0.00113478
0.00270947
0.00307643
0.00255823
0.00198228
0.0015082
0.00107538
0.000735289
0.000730836
0.000731424
0.000736623
0.000747993
0.000767755
0.000799176
0.000848183
0.000929805
0.00297658
0.00315542
0.0027779
0.000863219
0.00271201
0.00840813
0.00346884
0.00323529
0.00474892
0.00525645
0.00547188
0.00562002
0.0057431
0.00586504
0.00607418
0.00638621
0.00677753
0.00718742
0.00750041
0.00758106
0.00733594
0.00678297
0.00642935
0.00588761
0.00540954
0.00505022
0.00474442
0.00447633
0.00424332
0.00410065
0.0039708
0.00384616
0.0037302
0.00363507
0.00357944
0.00358052
0.00364504
0.00379207
0.00369955
0.00352171
0.00309278
0.00123819
0.00106399
0.000916066
0.00313331
0.0105709
0.00573804
0.00352841
0.00408316
0.00474973
0.00513022
0.00535516
0.00546554
0.00552249
0.00573276
0.00608474
0.00658972
0.00723696
0.00791933
0.00846994
0.00871695
0.00857247
0.00816633
0.00767782
0.00724469
0.00689357
0.00660842
0.00637176
0.00616187
0.00596827
0.00578027
0.0055848
0.00536674
0.00511978
0.00485905
0.00461647
0.00440825
0.00421125
0.00398887
0.0037331
0.00339242
0.00281934
0.00203959
0.000959865
0.00351132
0.0121198
0.00904942
0.00576029
0.00417898
0.00404737
0.00449471
0.00495495
0.00515637
0.00522856
0.00538844
0.00563361
0.00601851
0.0066211
0.0073833
0.00813497
0.00867206
0.00886424
0.00874937
0.00846973
0.00815091
0.00784918
0.00757978
0.00734272
0.00713211
0.00694716
0.00678972
0.00665051
0.00650133
0.00629729
0.0060016
0.00562566
0.00522107
0.00481535
0.00439859
0.00394778
0.00342507
0.00279398
0.00209348
0.000984513
0.00357186
0.0115456
0.00999163
0.00869076
0.00676269
0.00553619
0.00513437
0.00516868
0.00524595
0.00525997
0.00529448
0.00538852
0.00558222
0.00593009
0.00646494
0.00713564
0.00778378
0.00823513
0.00842654
0.00841301
0.00828319
0.00810071
0.00790065
0.00770104
0.00751495
0.0073558
0.0072402
0.0071805
0.00717437
0.00718877
0.00714915
0.00697504
0.00664935
0.0061942
0.00563747
0.00499952
0.00433425
0.00366259
0.00309996
0.00162891
0.00344258
0.00403699
0.00660682
0.00726849
0.00697829
0.00640144
0.00590948
0.00558385
0.00537356
0.00524907
0.00520294
0.00522768
0.0053283
0.00551911
0.00581847
0.00622981
0.00670789
0.0071572
0.00749122
0.00768185
0.00774873
0.00772657
0.00764785
0.00753861
0.00741967
0.00730983
0.00722861
0.0071961
0.00723179
0.00734748
0.00752452
0.00770832
0.00786279
0.00795801
0.00802013
0.00806273
0.00783048
0.00709785
0.00646362
0.00179818
0.012656
0.0137491
0.00942232
0.00775057
0.00681137
0.00621325
0.00581546
0.00554637
0.00538708
0.00532983
0.00536227
0.00547035
0.00564333
0.00587536
0.00615506
0.00645123
0.00672396
0.00694191
0.0070914
0.00717493
0.00720535
0.0071997
0.00717444
0.00714343
0.00711862
0.00711162
0.00713543
0.00720371
0.00731498
0.00748417
0.00770993
0.00794864
0.00810415
0.00803371
0.00768074
0.00699192
0.00577252
0.00182118
0.00541275
0.0118997
0.00930262
0.00782887
0.00691602
0.00630835
0.00591727
0.00570584
0.00562822
0.00565679
0.00578483
0.0059907
0.00624205
0.00650427
0.00674593
0.00692308
0.00703092
0.0070899
0.00712227
0.00714416
0.00716416
0.00718496
0.00720548
0.00722306
0.00723482
0.00723858
0.00723361
0.00722177
0.00720799
0.00720315
0.00722231
0.00725328
0.0071751
0.00694922
0.0065051
0.00577097
0.00497749
0.00189994
0.00199194
0.0026809
0.0040532
0.00348253
0.00320804
0.00294373
0.00263714
0.00237096
0.00215042
0.00196981
0.00183135
0.00173269
0.00166676
0.00162895
0.00161425
0.00161622
0.00162763
0.00164469
0.00166015
0.00166961
0.00167286
0.00167158
0.00166777
0.00166307
0.00165847
0.00165442
0.00165094
0.00164778
0.00164453
0.00164071
0.00163604
0.00162923
0.00161857
0.00160227
0.00158588
0.00156373
0.0015275
0.00146434
0.00142012
0.00146586
)
;

boundaryField
{
    floor
    {
        type            compressible::alphatWallFunction;
        Prt             0.85;
        value           nonuniform List<scalar> 
29
(
0.000146561
4.21053e-05
4.91278e-05
4.60966e-05
3.57941e-05
2.98063e-05
2.69292e-05
2.66201e-05
2.99473e-05
3.37863e-05
3.74679e-05
4.0285e-05
4.12383e-05
4.02117e-05
3.983e-05
4.03837e-05
4.22351e-05
4.25873e-05
3.91747e-05
3.49805e-05
3.498e-05
5.59261e-05
8.61388e-05
0.000122992
0.000146559
4.21047e-05
6.66117e-05
0.000105535
0.000161253
)
;
    }
    ceiling
    {
        type            compressible::alphatWallFunction;
        Prt             0.85;
        value           nonuniform List<scalar> 
43
(
0.000276442
0.000364724
0.000534021
0.000464465
0.00043061
0.000397711
0.000359158
0.0003253
0.000296941
0.000273483
0.000255341
0.000242323
0.000233577
0.000228543
0.000226582
0.000226844
0.000228364
0.000230635
0.000232692
0.000233949
0.000234381
0.000234209
0.000233702
0.000233076
0.000232463
0.000231923
0.000231459
0.000231037
0.000230603
0.000230093
0.000229469
0.00022856
0.000227137
0.000224961
0.00022277
0.000219806
0.000214949
0.000206449
0.000200474
0.000206654
0.000459635
0.00053215
0.000696046
)
;
    }
    sWall
    {
        type            compressible::alphatWallFunction;
        Prt             0.85;
        value           uniform 0.000275474;
    }
    nWall
    {
        type            compressible::alphatWallFunction;
        Prt             0.85;
        value           nonuniform List<scalar> 6(0.000130396 0.000136611 0.000140093 0.000253679 0.000264016 0.000206367);
    }
    sideWalls
    {
        type            empty;
    }
    glass1
    {
        type            compressible::alphatWallFunction;
        Prt             0.85;
        value           nonuniform List<scalar> 9(0.000110734 0.000183794 0.000247367 0.000307402 0.000363244 0.000415683 0.000462152 0.000469654 0.000454027);
    }
    glass2
    {
        type            compressible::alphatWallFunction;
        Prt             0.85;
        value           nonuniform List<scalar> 2(0.000227627 0.000250011);
    }
    sun
    {
        type            compressible::alphatWallFunction;
        Prt             0.85;
        value           nonuniform List<scalar> 
14
(
0.000113465
0.000117697
0.000109436
0.000113549
0.00011797
0.00012216
0.000126145
0.000130031
0.000133973
0.000137974
0.000141419
0.000144149
0.000146056
0.000147063
)
;
    }
    heatsource1
    {
        type            compressible::alphatWallFunction;
        Prt             0.85;
        value           nonuniform List<scalar> 3(0.000175547 0.000151406 0.000130543);
    }
    heatsource2
    {
        type            compressible::alphatWallFunction;
        Prt             0.85;
        value           nonuniform List<scalar> 4(0.000158433 9.9396e-05 9.93948e-05 0.00016608);
    }
    Table_master
    {
        type            compressible::alphatWallFunction;
        Prt             0.85;
        value           nonuniform List<scalar> 9(4.41677e-05 4.78531e-05 5.25641e-05 5.73481e-05 6.24566e-05 6.83926e-05 7.58801e-05 8.63548e-05 0.000102661);
    }
    Table_slave
    {
        type            compressible::alphatWallFunction;
        Prt             0.85;
        value           nonuniform List<scalar> 9(0.000104489 0.000103838 0.000103924 0.000104684 0.000106343 0.000109219 0.000113774 0.000120837 0.000132494);
    }
    inlet
    {
        type            fixedValue;
        value           uniform 1.94e-05;
    }
    outlet
    {
        type            zeroGradient;
    }
}


// ************************************************************************* //
