/*--------------------------------*- C++ -*----------------------------------*\
  =========                 |
  \\      /  F ield         | OpenFOAM: The Open Source CFD Toolbox
   \\    /   O peration     | Website:  https://openfoam.org
    \\  /    A nd           | Version:  6
     \\/     M anipulation  |
\*---------------------------------------------------------------------------*/
FoamFile
{
    version     2.0;
    format      ascii;
    class       volScalarField;
    location    "570";
    object      alphat;
}
// * * * * * * * * * * * * * * * * * * * * * * * * * * * * * * * * * * * * * //

dimensions      [1 -1 -1 0 0 0 0];

internalField   nonuniform List<scalar> 
459
(
0.000909006
0.00100496
0.00104361
0.0011005
0.00115448
0.00120841
0.00126552
0.00131464
0.00135003
0.00136386
0.00134704
0.00128168
0.0011352
0.000962155
0.000822825
0.000500606
0.000713391
0.000753295
0.000766857
0.000764395
0.000747311
0.000709514
0.000667456
0.000628067
0.00059251
0.000560622
0.000532198
0.000506509
0.000482827
0.000460269
0.00043757
0.000412565
0.0003742
0.00033073
0.00117447
0.00288752
0.00279711
0.00324081
0.00371308
0.00416335
0.00450321
0.00486031
0.00521574
0.00553349
0.00576104
0.00583427
0.00562097
0.00501645
0.00331329
0.00102154
0.000805166
0.000752381
0.0024186
0.00255497
0.00291746
0.00314273
0.00304123
0.00220621
0.00185814
0.00163046
0.00146275
0.00133209
0.00121919
0.00111707
0.00101914
0.000921484
0.000835823
0.000781212
0.000633573
0.000397503
0.00139618
0.00389538
0.00349885
0.00406477
0.00436999
0.00460065
0.00479131
0.00506221
0.00543179
0.00589343
0.00637275
0.00676994
0.00688184
0.00659653
0.00559548
0.00361308
0.000995874
0.000872547
0.00206336
0.00294777
0.0036612
0.00407556
0.00372362
0.000956726
0.000840942
0.000748106
0.000674096
0.000614692
0.000566797
0.000528066
0.000497179
0.000474345
0.000539096
0.000657145
0.000674805
0.000431912
0.001607
0.00473766
0.00350977
0.00414809
0.00421693
0.00421267
0.00428742
0.00448861
0.00486457
0.00543959
0.00608814
0.00667014
0.00698492
0.00702567
0.00665626
0.00548777
0.00296805
0.00114732
0.00170889
0.00266093
0.00376439
0.00463739
0.00507566
0.00452984
0.00104786
0.000959923
0.000902404
0.000862295
0.000830705
0.000800524
0.000768122
0.000734297
0.000694067
0.000657578
0.000672758
0.000746141
0.000486088
0.00182345
0.00581241
0.00358306
0.00401928
0.00402038
0.00388595
0.0039106
0.00407193
0.00445305
0.00511252
0.00583566
0.00643158
0.0067971
0.00694411
0.00688256
0.00644577
0.00548548
0.00501071
0.00534799
0.00583512
0.00624137
0.00645354
0.00643494
0.0060801
0.0049674
0.004498
0.00427157
0.00413472
0.00401248
0.00385449
0.0035762
0.00313176
0.00255772
0.00194569
0.00145293
0.00121269
0.000822155
0.000566478
0.000577049
0.000604173
0.00205868
0.00708722
0.00448537
0.00392402
0.00403873
0.00389837
0.00384289
0.00394949
0.00433473
0.00500559
0.00576784
0.00638041
0.00672343
0.00685393
0.00691849
0.00698248
0.00700793
0.00728784
0.00758444
0.00773216
0.0076866
0.00746395
0.00711071
0.00667119
0.0061785
0.00584363
0.00563098
0.00547331
0.00532147
0.00513799
0.00488895
0.00449317
0.00394082
0.00326023
0.00256645
0.00204531
0.00155432
0.00120918
0.0013269
0.000817462
0.00229049
0.00809133
0.00624972
0.00461369
0.00440512
0.00422987
0.00399716
0.00400158
0.00439502
0.00512692
0.00594665
0.00657546
0.00689316
0.00700834
0.00717475
0.00754426
0.00797262
0.00835144
0.00848894
0.00835957
0.00801104
0.00752014
0.00697326
0.00645774
0.00605235
0.00579858
0.00564347
0.0055248
0.00539848
0.00523525
0.00502953
0.00479432
0.00446636
0.00398838
0.00341497
0.00286284
0.00232304
0.00189393
0.00176723
0.00097657
0.00235395
0.00762331
0.00650391
0.0056456
0.00513705
0.00448217
0.00404138
0.0040662
0.00460724
0.00549308
0.00638713
0.0070044
0.00728165
0.00740438
0.00762442
0.00796222
0.00823381
0.00838183
0.00827839
0.00792453
0.00739847
0.00681009
0.00626021
0.00582098
0.00552002
0.00533263
0.00520561
0.00509547
0.00497011
0.00480944
0.00462835
0.00448296
0.00441294
0.00425028
0.00395581
0.00365295
0.00334677
0.00287775
0.00305426
0.00131014
0.0023132
0.00277035
0.00304245
0.00312872
0.00309318
0.00310151
0.00335424
0.00402313
0.00507829
0.00623107
0.00712083
0.00758683
0.00772705
0.00775771
0.007661
0.0075704
0.00754893
0.00747892
0.00725825
0.00686826
0.00640202
0.00595906
0.00559269
0.0053135
0.00510211
0.00492667
0.00475988
0.00458441
0.00438112
0.00412263
0.00380513
0.00347793
0.00318893
0.00295675
0.00274767
0.00254654
0.00235841
0.00218549
0.00206111
0.00134615
0.000932816
0.00154801
0.00219509
0.00305395
0.00425156
0.00557582
0.00681494
0.00766103
0.00797271
0.00790819
0.00755641
0.00717547
0.00692308
0.00679724
0.00671312
0.0065996
0.00642963
0.00621409
0.00597594
0.00575966
0.00557281
0.00540404
0.0052303
0.00502671
0.0047753
0.004471
0.00412376
0.00375292
0.00337662
0.00302271
0.00275315
0.00256781
0.00244235
0.00234719
0.00224476
0.00210411
0.00195098
0.00136318
0.00135657
0.00340151
0.00505156
0.00659164
0.00748497
0.00808696
0.0085501
0.00855766
0.00815098
0.00754956
0.00704144
0.00672516
0.00657212
0.00651145
0.00648994
0.00647697
0.00645798
0.0064268
0.00637772
0.00630836
0.00624191
0.00618397
0.00611925
0.00602082
0.00585549
0.00559344
0.00522228
0.00476221
0.00427645
0.00380059
0.00338151
0.00304309
0.00279361
0.00261424
0.00246463
0.00233856
0.00285989
0.00146183
0.00155097
0.0016242
0.00169021
0.00195856
0.00197065
0.0019133
0.00186611
0.00186275
0.00183165
0.00177331
0.00169985
0.00162579
0.00157319
0.00154502
0.00153232
0.00152775
0.00152631
0.00152464
0.00152117
0.00151593
0.00151059
0.0015072
0.00150372
0.00149748
0.00148556
0.00146487
0.00143355
0.00139266
0.00134777
0.00130747
0.00127388
0.00125131
0.00123998
0.00124047
0.00125223
0.00127205
0.00129097
0.00127863
0.00123929
0.00119784
)
;

boundaryField
{
    floor
    {
        type            compressible::alphatWallFunction;
        Prt             0.85;
        value           nonuniform List<scalar> 
29
(
0.000117281
6.95254e-05
0.000101377
0.000107212
0.000109186
0.000108829
0.000106342
0.000100813
9.46191e-05
8.87746e-05
8.34601e-05
7.86601e-05
7.43529e-05
7.04354e-05
6.68016e-05
6.33192e-05
5.97931e-05
5.58812e-05
4.98187e-05
4.28493e-05
4.28487e-05
5.35097e-05
5.89105e-05
6.73043e-05
0.000117279
6.95245e-05
0.000107075
0.000124424
0.000163102
)
;
    }
    ceiling
    {
        type            compressible::alphatWallFunction;
        Prt             0.85;
        value           nonuniform List<scalar> 
43
(
0.000218018
0.000227805
0.000236584
0.000271921
0.000273513
0.000266028
0.000259849
0.000259412
0.000255328
0.000247643
0.000237924
0.000228079
0.000221057
0.000217286
0.000215583
0.00021497
0.000214777
0.000214553
0.000214088
0.000213384
0.000212666
0.000212211
0.000211743
0.000210904
0.000209299
0.000206513
0.000202284
0.000196748
0.000190649
0.000185154
0.00018056
0.000177464
0.000175909
0.000175976
0.000177591
0.000180309
0.000182898
0.000181209
0.000175813
0.000170109
0.000317864
0.00037592
0.000191751
)
;
    }
    sWall
    {
        type            compressible::alphatWallFunction;
        Prt             0.85;
        value           uniform 0.00021753;
    }
    nWall
    {
        type            compressible::alphatWallFunction;
        Prt             0.85;
        value           nonuniform List<scalar> 6(8.48988e-05 0.000116185 0.000138879 0.00019239 0.000205743 0.000169757);
    }
    sideWalls
    {
        type            empty;
    }
    glass1
    {
        type            compressible::alphatWallFunction;
        Prt             0.85;
        value           nonuniform List<scalar> 9(0.000128249 0.000165262 0.000195459 0.000223689 0.000252264 0.000282911 0.000312754 0.000320897 0.000315743);
    }
    glass2
    {
        type            compressible::alphatWallFunction;
        Prt             0.85;
        value           nonuniform List<scalar> 2(0.000184297 0.000189224);
    }
    sun
    {
        type            compressible::alphatWallFunction;
        Prt             0.85;
        value           nonuniform List<scalar> 
14
(
0.000129632
0.000143216
0.000148644
0.000156594
0.000164093
0.000171545
0.000179394
0.000186114
0.000190937
0.000192817
0.000190529
0.000181606
0.000161418
0.000137174
)
;
    }
    heatsource1
    {
        type            compressible::alphatWallFunction;
        Prt             0.85;
        value           nonuniform List<scalar> 3(7.94497e-05 8.10421e-05 8.51114e-05);
    }
    heatsource2
    {
        type            compressible::alphatWallFunction;
        Prt             0.85;
        value           nonuniform List<scalar> 4(0.00014545 0.000114639 0.000114638 0.000141837);
    }
    Table_master
    {
        type            compressible::alphatWallFunction;
        Prt             0.85;
        value           nonuniform List<scalar> 9(0.000136308 0.000119793 0.000106356 9.55006e-05 8.66823e-05 7.94963e-05 7.36301e-05 6.89134e-05 6.54027e-05);
    }
    Table_slave
    {
        type            compressible::alphatWallFunction;
        Prt             0.85;
        value           nonuniform List<scalar> 9(0.000149143 0.000136763 0.000128593 0.00012286 0.000118323 0.000113968 0.000109271 0.000104343 9.84451e-05);
    }
    inlet
    {
        type            fixedValue;
        value           uniform 1.94e-05;
    }
    outlet
    {
        type            zeroGradient;
    }
}


// ************************************************************************* //
