/*--------------------------------*- C++ -*----------------------------------*\
  =========                 |
  \\      /  F ield         | OpenFOAM: The Open Source CFD Toolbox
   \\    /   O peration     | Website:  https://openfoam.org
    \\  /    A nd           | Version:  6
     \\/     M anipulation  |
\*---------------------------------------------------------------------------*/
FoamFile
{
    version     2.0;
    format      ascii;
    class       volScalarField;
    location    "570";
    object      epsilon;
}
// * * * * * * * * * * * * * * * * * * * * * * * * * * * * * * * * * * * * * //

dimensions      [0 2 -3 0 0 0 0];

internalField   nonuniform List<scalar> 
459
(
0.000167704
0.000226447
0.000253584
0.000297367
0.000343308
0.000393702
0.000452202
0.000506926
0.000548971
0.000566016
0.000545346
0.000469773
0.000326436
0.000198756
0.000124297
2.79976e-05
8.10675e-05
9.54746e-05
0.00010074
9.97833e-05
9.32479e-05
7.98051e-05
6.64385e-05
5.53568e-05
4.64774e-05
3.93699e-05
3.36799e-05
2.90345e-05
2.51492e-05
2.17863e-05
1.87193e-05
1.56897e-05
1.17067e-05
8.08082e-06
0.000361909
0.000467028
0.000207124
0.000207836
0.000221145
0.000245959
0.000285393
0.00033112
0.000370625
0.000389407
0.000377828
0.000334477
0.000260922
0.000200243
0.000144046
0.000237916
0.000116503
9.51007e-05
0.000182731
0.000109524
9.02268e-05
7.94728e-05
7.2522e-05
7.37503e-05
6.19648e-05
5.04278e-05
4.08973e-05
3.32914e-05
2.73369e-05
2.26527e-05
1.89606e-05
1.62563e-05
1.49375e-05
1.59287e-05
1.28044e-05
1.40349e-05
0.000608329
0.000976038
0.000220047
0.000186893
0.000199928
0.000231241
0.000279137
0.00033366
0.00037945
0.000404842
0.000400824
0.000363224
0.000301845
0.000242582
0.000186261
0.000172592
0.000220467
0.000148345
0.000137782
0.000113757
9.78883e-05
8.60948e-05
8.36345e-05
0.000195792
0.000132963
9.36106e-05
6.84864e-05
5.19297e-05
4.07126e-05
3.29242e-05
2.74783e-05
2.38633e-05
1.88378e-05
1.78512e-05
1.5342e-05
1.80082e-05
0.000928112
0.00188638
0.000288384
0.000177363
0.000187529
0.000226985
0.000291639
0.000356301
0.000405766
0.000436579
0.000437022
0.000398237
0.000336672
0.000274663
0.000223767
0.000191445
0.000185686
0.000337206
0.00022405
0.000163861
0.000131665
0.000111367
9.72221e-05
9.51283e-05
0.000257404
0.00019792
0.000164453
0.000143501
0.000128313
0.000114838
0.000101457
8.86397e-05
7.48565e-05
4.53808e-05
3.05629e-05
2.61656e-05
2.56778e-05
0.00135671
0.0033203
0.000489565
0.00018553
0.000181593
0.000238646
0.00034447
0.000417062
0.000465578
0.000497913
0.00049422
0.000445684
0.00036734
0.000287183
0.00022535
0.000187244
0.000174078
0.000177379
0.000165931
0.000153435
0.000139835
0.000125187
0.000110721
9.91991e-05
0.000100607
9.68427e-05
9.32745e-05
8.96452e-05
8.52561e-05
7.94142e-05
7.19175e-05
6.40547e-05
5.64417e-05
4.60866e-05
3.58166e-05
3.41131e-05
2.92099e-05
4.06573e-05
4.29776e-05
4.93499e-05
0.00195348
0.00506581
0.00105401
0.000286282
0.000222051
0.000327565
0.00047592
0.000533815
0.000571166
0.000596147
0.000583129
0.000514297
0.000406959
0.000298732
0.000218438
0.000174244
0.000161759
0.00016592
0.000169912
0.000166921
0.000157233
0.000143146
0.000127627
0.000113929
0.000106508
0.000104191
0.000103747
0.000102712
0.000100098
9.52478e-05
8.74774e-05
7.63624e-05
6.49766e-05
5.43358e-05
4.44722e-05
4.0026e-05
3.70789e-05
4.10851e-05
0.00017268
0.000122252
0.00269183
0.00628508
0.00234883
0.00087974
0.000614248
0.000702378
0.000731672
0.000726864
0.000734994
0.000744817
0.000710914
0.000607911
0.000460439
0.000318447
0.000220144
0.000173094
0.000166045
0.000177219
0.000186569
0.000186032
0.000176822
0.000162883
0.000148342
0.000136783
0.00013113
0.000130528
0.000131093
0.000130664
0.000129125
0.000126773
0.000123056
0.000115266
0.000102644
9.11165e-05
8.26769e-05
7.86061e-05
7.84564e-05
8.80619e-05
0.00025996
0.000208467
0.00292393
0.00788137
0.00415021
0.00255221
0.00183355
0.00141582
0.00114333
0.00100712
0.000969844
0.000955985
0.000883011
0.000722555
0.00051966
0.00034108
0.000233249
0.00019212
0.000192407
0.00020538
0.000213446
0.000211807
0.000203394
0.000192878
0.000184037
0.000178713
0.000176866
0.000176485
0.000175024
0.000172023
0.000169447
0.000170425
0.000177313
0.000190331
0.000203936
0.000218433
0.00025064
0.000306381
0.0004022
0.000503437
0.00176037
0.000503849
0.00277735
0.00476663
0.0035974
0.00268245
0.00204871
0.00160462
0.00134552
0.00125716
0.00126391
0.00123932
0.00108936
0.000825719
0.000554431
0.000358722
0.000280241
0.000259172
0.000261052
0.000268983
0.000273173
0.000273608
0.000271825
0.00027008
0.000270117
0.00027138
0.000271581
0.000267814
0.000258046
0.000243109
0.000227614
0.000218794
0.000223009
0.000242876
0.000278969
0.000332463
0.000409843
0.000518901
0.000659503
0.000822814
0.000996813
0.000547073
0.000820832
0.00107549
0.00121285
0.00134486
0.00154871
0.00173199
0.00178576
0.00161049
0.00122889
0.000779011
0.000563238
0.000479752
0.00045866
0.000459717
0.000469566
0.000480452
0.000488766
0.000494973
0.000503868
0.000511938
0.000520242
0.000526948
0.000527295
0.000515253
0.000485419
0.00043614
0.000372939
0.000309868
0.000265373
0.00025191
0.000262635
0.000298124
0.000359791
0.000448107
0.000552353
0.00064333
0.000704563
0.000568224
0.000550847
0.00252533
0.00316151
0.00354717
0.00349505
0.00330877
0.00293425
0.00237568
0.00180874
0.00138019
0.00116073
0.00106942
0.00104998
0.00106465
0.00109717
0.00113933
0.00118373
0.00122367
0.00125389
0.00127762
0.00130217
0.00132852
0.00134959
0.00135214
0.00131897
0.00123569
0.00110128
0.000935703
0.000773567
0.000632891
0.000531983
0.0004747
0.000459989
0.000479496
0.000516157
0.000556698
0.000984759
0.000700684
0.000827286
0.000949934
0.00107051
0.00166988
0.00170458
0.001563
0.00145211
0.00144553
0.00137529
0.00124868
0.00110025
0.000962877
0.000872556
0.000826615
0.000806454
0.000799292
0.000797063
0.000794465
0.000789065
0.00078095
0.000772715
0.00076753
0.000762221
0.000752766
0.00073493
0.000704661
0.000660416
0.000605509
0.000548829
0.000501054
0.000463428
0.000439229
0.000427416
0.000427928
0.000440215
0.000461458
0.00048237
0.000468685
0.000426753
0.000385497
)
;

boundaryField
{
    floor
    {
        Cmu             0.09;
        kappa           0.41;
        E               9.8;
        type            epsilonWallFunction;
        value           nonuniform List<scalar> 
29
(
0.000124297
2.79976e-05
8.10675e-05
9.54746e-05
0.00010074
9.97833e-05
9.32479e-05
7.98051e-05
6.64385e-05
5.53568e-05
4.64774e-05
3.93699e-05
3.36799e-05
2.90345e-05
2.51492e-05
2.17863e-05
1.87193e-05
1.56897e-05
1.17067e-05
8.08082e-06
8.08082e-06
1.40349e-05
1.80082e-05
2.56778e-05
0.000124297
2.79976e-05
9.51007e-05
0.000148345
0.000337206
)
;
    }
    ceiling
    {
        Cmu             0.09;
        kappa           0.41;
        E               9.8;
        type            epsilonWallFunction;
        value           nonuniform List<scalar> 
43
(
0.000827286
0.000949934
0.00107051
0.00166988
0.00170458
0.001563
0.00145211
0.00144553
0.00137529
0.00124868
0.00110025
0.000962877
0.000872556
0.000826615
0.000806454
0.000799292
0.000797063
0.000794465
0.000789065
0.00078095
0.000772715
0.00076753
0.000762221
0.000752766
0.00073493
0.000704661
0.000660416
0.000605509
0.000548829
0.000501054
0.000463428
0.000439229
0.000427416
0.000427928
0.000440215
0.000461458
0.00048237
0.000468685
0.000426753
0.000385497
0.00277735
0.00476663
0.000550847
)
;
    }
    sWall
    {
        Cmu             0.09;
        kappa           0.41;
        E               9.8;
        type            epsilonWallFunction;
        value           uniform 0.000827286;
    }
    nWall
    {
        Cmu             0.09;
        kappa           0.41;
        E               9.8;
        type            epsilonWallFunction;
        value           nonuniform List<scalar> 6(4.93499e-05 0.000122252 0.000208467 0.000568224 0.000700684 0.000385497);
    }
    sideWalls
    {
        type            empty;
    }
    glass1
    {
        Cmu             0.09;
        kappa           0.41;
        E               9.8;
        type            epsilonWallFunction;
        value           nonuniform List<scalar> 9(0.000167704 0.000361909 0.000608329 0.000928112 0.00135671 0.00195348 0.00269183 0.00292393 0.00277735);
    }
    glass2
    {
        Cmu             0.09;
        kappa           0.41;
        E               9.8;
        type            epsilonWallFunction;
        value           nonuniform List<scalar> 2(0.000503849 0.000547073);
    }
    sun
    {
        Cmu             0.09;
        kappa           0.41;
        E               9.8;
        type            epsilonWallFunction;
        value           nonuniform List<scalar> 
14
(
0.000167704
0.000226447
0.000253584
0.000297367
0.000343308
0.000393702
0.000452202
0.000506926
0.000548971
0.000566016
0.000545346
0.000469773
0.000326436
0.000198756
)
;
    }
    heatsource1
    {
        Cmu             0.09;
        kappa           0.41;
        E               9.8;
        type            epsilonWallFunction;
        value           nonuniform List<scalar> 3(4.06573e-05 4.29776e-05 4.93499e-05);
    }
    heatsource2
    {
        Cmu             0.09;
        kappa           0.41;
        E               9.8;
        type            epsilonWallFunction;
        value           nonuniform List<scalar> 4(0.000237916 0.000116503 0.000116503 0.000220467);
    }
    Table_master
    {
        Cmu             0.09;
        kappa           0.41;
        E               9.8;
        type            epsilonWallFunction;
        value           nonuniform List<scalar> 9(0.000195792 0.000132963 9.36106e-05 6.84864e-05 5.19297e-05 4.07126e-05 3.29242e-05 2.74783e-05 2.38633e-05);
    }
    Table_slave
    {
        Cmu             0.09;
        kappa           0.41;
        E               9.8;
        type            epsilonWallFunction;
        value           nonuniform List<scalar> 9(0.000257404 0.00019792 0.000164453 0.000143501 0.000128313 0.000114838 0.000101457 8.86397e-05 7.48565e-05);
    }
    inlet
    {
        type            turbulentMixingLengthDissipationRateInlet;
        mixingLength    0.01;
        phi             phi;
        k               k;
        value           uniform 0.000101881;
    }
    outlet
    {
        type            zeroGradient;
    }
}


// ************************************************************************* //
