// -*- C++ -*-
// File generated by PyFoam - sorry for the ugliness

FoamFile
{
 version 2.0;
 format ascii;
 class volVectorField;
 location "800";
 object U;
}

dimensions [ 0 1 -1 0 0 0 0 ];

internalField nonuniform List<vector> 459
(
  (0.0258463 0.087187 0)
  (-0.169888 0.0276534 0)
  (-0.19818 0.018234 0)
  (-0.22951 0.0115137 0)
  (-0.2508 0.00438348 0)
  (-0.260949 -0.00304494 0)
  (-0.258247 -0.0107865 0)
  (-0.242547 -0.0187171 0)
  (-0.215198 -0.0257369 0)
  (-0.179156 -0.0305934 0)
  (-0.138598 -0.0325767 0)
  (-0.0978139 -0.0314878 0)
  (-0.0606618 -0.0275453 0)
  (-0.0314414 -0.0217161 0)
  (-0.0217051 -0.0160615 0)
  (-0.00412089 0.0181883 0)
  (-0.0429374 0.000469881 0)
  (-0.0383111 -0.00468006 0)
  (-0.0316591 -0.00482481 0)
  (-0.0265111 -0.00276534 0)
  (-0.0226147 -0.00144589 0)
  (-0.0203907 -0.001103 0)
  (-0.0188571 -0.000868006 0)
  (-0.0178838 -0.000883045 0)
  (-0.0170818 -0.00109088 0)
  (-0.0162349 -0.00137236 0)
  (-0.0152347 -0.00169752 0)
  (-0.0139819 -0.00212182 0)
  (-0.0123404 -0.00275003 0)
  (-0.010297 -0.00378092 0)
  (-0.00815633 -0.00560196 0)
  (-0.00536099 -0.00989965 0)
  (0.0310627 -0.0160859 0)
  (-0.0400374 0.00409179 0)
  (0.194515 0.177735 0)
  (-0.155009 0.07213 0)
  (-0.157813 0.0545583 0)
  (-0.189601 0.0405838 0)
  (-0.210515 0.0250588 0)
  (-0.22085 0.00786538 0)
  (-0.218697 -0.0110304 0)
  (-0.204053 -0.0301164 0)
  (-0.178917 -0.0462799 0)
  (-0.146658 -0.0568279 0)
  (-0.111284 -0.0607496 0)
  (-0.0764796 -0.0582134 0)
  (-0.0453547 -0.049982 0)
  (-0.0204392 -0.0374715 0)
  (-0.00537829 -0.0239229 0)
  (0.00640262 -0.00724788 0)
  (0.000779788 0.0167891 0)
  (0.0596136 0.0412659 0)
  (-0.0167656 0.00225699 0)
  (0.0157199 -0.0146026 0)
  (0.0190475 -0.0120402 0)
  (0.022187 -0.00672807 0)
  (0.0242201 -0.00277547 0)
  (0.0240094 -0.00153031 0)
  (0.0241918 -0.000695396 0)
  (0.0240224 -0.000195426 0)
  (0.0234858 2.46079e-05 0)
  (0.0227662 -1.52128e-05 0)
  (0.0219665 -0.000244878 0)
  (0.021081 -0.000551432 0)
  (0.0200522 -0.000779748 0)
  (0.0178864 -0.000680844 0)
  (0.0126225 0.00118278 0)
  (0.00477205 -0.00548629 0)
  (0.0255114 -0.0114691 0)
  (-0.132859 0.0164919 0)
  (0.350012 0.265193 0)
  (-0.167282 0.11309 0)
  (-0.117298 0.0872077 0)
  (-0.147292 0.0631119 0)
  (-0.165603 0.037733 0)
  (-0.174656 0.00987062 0)
  (-0.171139 -0.0205958 0)
  (-0.155531 -0.0506677 0)
  (-0.131105 -0.0749233 0)
  (-0.102017 -0.0894021 0)
  (-0.0718266 -0.0935006 0)
  (-0.0432105 -0.0882013 0)
  (-0.0182392 -0.0750824 0)
  (0.00239501 -0.0557014 0)
  (0.0162227 -0.0334762 0)
  (0.0250151 -0.00877377 0)
  (0.0271924 0.0265519 0)
  (0.106612 0.00847226 0)
  (0.0724235 -0.00740796 0)
  (0.0663468 -0.0139898 0)
  (0.0654828 -0.0126865 0)
  (0.0647136 -0.00788305 0)
  (0.063441 -0.00426297 0)
  (0.0605246 -0.00571386 0)
  (0.0591089 -0.00428466 0)
  (0.0586064 -0.00335691 0)
  (0.0584756 -0.00282153 0)
  (0.0584155 -0.00259125 0)
  (0.0582577 -0.00256891 0)
  (0.0579334 -0.0026585 0)
  (0.0575869 -0.00274913 0)
  (0.0574753 -0.00152671 0)
  (0.0533098 0.00996477 0)
  (0.0381608 0.0133384 0)
  (0.0549885 0.00345459 0)
  (-0.154487 0.0118407 0)
  (0.491472 0.335093 0)
  (-0.19806 0.148307 0)
  (-0.0754488 0.114466 0)
  (-0.102682 0.081912 0)
  (-0.115366 0.0489352 0)
  (-0.120066 0.011538 0)
  (-0.110828 -0.0307716 0)
  (-0.0922446 -0.0714545 0)
  (-0.0686186 -0.102066 0)
  (-0.0443825 -0.118339 0)
  (-0.0214695 -0.121329 0)
  (-0.00089977 -0.112848 0)
  (0.0163598 -0.0953079 0)
  (0.030478 -0.0723115 0)
  (0.0424874 -0.0461811 0)
  (0.0553721 -0.0183618 0)
  (0.073129 0.0127844 0)
  (0.0991861 0.0210994 0)
  (0.103158 -0.00839007 0)
  (0.0952561 -0.0148837 0)
  (0.0903087 -0.0140251 0)
  (0.0870991 -0.0108184 0)
  (0.084666 -0.00649332 0)
  (0.0837623 -0.00137412 0)
  (0.0850336 -0.000462841 0)
  (0.0857855 -0.00132413 0)
  (0.0867948 -0.00205525 0)
  (0.088545 -0.00269937 0)
  (0.0910477 -0.00316256 0)
  (0.0938174 -0.00315725 0)
  (0.0958109 -0.00218681 0)
  (0.0947382 0.000370649 0)
  (0.0884288 0.00502719 0)
  (0.0762302 0.0191412 0)
  (0.0602413 0.0315934 0)
  (0.07253 0.0380405 0)
  (-0.155573 0.0177741 0)
  (0.614499 0.388701 0)
  (-0.237893 0.176128 0)
  (-0.0349238 0.129549 0)
  (-0.0566543 0.092241 0)
  (-0.0610963 0.0547234 0)
  (-0.0568827 0.00925079 0)
  (-0.0344812 -0.0454145 0)
  (-0.0129387 -0.0928428 0)
  (0.00740997 -0.125245 0)
  (0.0233042 -0.139037 0)
  (0.0357662 -0.138581 0)
  (0.0450753 -0.127047 0)
  (0.051953 -0.107416 0)
  (0.0574992 -0.0828434 0)
  (0.0628246 -0.0562986 0)
  (0.0696898 -0.0308427 0)
  (0.0804745 -0.0119945 0)
  (0.0892628 -0.0103295 0)
  (0.0902319 -0.013148 0)
  (0.0863255 -0.0118218 0)
  (0.0809548 -0.00893107 0)
  (0.0760709 -0.0060115 0)
  (0.0720928 -0.00324988 0)
  (0.0693325 -0.00106384 0)
  (0.0675632 -0.000361533 0)
  (0.0668165 -0.000742973 0)
  (0.0667463 -0.00172447 0)
  (0.0677159 -0.00297814 0)
  (0.0698944 -0.00400661 0)
  (0.0731356 -0.00398271 0)
  (0.0769392 -0.00167293 0)
  (0.0806195 0.00411028 0)
  (0.0823586 0.0138453 0)
  (0.0819074 0.0280095 0)
  (0.0784819 0.0421801 0)
  (0.0898893 0.0546812 0)
  (0.0513828 0.0423498 0)
  (0.0566184 0.0281597 0)
  (0.118335 0.0346603 0)
  (-0.38774 -0.00633999 0)
  (0.704681 0.43279 0)
  (-0.277667 0.193771 0)
  (-0.00402329 0.12402 0)
  (-0.0084243 0.0907552 0)
  (0.000311444 0.0499525 0)
  (0.0290989 -0.0079042 0)
  (0.0577405 -0.0675379 0)
  (0.0777288 -0.111606 0)
  (0.0895332 -0.137869 0)
  (0.0943029 -0.147515 0)
  (0.0939839 -0.143555 0)
  (0.090146 -0.129286 0)
  (0.0844288 -0.108111 0)
  (0.0785025 -0.0833069 0)
  (0.0737044 -0.057741 0)
  (0.071188 -0.034436 0)
  (0.0715172 -0.0169283 0)
  (0.0716889 -0.00923278 0)
  (0.0686538 -0.00664747 0)
  (0.0630356 -0.00496371 0)
  (0.0567381 -0.00295181 0)
  (0.0510067 -0.000937398 0)
  (0.0464434 0.000715513 0)
  (0.0433154 0.00167934 0)
  (0.0414331 0.00148825 0)
  (0.040465 9.86355e-05 0)
  (0.0402091 -0.00203444 0)
  (0.04085 -0.00455067 0)
  (0.0427268 -0.00692845 0)
  (0.0461137 -0.00828148 0)
  (0.0512297 -0.00716579 0)
  (0.0584066 -0.00160542 0)
  (0.0674332 0.00956033 0)
  (0.0758701 0.0243763 0)
  (0.0834506 0.0388491 0)
  (0.0968374 0.0507456 0)
  (0.0992228 0.0452227 0)
  (0.0998981 0.036757 0)
  (0.126378 0.0512787 0)
  (-0.0883992 0.0546457 0)
  (0.762042 0.472798 0)
  (-0.296903 0.177239 0)
  (0.0265682 0.0686002 0)
  (0.0572787 0.0556978 0)
  (0.0863213 0.020764 0)
  (0.132378 -0.0410399 0)
  (0.160836 -0.091738 0)
  (0.173678 -0.124805 0)
  (0.173292 -0.141161 0)
  (0.162915 -0.143247 0)
  (0.146107 -0.134148 0)
  (0.126005 -0.117054 0)
  (0.105279 -0.0952467 0)
  (0.0861193 -0.0715978 0)
  (0.0698956 -0.0482675 0)
  (0.05749 -0.0278129 0)
  (0.0488389 -0.0126076 0)
  (0.0423565 -0.00414846 0)
  (0.0357041 -0.000290553 0)
  (0.0291801 0.00153077 0)
  (0.0233909 0.00282756 0)
  (0.0189628 0.00372727 0)
  (0.0156941 0.00411506 0)
  (0.0134059 0.00386204 0)
  (0.0117777 0.00275688 0)
  (0.0104997 0.000762969 0)
  (0.00961213 -0.00192569 0)
  (0.00896558 -0.0052216 0)
  (0.00903342 -0.00891278 0)
  (0.010471 -0.0123311 0)
  (0.0140593 -0.0140976 0)
  (0.0206804 -0.0120264 0)
  (0.0321114 -0.00360168 0)
  (0.048584 0.0111708 0)
  (0.0636172 0.0248953 0)
  (0.0800502 0.034695 0)
  (0.0932326 0.0344086 0)
  (0.103437 0.032115 0)
  (0.138653 0.0569704 0)
  (-0.0595183 0.124809 0)
  (0.867737 0.471308 0)
  (-0.0549917 0.154119 0)
  (0.116727 -0.0199818 0)
  (0.201327 -0.060668 0)
  (0.250003 -0.0811056 0)
  (0.275321 -0.102414 0)
  (0.282676 -0.119679 0)
  (0.272698 -0.128633 0)
  (0.248438 -0.128612 0)
  (0.214746 -0.120685 0)
  (0.176544 -0.10654 0)
  (0.137851 -0.0880751 0)
  (0.101732 -0.0676797 0)
  (0.0703039 -0.0473847 0)
  (0.0443616 -0.0282561 0)
  (0.0249801 -0.0122999 0)
  (0.0110639 -0.00115966 0)
  (0.00202289 0.00451206 0)
  (-0.00345633 0.00640647 0)
  (-0.00756136 0.00679409 0)
  (-0.0107872 0.00680402 0)
  (-0.0132899 0.00664272 0)
  (-0.0153578 0.00627106 0)
  (-0.0172834 0.00555546 0)
  (-0.0194096 0.00428814 0)
  (-0.022033 0.00230275 0)
  (-0.0250435 -0.000476494 0)
  (-0.0282922 -0.00416257 0)
  (-0.03202 -0.00879974 0)
  (-0.0352625 -0.0140576 0)
  (-0.0373226 -0.018842 0)
  (-0.0372971 -0.0217056 0)
  (-0.0337261 -0.0212118 0)
  (-0.0239026 -0.0163779 0)
  (-0.00297285 -0.00792717 0)
  (0.0099498 7.44765e-05 0)
  (0.0181725 -0.000565368 0)
  (0.0309541 -0.000163976 0)
  (0.10608 0.0706301 0)
  (-0.429729 0.22786 0)
  (1.01552 0.422763 0)
  (0.483278 0.279347 0)
  (0.500438 0.177319 0)
  (0.532058 0.0962702 0)
  (0.508544 0.035132 0)
  (0.458705 -0.0140715 0)
  (0.402369 -0.048427 0)
  (0.341647 -0.0669817 0)
  (0.27769 -0.0720263 0)
  (0.214044 -0.0674651 0)
  (0.154277 -0.0568819 0)
  (0.101055 -0.0427701 0)
  (0.056289 -0.0276867 0)
  (0.0200969 -0.01342 0)
  (-0.00910167 -0.000896572 0)
  (-0.0255527 0.00608258 0)
  (-0.0337877 0.00922837 0)
  (-0.0377893 0.0101759 0)
  (-0.0399191 0.00999961 0)
  (-0.0413416 0.00950297 0)
  (-0.0424732 0.00904185 0)
  (-0.043584 0.00871392 0)
  (-0.044996 0.00852584 0)
  (-0.0470871 0.008375 0)
  (-0.0502961 0.0080074 0)
  (-0.0550243 0.00705883 0)
  (-0.0613807 0.00518648 0)
  (-0.0690197 0.00216576 0)
  (-0.0777195 -0.00189267 0)
  (-0.0882812 -0.0061337 0)
  (-0.101394 -0.00906552 0)
  (-0.117625 -0.00892043 0)
  (-0.137228 -0.00393514 0)
  (-0.160194 0.00699829 0)
  (-0.186062 0.0235205 0)
  (-0.213898 0.0427797 0)
  (-0.251476 0.0630176 0)
  (-0.291181 0.0818578 0)
  (-0.346794 0.0969404 0)
  (-0.601332 0.103361 0)
  (-0.123274 -0.0125503 0)
  (0.108853 -0.031322 0)
  (0.181152 -0.0611494 0)
  (0.168445 -0.0589161 0)
  (0.147306 -0.0474617 0)
  (0.119791 -0.0353506 0)
  (0.0861826 -0.0237288 0)
  (0.0497751 -0.0126621 0)
  (0.0118975 -0.00261635 0)
  (-0.0224089 0.00551085 0)
  (-0.0453205 0.0103856 0)
  (-0.0602233 0.0134195 0)
  (-0.0677753 0.0145521 0)
  (-0.0712379 0.0144581 0)
  (-0.0723392 0.0140796 0)
  (-0.0722311 0.0136465 0)
  (-0.0716457 0.013219 0)
  (-0.0710011 0.0129576 0)
  (-0.0704763 0.0129776 0)
  (-0.0701794 0.0133354 0)
  (-0.0702059 0.0140321 0)
  (-0.0706451 0.0149565 0)
  (-0.0715936 0.0158224 0)
  (-0.0731775 0.0161865 0)
  (-0.0755683 0.0156274 0)
  (-0.0789859 0.0140306 0)
  (-0.0836938 0.0117508 0)
  (-0.0899197 0.00950461 0)
  (-0.0976054 0.00818984 0)
  (-0.106372 0.00887016 0)
  (-0.115573 0.0125975 0)
  (-0.124428 0.0204547 0)
  (-0.132283 0.0330093 0)
  (-0.138155 0.0487149 0)
  (-0.138609 0.0614598 0)
  (-0.118633 0.0548881 0)
  (-0.0695728 -0.010584 0)
  (-0.23714 -0.19855 0)
  (0.0554189 0.179668 0)
  (0.0351959 0.0507222 0)
  (-8.25639e-06 -0.00810472 0)
  (-0.0272093 -0.0124744 0)
  (-0.0511738 -0.00634308 0)
  (-0.0719364 -0.00240834 0)
  (-0.0893504 0.000912418 0)
  (-0.101625 0.00351718 0)
  (-0.107933 0.00409813 0)
  (-0.111497 0.00233136 0)
  (-0.112281 -0.00104349 0)
  (-0.111112 -0.00441536 0)
  (-0.108466 -0.00764077 0)
  (-0.105225 -0.010908 0)
  (-0.101908 -0.0140246 0)
  (-0.0987666 -0.016884 0)
  (-0.0959194 -0.0194985 0)
  (-0.0933897 -0.0217949 0)
  (-0.0911106 -0.0236195 0)
  (-0.0889497 -0.024794 0)
  (-0.0867262 -0.0251795 0)
  (-0.0842533 -0.0247561 0)
  (-0.0814251 -0.0236914 0)
  (-0.0783171 -0.022341 0)
  (-0.0752264 -0.0211214 0)
  (-0.0725853 -0.0202599 0)
  (-0.0707807 -0.0195739 0)
  (-0.0699617 -0.0184642 0)
  (-0.0698787 -0.0160687 0)
  (-0.0697847 -0.0114833 0)
  (-0.0683994 -0.00409946 0)
  (-0.064082 0.00598304 0)
  (-0.0555557 0.0180841 0)
  (-0.0422088 0.0307317 0)
  (-0.0251649 0.0405947 0)
  (0.0119945 0.0300196 0)
  (0.127631 -0.026525 0)
  (-0.179415 -0.0999208 0)
  (-0.0230221 -0.309005 0)
  (-0.402817 -0.122896 0)
  (-0.294735 0.0578405 0)
  (-0.264006 -0.00499543 0)
  (-0.229348 -0.0019613 0)
  (-0.223637 0.0101027 0)
  (-0.22068 0.0196176 0)
  (-0.216349 0.0277923 0)
  (-0.209501 0.0358604 0)
  (-0.199974 0.0440564 0)
  (-0.188347 0.0520792 0)
  (-0.175994 0.0596464 0)
  (-0.1641 0.0667219 0)
  (-0.153316 0.0734539 0)
  (-0.143756 0.0798072 0)
  (-0.135373 0.0858654 0)
  (-0.127982 0.0917722 0)
  (-0.12135 0.0975925 0)
  (-0.115259 0.103309 0)
  (-0.10951 0.10882 0)
  (-0.103896 0.113962 0)
  (-0.0981905 0.118544 0)
  (-0.0921547 0.122392 0)
  (-0.0855753 0.125379 0)
  (-0.0783337 0.127447 0)
  (-0.0704849 0.128603 0)
  (-0.0622875 0.128889 0)
  (-0.0541316 0.128319 0)
  (-0.0463735 0.126817 0)
  (-0.0391397 0.124207 0)
  (-0.0321342 0.12032 0)
  (-0.0245248 0.115234 0)
  (-0.0150978 0.109388 0)
  (-0.00140833 0.102248 0)
  (0.0171557 0.0960411 0)
  (0.0407962 0.0932295 0)
  (0.0668009 0.0920175 0)
  (0.0932144 0.0893676 0)
  (0.148817 0.0736072 0)
  (-0.236052 0.041984 0)
)
;

boundaryField
{
  floor
  {
    type noSlip;
  }
  ceiling
  {
    type noSlip;
  }
  sWall
  {
    type noSlip;
  }
  nWall
  {
    type noSlip;
  }
  sideWalls
  {
    type empty;
  }
  glass1
  {
    type noSlip;
  }
  glass2
  {
    type noSlip;
  }
  sun
  {
    type noSlip;
  }
  heatsource1
  {
    type noSlip;
  }
  heatsource2
  {
    type noSlip;
  }
  Table_master
  {
    type noSlip;
  }
  Table_slave
  {
    type noSlip;
  }
  inlet
  {
    type fixedValue;
    value uniform (0.277164 -0.114805 0);
  }
  outlet
  {
    type zeroGradient;
  }
} 	// ************************************************************************* //

