/*--------------------------------*- C++ -*----------------------------------*\
  =========                 |
  \\      /  F ield         | OpenFOAM: The Open Source CFD Toolbox
   \\    /   O peration     | Website:  https://openfoam.org
    \\  /    A nd           | Version:  6
     \\/     M anipulation  |
\*---------------------------------------------------------------------------*/
FoamFile
{
    version     2.0;
    format      ascii;
    class       volScalarField;
    location    "450";
    object      epsilon;
}
// * * * * * * * * * * * * * * * * * * * * * * * * * * * * * * * * * * * * * //

dimensions      [0 2 -3 0 0 0 0];

internalField   nonuniform List<scalar> 
459
(
0.000241685
0.000318839
0.000347588
0.000403671
0.000461055
0.000521205
0.000588063
0.000656948
0.000714332
0.00074736
0.000742089
0.000687938
0.000579084
0.000389323
0.000188571
4.61423e-05
0.000115559
0.000111536
0.000108408
0.000102683
9.34205e-05
7.87663e-05
6.48016e-05
5.34109e-05
4.43948e-05
3.7259e-05
3.16037e-05
2.70308e-05
2.32417e-05
1.99921e-05
1.70545e-05
1.4281e-05
1.06426e-05
9.6184e-06
0.000563105
0.000778092
0.000294152
0.000289975
0.000303093
0.000327384
0.000367136
0.000420512
0.000474826
0.000513644
0.000521852
0.00049212
0.000428607
0.000342176
0.000238615
0.000348536
0.000135971
0.000146371
0.000274211
0.00014727
0.000111685
9.2734e-05
8.06663e-05
7.81143e-05
6.43658e-05
5.15677e-05
4.12431e-05
3.31612e-05
2.69303e-05
2.21041e-05
1.83662e-05
1.56954e-05
1.43898e-05
1.66924e-05
1.56078e-05
2.00787e-05
0.000987395
0.00177458
0.000330172
0.0002627
0.000272379
0.000303491
0.000354287
0.000421597
0.000488357
0.00053687
0.000555142
0.000536304
0.000482332
0.000403568
0.000323686
0.00028543
0.000349469
0.000237775
0.000202367
0.000154732
0.000124898
0.000104091
9.5732e-05
0.000206569
0.000138718
9.68912e-05
7.04252e-05
5.30869e-05
4.13786e-05
3.32657e-05
2.75901e-05
2.37854e-05
1.87419e-05
1.88671e-05
2.09797e-05
2.68763e-05
0.00155544
0.00357042
0.000466615
0.000250465
0.000252048
0.000290728
0.000357999
0.000447832
0.00052489
0.000577629
0.000601536
0.000587468
0.000531073
0.000455165
0.000383279
0.000332786
0.000305277
0.000568783
0.000358931
0.000242625
0.000179668
0.000141449
0.000116831
0.000109135
0.000277801
0.000210207
0.000171996
0.000148248
0.000131533
0.000117426
0.000103513
9.04184e-05
7.64798e-05
4.62292e-05
3.20055e-05
3.69172e-05
3.90895e-05
0.00232866
0.00635791
0.000844737
0.000265461
0.000236775
0.000285987
0.000398079
0.00052813
0.000608831
0.000657956
0.000679813
0.000657398
0.000587495
0.000489674
0.000392324
0.000316845
0.000270159
0.000249513
0.000222652
0.000195848
0.000170155
0.000146639
0.000126471
0.000111661
0.000111654
0.000105881
0.000100336
9.51184e-05
8.95898e-05
8.30021e-05
7.49338e-05
6.64011e-05
5.8163e-05
4.75867e-05
3.75314e-05
4.31553e-05
4.29044e-05
5.99416e-05
5.89339e-05
5.47685e-05
0.00340704
0.00961435
0.00185734
0.000422071
0.000278642
0.000318054
0.000553493
0.000702472
0.000762751
0.000794522
0.000803485
0.000766767
0.000671032
0.000537513
0.000404787
0.00030401
0.00024568
0.000221158
0.000208542
0.000194928
0.00017833
0.000160065
0.000142319
0.000127549
0.000119343
0.000115848
0.000114067
0.000111661
0.000107605
0.0001014
9.26668e-05
8.08868e-05
6.88337e-05
5.77245e-05
4.77178e-05
4.59087e-05
4.81232e-05
5.35533e-05
0.000164125
0.000118717
0.00475291
0.0117576
0.00411958
0.00135585
0.000800468
0.000766406
0.000972933
0.00101737
0.00100977
0.00100367
0.000989694
0.000925593
0.000789465
0.000610169
0.000438277
0.0003148
0.000250176
0.000228057
0.000220845
0.000212194
0.000199153
0.000183822
0.000169191
0.000158062
0.000152685
0.000151856
0.000151561
0.000149135
0.000144121
0.000137353
0.000129677
0.000120534
0.00010712
9.51198e-05
8.641e-05
8.21652e-05
8.30167e-05
9.12206e-05
0.000260359
0.000202604
0.00516943
0.0146108
0.00755329
0.00446357
0.00292282
0.00226455
0.00181538
0.00152505
0.00136642
0.0013002
0.0012532
0.00114358
0.000942582
0.000701375
0.000485812
0.000345919
0.000281465
0.000263079
0.000258215
0.000251685
0.000242176
0.000232496
0.000225156
0.000221656
0.000221741
0.000222772
0.000220876
0.000213868
0.000202717
0.000191538
0.000185586
0.00018801
0.000197421
0.000207963
0.000234155
0.000277432
0.000347485
0.000428917
0.00155572
0.000426313
0.00488729
0.00853657
0.00648721
0.0048164
0.00362044
0.00280262
0.00222661
0.00187794
0.00172196
0.00167725
0.00161377
0.0014246
0.00110923
0.000789478
0.000541108
0.000421951
0.000378508
0.000367441
0.000364669
0.000363538
0.000363198
0.000364749
0.000368246
0.000373656
0.000378854
0.000379497
0.000370451
0.000348493
0.00031534
0.000279621
0.00025423
0.000248519
0.000265965
0.000305672
0.000368326
0.000461534
0.00058675
0.000740396
0.000907732
0.000498384
0.00175938
0.00223722
0.00227094
0.00214788
0.00210352
0.0021546
0.00225555
0.00230255
0.00214941
0.00175656
0.00122965
0.000904754
0.000767153
0.000727364
0.000723467
0.000730739
0.000741245
0.000751998
0.000765531
0.000781383
0.000794998
0.000807993
0.000818002
0.000817547
0.000795998
0.000742785
0.000653761
0.000539888
0.000430934
0.000357392
0.000320574
0.000320366
0.000357985
0.000432657
0.00053569
0.000643274
0.000747827
0.000701815
0.00103085
0.00249714
0.00300568
0.0033773
0.00373645
0.00387918
0.00403162
0.00403972
0.00366357
0.00304121
0.0024233
0.00204616
0.00186515
0.00180651
0.00181398
0.0018523
0.00190275
0.0019551
0.00200159
0.00203822
0.0020674
0.00210067
0.0021404
0.0021757
0.00218365
0.00213261
0.00199527
0.00177137
0.0015024
0.0012212
0.000969981
0.000776631
0.000653475
0.000596525
0.000585243
0.000605428
0.00137782
0.000968627
0.000906354
0.00106264
0.00120862
0.00165962
0.0016885
0.00158272
0.00153345
0.00169219
0.00183031
0.00188945
0.00182186
0.00166647
0.00151824
0.00139534
0.00132243
0.00128648
0.00127001
0.00126193
0.0012559
0.00124862
0.00123953
0.0012302
0.001225
0.00121997
0.0012096
0.00118692
0.00114441
0.00107845
0.000994535
0.000907701
0.000821554
0.000745834
0.000684659
0.000640221
0.000613215
0.000601023
0.000593577
0.000570858
0.000582709
0.0005363
)
;

boundaryField
{
    floor
    {
        Cmu             0.09;
        kappa           0.41;
        E               9.8;
        type            epsilonWallFunction;
        value           nonuniform List<scalar> 
29
(
0.000188571
4.61423e-05
0.000115559
0.000111536
0.000108408
0.000102683
9.34205e-05
7.87663e-05
6.48016e-05
5.34109e-05
4.43948e-05
3.7259e-05
3.16037e-05
2.70308e-05
2.32417e-05
1.99921e-05
1.70545e-05
1.4281e-05
1.06426e-05
9.6184e-06
9.6184e-06
2.00787e-05
2.68763e-05
3.90895e-05
0.000188571
4.61423e-05
0.000146371
0.000237775
0.000568783
)
;
    }
    ceiling
    {
        Cmu             0.09;
        kappa           0.41;
        E               9.8;
        type            epsilonWallFunction;
        value           nonuniform List<scalar> 
43
(
0.000906354
0.00106264
0.00120862
0.00165962
0.0016885
0.00158272
0.00153345
0.00169219
0.00183031
0.00188945
0.00182186
0.00166647
0.00151824
0.00139534
0.00132243
0.00128648
0.00127001
0.00126193
0.0012559
0.00124862
0.00123953
0.0012302
0.001225
0.00121997
0.0012096
0.00118692
0.00114441
0.00107845
0.000994535
0.000907701
0.000821554
0.000745834
0.000684659
0.000640221
0.000613215
0.000601023
0.000593577
0.000570858
0.000582709
0.0005363
0.00488729
0.00853657
0.00103085
)
;
    }
    sWall
    {
        Cmu             0.09;
        kappa           0.41;
        E               9.8;
        type            epsilonWallFunction;
        value           uniform 0.000906354;
    }
    nWall
    {
        Cmu             0.09;
        kappa           0.41;
        E               9.8;
        type            epsilonWallFunction;
        value           nonuniform List<scalar> 6(5.47685e-05 0.000118717 0.000202604 0.000701815 0.000968627 0.0005363);
    }
    sideWalls
    {
        type            empty;
    }
    glass1
    {
        Cmu             0.09;
        kappa           0.41;
        E               9.8;
        type            epsilonWallFunction;
        value           nonuniform List<scalar> 9(0.000241685 0.000563105 0.000987395 0.00155544 0.00232866 0.00340704 0.00475291 0.00516943 0.00488729);
    }
    glass2
    {
        Cmu             0.09;
        kappa           0.41;
        E               9.8;
        type            epsilonWallFunction;
        value           nonuniform List<scalar> 2(0.000426313 0.000498384);
    }
    sun
    {
        Cmu             0.09;
        kappa           0.41;
        E               9.8;
        type            epsilonWallFunction;
        value           nonuniform List<scalar> 
14
(
0.000241685
0.000318839
0.000347588
0.000403671
0.000461055
0.000521205
0.000588063
0.000656948
0.000714332
0.00074736
0.000742089
0.000687938
0.000579084
0.000389323
)
;
    }
    heatsource1
    {
        Cmu             0.09;
        kappa           0.41;
        E               9.8;
        type            epsilonWallFunction;
        value           nonuniform List<scalar> 3(5.99416e-05 5.89339e-05 5.47685e-05);
    }
    heatsource2
    {
        Cmu             0.09;
        kappa           0.41;
        E               9.8;
        type            epsilonWallFunction;
        value           nonuniform List<scalar> 4(0.000348536 0.000135971 0.000135971 0.000349469);
    }
    Table_master
    {
        Cmu             0.09;
        kappa           0.41;
        E               9.8;
        type            epsilonWallFunction;
        value           nonuniform List<scalar> 9(0.000206569 0.000138718 9.68912e-05 7.04252e-05 5.30869e-05 4.13786e-05 3.32657e-05 2.75901e-05 2.37854e-05);
    }
    Table_slave
    {
        Cmu             0.09;
        kappa           0.41;
        E               9.8;
        type            epsilonWallFunction;
        value           nonuniform List<scalar> 9(0.000277801 0.000210207 0.000171996 0.000148248 0.000131533 0.000117426 0.000103513 9.04184e-05 7.64798e-05);
    }
    inlet
    {
        type            turbulentMixingLengthDissipationRateInlet;
        mixingLength    0.01;
        phi             phi;
        k               k;
        value           uniform 0.000101881;
    }
    outlet
    {
        type            zeroGradient;
    }
}


// ************************************************************************* //
