// -*- C++ -*-
// File generated by PyFoam - sorry for the ugliness

FoamFile
{
 version 2.0;
 format ascii;
 class volScalarField;
 location "600";
 object T;
}

dimensions [ 0 0 0 1 0 0 0 ];

internalField nonuniform List<scalar> 459
(
  303.605
  303.345
  303.332
  303.329
  303.326
  303.322
  303.318
  303.314
  303.307
  303.297
  303.285
  303.272
  303.261
  303.253
  303.25
  303.313
  303.293
  303.286
  303.286
  303.288
  303.29
  303.292
  303.294
  303.296
  303.299
  303.301
  303.302
  303.304
  303.306
  303.308
  303.309
  303.311
  303.314
  303.328
  303.785
  303.387
  303.365
  303.369
  303.373
  303.375
  303.374
  303.37
  303.36
  303.342
  303.317
  303.29
  303.266
  303.248
  303.237
  303.231
  303.226
  303.312
  303.282
  303.275
  303.275
  303.277
  303.278
  303.278
  303.278
  303.277
  303.277
  303.277
  303.276
  303.276
  303.275
  303.276
  303.278
  303.281
  303.287
  303.312
  303.97
  303.438
  303.4
  303.411
  303.426
  303.438
  303.445
  303.446
  303.433
  303.404
  303.361
  303.315
  303.277
  303.25
  303.236
  303.231
  303.23
  303.262
  303.263
  303.268
  303.274
  303.28
  303.283
  303.282
  303.28
  303.279
  303.277
  303.276
  303.274
  303.273
  303.271
  303.27
  303.271
  303.273
  303.277
  303.305
  304.157
  303.499
  303.433
  303.449
  303.477
  303.504
  303.526
  303.536
  303.52
  303.475
  303.408
  303.339
  303.285
  303.249
  303.232
  303.229
  303.232
  303.24
  303.249
  303.262
  303.275
  303.286
  303.295
  303.302
  303.307
  303.311
  303.315
  303.318
  303.321
  303.322
  303.323
  303.323
  303.322
  303.304
  303.288
  303.281
  303.303
  304.336
  303.577
  303.472
  303.481
  303.516
  303.558
  303.599
  303.622
  303.601
  303.535
  303.443
  303.351
  303.284
  303.243
  303.225
  303.225
  303.233
  303.246
  303.261
  303.279
  303.296
  303.31
  303.321
  303.33
  303.337
  303.343
  303.347
  303.35
  303.352
  303.351
  303.349
  303.344
  303.338
  303.323
  303.304
  303.288
  303.298
  303.359
  303.4
  303.407
  304.497
  303.678
  303.54
  303.523
  303.552
  303.599
  303.66
  303.687
  303.648
  303.559
  303.449
  303.346
  303.27
  303.226
  303.213
  303.22
  303.237
  303.259
  303.282
  303.305
  303.325
  303.341
  303.353
  303.361
  303.367
  303.372
  303.376
  303.377
  303.377
  303.375
  303.369
  303.362
  303.352
  303.337
  303.318
  303.299
  303.298
  303.324
  303.338
  303.371
  304.641
  303.839
  303.699
  303.656
  303.659
  303.689
  303.738
  303.732
  303.657
  303.538
  303.408
  303.299
  303.227
  303.195
  303.196
  303.218
  303.25
  303.284
  303.315
  303.341
  303.361
  303.375
  303.385
  303.391
  303.396
  303.399
  303.401
  303.402
  303.4
  303.395
  303.387
  303.377
  303.365
  303.35
  303.333
  303.314
  303.306
  303.313
  303.322
  303.35
  304.854
  304.254
  304.1
  303.996
  303.933
  303.91
  303.862
  303.753
  303.597
  303.43
  303.288
  303.193
  303.15
  303.152
  303.183
  303.231
  303.281
  303.324
  303.359
  303.381
  303.396
  303.407
  303.413
  303.418
  303.421
  303.423
  303.423
  303.422
  303.419
  303.414
  303.407
  303.395
  303.384
  303.371
  303.357
  303.344
  303.34
  303.352
  303.371
  303.497
  305.157
  304.879
  304.618
  304.386
  304.195
  304.026
  303.803
  303.534
  303.293
  303.125
  303.039
  303.023
  303.059
  303.127
  303.203
  303.277
  303.339
  303.377
  303.401
  303.416
  303.426
  303.433
  303.438
  303.441
  303.442
  303.443
  303.443
  303.442
  303.44
  303.438
  303.437
  303.439
  303.442
  303.45
  303.466
  303.49
  303.522
  303.555
  303.577
  303.63
  296.717
  299.096
  300.477
  301.049
  301.423
  301.786
  302.129
  302.433
  302.688
  302.894
  303.059
  303.209
  303.303
  303.362
  303.399
  303.421
  303.434
  303.444
  303.45
  303.454
  303.458
  303.46
  303.462
  303.464
  303.465
  303.467
  303.468
  303.47
  303.473
  303.476
  303.482
  303.491
  303.505
  303.524
  303.548
  303.57
  303.586
  303.603
  297.361
  299.374
  300.539
  301.274
  301.778
  302.166
  302.514
  302.784
  302.992
  303.147
  303.258
  303.336
  303.386
  303.418
  303.437
  303.449
  303.457
  303.463
  303.467
  303.47
  303.473
  303.476
  303.479
  303.481
  303.483
  303.486
  303.488
  303.49
  303.492
  303.495
  303.5
  303.507
  303.517
  303.53
  303.545
  303.562
  303.558
  303.586
  299.704
  299.627
  299.622
  301.335
  302.091
  302.491
  302.758
  302.956
  303.101
  303.208
  303.287
  303.345
  303.386
  303.413
  303.431
  303.442
  303.449
  303.454
  303.458
  303.462
  303.465
  303.468
  303.472
  303.475
  303.478
  303.481
  303.485
  303.488
  303.491
  303.494
  303.496
  303.5
  303.503
  303.508
  303.514
  303.524
  303.533
  303.538
  303.539
  303.577
)
;

boundaryField
{
  floor
  {
    type wallHeatTransfer;
    Tinf uniform 305.2;
    alphaWall uniform 0.24;
    value nonuniform List<scalar> 29
(
  303.44
  303.684
  303.619
  303.591
  303.597
  303.608
  303.621
  303.637
  303.654
  303.67
  303.686
  303.701
  303.716
  303.73
  303.743
  303.756
  303.77
  303.785
  303.796
  303.832
  303.832
  303.739
  303.694
  303.667
  303.44
  303.684
  303.658
  303.476
  303.411
)
;
  }
  ceiling
  {
    type wallHeatTransfer;
    Tinf uniform 303.2;
    alphaWall uniform 0.24;
    value nonuniform List<scalar> 43
(
  299.951
  299.868
  299.856
  301.452
  302.163
  302.539
  302.789
  302.973
  303.109
  303.207
  303.28
  303.331
  303.366
  303.388
  303.4
  303.407
  303.411
  303.414
  303.416
  303.419
  303.422
  303.425
  303.428
  303.431
  303.435
  303.438
  303.442
  303.446
  303.45
  303.454
  303.458
  303.462
  303.467
  303.473
  303.48
  303.491
  303.5
  303.504
  303.502
  303.534
  305.067
  304.811
  297.731
)
;
  }
  sWall
  {
    type wallHeatTransfer;
    Tinf uniform 315.2;
    alphaWall uniform 0.36;
    value uniform 301.299;
  }
  nWall
  {
    type wallHeatTransfer;
    Tinf uniform 307.2;
    alphaWall uniform 0.36;
    value nonuniform List<scalar> 6
(
  304.12
  304.071
  304
  304.125
  304.104
  304.165
)
;
  }
  sideWalls
  {
    type empty;
  }
  glass1
  {
    type wallHeatTransfer;
    Tinf uniform 315.2;
    alphaWall uniform 4.3;
    value nonuniform List<scalar> 9
(
  311.637
  310.995
  310.585
  310.27
  310.006
  309.767
  309.585
  309.651
  309.871
)
;
  }
  glass2
  {
    type wallHeatTransfer;
    Tinf uniform 307.2;
    alphaWall uniform 4.3;
    value nonuniform List<scalar> 2
(
  305.805
  305.897
)
;
  }
  sun
  {
    type wallHeatTransfer;
    Tinf uniform 305.2;
    alphaWall uniform 0.24;
    value nonuniform List<scalar> 14
(
  303.78
  303.536
  303.522
  303.513
  303.504
  303.496
  303.488
  303.48
  303.47
  303.459
  303.448
  303.439
  303.434
  303.434
)
;
  }
  heatsource1
  {
    type fixedGradient;
    gradient uniform 0;
  }
  heatsource2
  {
    type fixedGradient;
    gradient uniform 0;
  }
  Table_master
  {
    type zeroGradient;
  }
  Table_slave
  {
    type zeroGradient;
  }
  inlet
  {
    type fixedValue;
    value uniform 293.15;
  }
  outlet
  {
    type zeroGradient;
  }
} 	// ************************************************************************* //

