/*--------------------------------*- C++ -*----------------------------------*\
  =========                 |
  \\      /  F ield         | OpenFOAM: The Open Source CFD Toolbox
   \\    /   O peration     | Website:  https://openfoam.org
    \\  /    A nd           | Version:  6
     \\/     M anipulation  |
\*---------------------------------------------------------------------------*/
FoamFile
{
    version     2.0;
    format      ascii;
    class       surfaceScalarField;
    location    "530";
    object      phi;
}
// * * * * * * * * * * * * * * * * * * * * * * * * * * * * * * * * * * * * * //

dimensions      [1 0 -1 0 0 0 0];

internalField   nonuniform List<scalar> 
852
(
-0.00249764
0.00254062
-0.00333919
0.000841543
-0.00400879
0.000669596
-0.00455062
0.000541822
-0.00493311
0.000382489
-0.00513266
0.000199551
-0.00512534
-7.32638e-06
-0.00488692
-0.000238421
-0.0044143
-0.000472624
-0.00374187
-0.000672442
-0.002935
-0.000806871
-0.00207434
-0.00086066
-0.00124581
-0.000828534
-0.000542111
-0.000703703
-0.000545535
0.000147869
-0.000152797
0.000405768
-0.000257902
0.00078704
-0.000381275
0.00111699
-0.000329954
0.00136699
-0.000250007
0.00153993
-0.000172942
0.00162827
-8.83464e-05
0.00165912
-3.08556e-05
0.00166759
-8.46628e-06
0.00166611
1.47228e-06
0.00165683
9.27767e-06
0.00163886
1.79597e-05
0.0016069
3.19611e-05
0.00154611
6.07812e-05
0.0014216
0.000124502
0.00117298
0.000248618
0.000745532
0.000427445
3.31711e-05
0.000712356
2.6464e-05
-0.00181217
0.00446918
-0.0026597
0.00168907
-0.00336375
0.00137365
-0.00390448
0.00108255
-0.00428435
0.00076235
-0.00449036
0.000405556
-0.0044971
-5.91881e-07
-0.00428187
-0.000453649
-0.00384999
-0.00090451
-0.00324744
-0.00127499
-0.00254775
-0.00150657
-0.00183531
-0.0015731
-0.00119172
-0.00147213
-0.000677408
-0.00121802
-0.000386339
-0.000836608
-2.42867e-05
-0.000362107
-2.43411e-05
-3.09299e-05
-0.000134003
0.000670597
-0.000959434
0.00102409
-0.000734774
0.00127945
-0.000585321
0.00147568
-0.000446234
0.00160846
-0.000305728
0.00163845
-0.000118345
0.00164663
-3.90414e-05
0.00165438
-1.62218e-05
0.00166056
-4.71045e-06
0.00166436
5.47133e-06
0.00166572
1.6603e-05
0.00166351
3.41622e-05
0.00165285
7.14362e-05
0.00159838
0.00017897
0.00138664
0.000460351
0.0010216
0.000792479
0.000636015
0.00109794
0.000644233
-0.00129976
0.00594767
-0.00205025
0.00243955
-0.00269073
0.00201412
-0.0031658
0.00155761
-0.00350864
0.00110519
-0.003705
0.000601913
-0.00371754
1.19414e-05
-0.00350595
-0.000665245
-0.0030881
-0.00132236
-0.0025292
-0.0018339
-0.00190711
-0.00212866
-0.0012941
-0.0021861
-0.000748166
-0.00201807
-0.000315422
-0.00165077
-1.28399e-05
-0.00113919
0.000154345
-0.000529296
0.00013
0.000966213
-0.00111766
0.00105905
-0.00105227
0.0012776
-0.000953333
0.00143725
-0.000744968
0.00155079
-0.000559782
0.00166944
-0.000424384
0.00155124
0.00151235
0.00149627
0.00149171
0.00149733
0.00151407
0.00154838
0.00161996
0.00179908
0.00159385
0.000665582
0.00134213
0.00104419
0.000963129
0.00147693
0.0015785
-0.000936701
0.00711656
-0.00155063
0.00305347
-0.00199858
0.00246207
-0.00233483
0.00189386
-0.00259029
0.00136065
-0.0027441
0.000755714
-0.00273608
3.91371e-06
-0.00249604
-0.000905281
-0.00208157
-0.00173684
-0.00157911
-0.00233636
-0.0010586
-0.00264916
-0.000569158
-0.00267555
-0.000136847
-0.00245038
0.000235054
-0.00202267
0.000567621
-0.00147176
0.000934675
-0.000896354
0.00153874
-0.000474072
0.00208082
-0.000559299
0.00188392
-0.000920765
0.00171827
-0.000886623
0.00156825
-0.000803323
0.00149235
-0.000669066
0.00145931
-0.000526752
0.00140916
-0.000374232
0.0015906
-0.000181603
0.00171576
-0.000125316
0.00182779
-0.000112178
0.0019331
-0.000105473
0.00202465
-9.16983e-05
0.00208605
-6.15609e-05
0.00208664
-7.47889e-07
0.00198118
0.000105303
0.00169953
0.000281492
0.00168816
0.000676948
0.00158619
0.00114616
0.00138467
0.00167845
0.00292565
-0.000676819
0.00807135
-0.00115706
0.00353371
-0.00129642
0.00260143
-0.00142332
0.00202075
-0.00153028
0.00146761
-0.00158457
0.000809998
-0.00150283
-7.7833e-05
-0.00120265
-0.00120546
-0.000814523
-0.00212497
-0.000417855
-0.00273303
-5.43207e-05
-0.0030127
0.000255835
-0.0029857
0.000511467
-0.00270602
0.000739348
-0.00225056
0.000972733
-0.00170515
0.0012508
-0.00117443
0.00156901
-0.000792286
0.0017323
-0.000722592
0.00157094
-0.000759405
0.00141845
-0.000734145
0.0012786
-0.000663476
0.00117842
-0.000568885
0.00111881
-0.000467153
0.0011053
-0.000360722
0.00118523
-0.000261541
0.00127755
-0.000217638
0.0013737
-0.000208341
0.00147265
-0.000204427
0.0015693
-0.000188353
0.00165389
-0.000146159
0.00171202
-5.88779e-05
0.00172643
9.088e-05
0.0016973
0.000310623
0.00173788
0.000636359
0.00188761
0.000996415
0.00238963
0.00117642
0.00366613
0.00164915
0.00244701
0.00121891
0.00149122
0.00095559
0.00153141
-0.000597573
0.00898592
-0.000936322
0.00387245
-0.000639515
0.00230462
-0.000468114
0.00184935
-0.00037351
0.001373
-0.000247508
0.00068399
2.15836e-05
-0.000346931
0.000362592
-0.00154647
0.000661848
-0.00242422
0.000882645
-0.00295382
0.00102084
-0.00315089
0.0010936
-0.00305846
0.00112689
-0.00273931
0.00114629
-0.00226996
0.00117755
-0.00173642
0.00123777
-0.00123466
0.00130618
-0.000860692
0.00127051
-0.000686931
0.00113129
-0.000620191
0.000972217
-0.000575074
0.000829064
-0.000520328
0.000720866
-0.000460692
0.000656387
-0.00040268
0.000643981
-0.000348321
0.000688287
-0.000305853
0.000762819
-0.000292176
0.000851065
-0.000296593
0.000946545
-0.000299914
0.00104606
-0.000287879
0.00114828
-0.000248384
0.00125398
-0.00016458
0.00135495
-1.00988e-05
0.00144659
0.000218981
0.00158037
0.000502567
0.00178674
0.000790041
0.00200528
0.000957877
0.00230427
0.00135015
0.0020215
0.00150168
0.00123332
0.00174376
0.00280741
-0.000708468
0.0100462
-0.00062966
0.00379364
0.000214632
0.00146032
0.000670895
0.00139308
0.000970934
0.00107295
0.00136204
0.000292883
0.00181973
-0.000804635
0.00211114
-0.00183788
0.00223797
-0.00255106
0.00221432
-0.00293017
0.00207546
-0.00301203
0.00186484
-0.00284785
0.00162508
-0.00249956
0.00139044
-0.00203531
0.00118523
-0.00153122
0.00102242
-0.00107185
0.000890427
-0.000728702
0.000742488
-0.000538997
0.000576098
-0.000453806
0.000411673
-0.000410654
0.000271147
-0.000379807
0.000166301
-0.000355851
0.000103044
-0.000339428
8.52721e-05
-0.000330556
0.000110699
-0.000331285
0.000163758
-0.000345242
0.000230874
-0.000363716
0.000305633
-0.00037468
0.000386585
-0.000368837
0.000477562
-0.000339368
0.000590194
-0.000277219
0.00074121
-0.000161122
0.000917011
4.3173e-05
0.00110872
0.000310852
0.00132252
0.000576228
0.0014903
0.000790095
0.00170609
0.00113436
0.00181376
0.001394
0.00153419
0.00202332
0.00438642
0.00201672
0.00842247
0.00257028
0.00324007
0.00262481
0.00140579
0.00285369
0.00116419
0.00317646
0.000750181
0.00365246
-0.00018313
0.00400971
-0.00116189
0.00406071
-0.00188888
0.00384461
-0.00233496
0.00344177
-0.00252732
0.00293023
-0.00250048
0.00237741
-0.00229503
0.00183824
-0.00196039
0.00134908
-0.00154616
0.000930076
-0.00111222
0.000594442
-0.000736222
0.000334388
-0.000468654
0.00012435
-0.000328964
-5.65259e-05
-0.000272936
-0.000210917
-0.000256268
-0.000335056
-0.000255675
-0.000428206
-0.000262706
-0.000490543
-0.000277098
-0.000522883
-0.000298222
-0.000528734
-0.000325441
-0.000516896
-0.000357087
-0.000494579
-0.00038604
-0.000466113
-0.000403153
-0.000434426
-0.00040053
-0.000399251
-0.00037455
-0.000348166
-0.00032831
-0.000247513
-0.000261782
-6.14816e-05
-0.000142866
0.00017356
7.58034e-05
0.000408064
0.000341717
0.000591947
0.000606205
0.00080815
0.00091815
0.00100536
0.00119679
0.000588192
0.00244048
0.005164
0.00882519
0.0120355
0.0103359
0.00310543
0.0092474
0.00225264
0.00851172
0.00148586
0.00785556
0.000473026
0.00704048
-0.000346807
0.00609897
-0.000947357
0.00510991
-0.00134589
0.0041235
-0.0015409
0.00317397
-0.00155096
0.00229357
-0.00141462
0.00151664
-0.00118347
0.000861462
-0.000890993
0.000329491
-0.00058026
-6.66469e-05
-0.000340092
-0.00034299
-0.000192318
-0.00053855
-0.00013341
-0.000689415
-0.000122077
-0.000812103
-0.000133586
-0.000914283
-0.000153502
-0.00100124
-0.000175758
-0.00107556
-0.000202785
-0.00113953
-0.000234255
-0.00119564
-0.000269335
-0.00124695
-0.000305791
-0.0012952
-0.000337795
-0.00134243
-0.000355933
-0.0013956
-0.000347367
-0.00147186
-0.000298296
-0.00159326
-0.000206916
-0.00177308
-8.19705e-05
-0.00201201
9.60651e-05
-0.00230242
0.0003662
-0.00270723
0.000746522
-0.00336846
0.00126743
-0.00442369
0.00197338
-0.00594891
0.00272199
-0.00626797
0.00275953
-0.000900108
0.00384765
0.00348963
0.00373288
0.00236743
0.00444897
0.000769786
0.00469186
0.000230161
0.00451933
-0.000174255
0.00408803
-0.000516042
0.00346803
-0.000725882
0.00272583
-0.000798691
0.00192868
-0.000753814
0.00114244
-0.000628395
0.000434804
-0.000475838
-0.000146163
-0.000310037
-0.000568308
-0.000158124
-0.000835597
-7.28121e-05
-0.00100379
-2.41321e-05
-0.00112289
-1.4314e-05
-0.00121849
-2.64826e-05
-0.00130359
-4.84978e-05
-0.00138574
-7.13536e-05
-0.00147146
-9.00527e-05
-0.00156354
-0.000110709
-0.00166517
-0.000132629
-0.001779
-0.000155517
-0.00190603
-0.000178768
-0.00204399
-0.000199834
-0.00218715
-0.000212789
-0.00232868
-0.000205842
-0.00246873
-0.000158253
-0.00261202
-6.36262e-05
-0.0027608
6.6795e-05
-0.00290372
0.000238982
-0.0030261
0.000488577
-0.00312708
0.000847491
-0.00319454
0.00133489
-0.00318263
0.00196146
-0.00297136
0.00251072
-0.00131044
0.00109861
-0.0021665
0.000529652
0.00294648
0.00195561
0.000941491
0.00236803
0.000357387
0.00242069
0.000177513
0.00222677
1.9675e-05
0.00186134
-0.000150611
0.00136111
-0.00022566
0.000786499
-0.000224091
0.00021729
-0.000184619
-0.000288926
-0.000122196
-0.000712905
-5.18714e-05
-0.0010291
6.1428e-06
-0.00122949
4.22583e-05
-0.00135753
5.52195e-05
-0.00143506
5.33949e-05
-0.00149176
4.23797e-05
-0.00154579
2.7535e-05
-0.00160605
1.17585e-05
-0.00167355
-3.85637e-06
-0.00174544
-1.81751e-05
-0.00182535
-3.08002e-05
-0.00191654
-4.1448e-05
-0.00202343
-4.86315e-05
-0.00215159
-5.06187e-05
-0.00230561
-4.58223e-05
-0.00248536
-3.30406e-05
-0.00267949
-1.1717e-05
-0.00285829
2.05379e-05
-0.00298767
6.57423e-05
-0.00305459
0.000133708
-0.00304963
0.000234017
-0.00293344
0.000372383
-0.00265477
0.000568815
-0.00214739
0.000827506
-0.00121732
0.00103138
0.000340458
0.000952931
0.00141715
2.19122e-05
-0.000704907
-0.00357977
-0.00491185
-0.00198871
-0.00108007
-0.000761719
-0.00062656
-0.000651888
-0.000849014
-0.00112218
-0.00139447
-0.00162796
-0.00179989
-0.00190271
-0.00194884
-0.00195996
-0.00195897
-0.00196036
-0.00197313
-0.00200101
-0.0020449
-0.00210462
-0.00217878
-0.00226565
-0.00236324
-0.00246808
-0.00257509
-0.00267772
-0.00276833
-0.00283881
-0.00287853
-0.00287478
-0.0028049
-0.00263655
-0.0023315
-0.0018314
-0.00107362
-0.000112813
0.000768634
0.000720768
)
;

boundaryField
{
    floor
    {
        type            calculated;
        value           nonuniform List<scalar> 
29
(
0
0
0
0
0
0
0
0
0
0
0
0
0
0
0
0
0
0
0
0
6.70363e-06
1.82405e-05
2.88548e-05
3.75131e-05
3.42174e-06
4.92504e-06
1.21323e-05
1.74403e-05
1.7216e-05
)
;
    }
    ceiling
    {
        type            calculated;
        value           nonuniform List<scalar> 
43
(
2.83053e-05
2.5052e-05
2.33469e-05
3.28529e-05
3.90266e-05
4.2336e-05
4.49777e-05
4.64912e-05
4.7484e-05
4.81846e-05
4.88496e-05
4.97284e-05
5.09316e-05
5.22678e-05
5.3367e-05
5.42204e-05
5.47815e-05
5.51419e-05
5.54074e-05
5.56446e-05
5.58501e-05
5.59788e-05
5.60686e-05
5.61287e-05
5.6205e-05
5.63861e-05
5.67961e-05
5.7564e-05
5.87553e-05
6.02574e-05
6.1979e-05
6.38289e-05
6.5657e-05
6.73309e-05
6.87054e-05
6.97251e-05
7.05643e-05
7.14783e-05
6.97714e-05
7.20182e-05
3.63522e-05
2.97647e-05
1.35042e-05
)
;
    }
    sWall
    {
        type            calculated;
        value           uniform -0.000220345;
    }
    nWall
    {
        type            calculated;
        value           nonuniform List<scalar> 6(-4.04028e-05 -4.26852e-05 -4.48172e-05 -4.40545e-05 -4.44508e-05 -5.61634e-05);
    }
    sideWalls
    {
        type            empty;
        value           nonuniform 0();
    }
    glass1
    {
        type            calculated;
        value           nonuniform List<scalar> 9(-4.29837e-05 -0.000116399 -0.000178729 -0.000232186 -0.000277974 -0.000317007 -0.000351779 -0.00039303 -0.000439074);
    }
    glass2
    {
        type            calculated;
        value           nonuniform List<scalar> 2(-0.0001894 -0.00020386);
    }
    sun
    {
        type            calculated;
        value           uniform 0;
    }
    heatsource1
    {
        type            calculated;
        value           nonuniform List<scalar> 3(2.00246e-07 2.00777e-07 2.01182e-07);
    }
    heatsource2
    {
        type            calculated;
        value           nonuniform List<scalar> 4(5.03869e-08 5.04839e-08 0 0);
    }
    Table_master
    {
        type            calculated;
        value           nonuniform List<scalar> 9(-1.50753e-07 -1.50844e-07 -1.50869e-07 -1.50884e-07 -1.50891e-07 -1.50893e-07 -1.50888e-07 -1.50871e-07 -1.50819e-07);
    }
    Table_slave
    {
        type            calculated;
        value           nonuniform List<scalar> 9(1.50682e-07 1.50696e-07 1.50661e-07 1.50626e-07 1.50595e-07 1.50575e-07 1.50577e-07 1.50584e-07 1.50628e-07);
    }
    inlet
    {
        type            calculated;
        value           uniform -0.00423184;
    }
    outlet
    {
        type            calculated;
        value           nonuniform List<scalar> 2(0.00377181 0.00130703);
    }
}


// ************************************************************************* //
