/*--------------------------------*- C++ -*----------------------------------*\
  =========                 |
  \\      /  F ield         | OpenFOAM: The Open Source CFD Toolbox
   \\    /   O peration     | Website:  https://openfoam.org
    \\  /    A nd           | Version:  6
     \\/     M anipulation  |
\*---------------------------------------------------------------------------*/
FoamFile
{
    version     2.0;
    format      ascii;
    class       volScalarField;
    location    "690";
    object      epsilon;
}
// * * * * * * * * * * * * * * * * * * * * * * * * * * * * * * * * * * * * * //

dimensions      [0 2 -3 0 0 0 0];

internalField   nonuniform List<scalar> 
459
(
0.00018516
0.000232146
0.000242491
0.000274922
0.000305712
0.000334888
0.000363236
0.000391879
0.000422528
0.000450593
0.000471718
0.000481813
0.000477828
0.000461172
0.000438113
8.36569e-05
0.000140124
0.000114403
8.57816e-05
6.21522e-05
4.62602e-05
3.42377e-05
2.54095e-05
1.91712e-05
1.4747e-05
1.15476e-05
9.18738e-06
7.40857e-06
6.03033e-06
4.92603e-06
4.01609e-06
3.96139e-06
1.2724e-05
3.44136e-05
0.000483425
0.000765361
0.00021757
0.000208477
0.000210503
0.000215441
0.000224119
0.000238709
0.000261493
0.000289527
0.000318132
0.000341438
0.000354493
0.000360238
0.000385186
0.000502365
0.000290228
0.000196527
0.000282745
0.000157391
0.000104361
7.28328e-05
5.23693e-05
3.88227e-05
2.8379e-05
2.1021e-05
1.58497e-05
1.21758e-05
9.53652e-06
7.62499e-06
6.26283e-06
5.45983e-06
5.27606e-06
1.44917e-05
5.53209e-05
5.97772e-05
0.000914767
0.00198104
0.000265142
0.00019376
0.000190569
0.000197233
0.00021026
0.000231036
0.00026045
0.000297166
0.000336204
0.000371399
0.00039862
0.00041816
0.000436193
0.00045865
0.000646877
0.000401437
0.000257177
0.00016898
0.000119896
8.85291e-05
6.72489e-05
9.30783e-05
5.80767e-05
3.92412e-05
2.80932e-05
2.10307e-05
1.63244e-05
1.30751e-05
1.07944e-05
9.23804e-06
7.06326e-06
1.32114e-05
6.92595e-05
7.93021e-05
0.00153748
0.00423236
0.00041553
0.000187785
0.000175518
0.000183371
0.000197847
0.00022086
0.000255711
0.000300691
0.000346301
0.000387382
0.000423682
0.00045513
0.000476194
0.000468421
0.000425442
0.000739973
0.00043454
0.000265922
0.000178838
0.000127448
9.48021e-05
7.57981e-05
0.000151746
0.00010803
7.91673e-05
5.97468e-05
4.63014e-05
3.6614e-05
2.9239e-05
2.32134e-05
1.77311e-05
9.89919e-06
1.27201e-05
0.000100236
0.000100252
0.00242284
0.00774024
0.000812597
0.000200774
0.000161232
0.000167135
0.000182965
0.00021212
0.000263816
0.000326033
0.000378087
0.000421658
0.000463346
0.000503004
0.000528363
0.000513372
0.000449986
0.00037188
0.000284926
0.000210361
0.000153427
0.000112745
8.61373e-05
7.16222e-05
7.20664e-05
6.2069e-05
5.1147e-05
4.1862e-05
3.44665e-05
2.85572e-05
2.36463e-05
1.93321e-05
1.51724e-05
1.13071e-05
1.18189e-05
5.27728e-05
9.11225e-05
9.46034e-05
0.00017692
0.000562018
0.00367484
0.0117494
0.00185359
0.000310399
0.000176362
0.000166137
0.000177882
0.000215133
0.000313722
0.000398228
0.000449636
0.000491185
0.000537625
0.000585967
0.00061594
0.000598249
0.000521359
0.000411928
0.000305593
0.00021774
0.000152114
0.000107814
8.15524e-05
6.85961e-05
6.2941e-05
5.65075e-05
4.95632e-05
4.31624e-05
3.75967e-05
3.26941e-05
2.81922e-05
2.38947e-05
1.96765e-05
1.61608e-05
1.55702e-05
2.3782e-05
5.56216e-05
0.000169209
0.000841991
0.00134376
0.00533869
0.0142847
0.00440196
0.00103512
0.000469972
0.000324313
0.000294209
0.000347142
0.000487589
0.000552649
0.000579641
0.000609311
0.000659836
0.000721214
0.000764067
0.000748282
0.000653726
0.000510323
0.000366409
0.000248506
0.000165735
0.000114852
8.86204e-05
7.71644e-05
7.19057e-05
6.74866e-05
6.29545e-05
5.86991e-05
5.48923e-05
5.13917e-05
4.79655e-05
4.44036e-05
4.05204e-05
3.64724e-05
3.34082e-05
3.6091e-05
7.56041e-05
0.000533963
0.0027162
0.00314683
0.00592716
0.0189851
0.00919015
0.00486718
0.00264706
0.00157311
0.00111282
0.000992973
0.00090988
0.000833577
0.000787803
0.000796113
0.000857344
0.000940781
0.00100252
0.000986556
0.00086045
0.000664239
0.000467975
0.000313512
0.000216326
0.000163783
0.000139387
0.000127737
0.000122549
0.000119894
0.000118266
0.00011743
0.000117345
0.000117854
0.000118671
0.000119323
0.000119037
0.000116641
0.000110209
0.000108466
0.000187972
0.00113678
0.0095206
0.00764444
0.00565863
0.0103219
0.00790018
0.0057794
0.00414875
0.00298169
0.0022259
0.00172705
0.00136684
0.00113747
0.00104326
0.00107451
0.00118667
0.00131388
0.00140297
0.00137911
0.00119638
0.000926652
0.000678196
0.00051522
0.000413774
0.000362785
0.000335875
0.000321494
0.000315573
0.000315062
0.000318148
0.000324103
0.000332703
0.000343825
0.00035715
0.000371845
0.000386449
0.000399795
0.000400041
0.000380313
0.000503679
0.00189287
0.0130102
0.0103533
0.00250691
0.00306478
0.00281187
0.00233567
0.00189283
0.00154052
0.00132586
0.00128579
0.00140898
0.0016422
0.00189347
0.00208724
0.00221807
0.00217993
0.00191245
0.00159523
0.00138034
0.00122633
0.00112266
0.00107308
0.00103972
0.00102015
0.00101208
0.00101385
0.00102414
0.00104222
0.00106801
0.0011019
0.00114415
0.00119384
0.00124817
0.00130662
0.0013221
0.00129216
0.00141335
0.00271174
0.00942202
0.00612475
0.00146587
0.00238232
0.00238371
0.00217182
0.00202603
0.00206277
0.00233318
0.00275495
0.00327828
0.00376889
0.00409552
0.00429257
0.0046101
0.00471148
0.00444685
0.00409034
0.00379837
0.00354732
0.00334591
0.00320748
0.00312416
0.00307479
0.00305295
0.00305528
0.00307795
0.00311811
0.00317505
0.00325011
0.00334553
0.00346073
0.00358143
0.00365258
0.00359821
0.003381
0.00318723
0.00361125
0.00509256
0.00353724
0.000854974
0.00105442
0.0012813
0.0016361
0.00162162
0.00146218
0.00130783
0.00116785
0.00107204
0.00109811
0.00121198
0.00137875
0.00155235
0.00173021
0.00203745
0.00222513
0.00225363
0.00219526
0.00212
0.00205873
0.00201809
0.00198967
0.00197146
0.00196266
0.00196171
0.00196705
0.00197723
0.00199117
0.00200815
0.00202746
0.00204769
0.00206484
0.00206912
0.00204812
0.00199783
0.0019639
0.00206984
0.0023998
0.00272079
0.00200791
)
;

boundaryField
{
    floor
    {
        Cmu             0.09;
        kappa           0.41;
        E               9.8;
        type            epsilonWallFunction;
        value           nonuniform List<scalar> 
29
(
0.000438113
8.36569e-05
0.000140124
0.000114403
8.57816e-05
6.21522e-05
4.62602e-05
3.42377e-05
2.54095e-05
1.91712e-05
1.4747e-05
1.15476e-05
9.18738e-06
7.40857e-06
6.03033e-06
4.92603e-06
4.01609e-06
3.96139e-06
1.2724e-05
3.44136e-05
3.44136e-05
5.97772e-05
7.93021e-05
0.000100252
0.000438113
8.36569e-05
0.000196527
0.000401437
0.000739973
)
;
    }
    ceiling
    {
        Cmu             0.09;
        kappa           0.41;
        E               9.8;
        type            epsilonWallFunction;
        value           nonuniform List<scalar> 
43
(
0.000854974
0.00105442
0.0012813
0.0016361
0.00162162
0.00146218
0.00130783
0.00116785
0.00107204
0.00109811
0.00121198
0.00137875
0.00155235
0.00173021
0.00203745
0.00222513
0.00225363
0.00219526
0.00212
0.00205873
0.00201809
0.00198967
0.00197146
0.00196266
0.00196171
0.00196705
0.00197723
0.00199117
0.00200815
0.00202746
0.00204769
0.00206484
0.00206912
0.00204812
0.00199783
0.0019639
0.00206984
0.0023998
0.00272079
0.00200791
0.00565863
0.0103219
0.00146587
)
;
    }
    sWall
    {
        Cmu             0.09;
        kappa           0.41;
        E               9.8;
        type            epsilonWallFunction;
        value           uniform 0.000854974;
    }
    nWall
    {
        Cmu             0.09;
        kappa           0.41;
        E               9.8;
        type            epsilonWallFunction;
        value           nonuniform List<scalar> 6(0.000562018 0.00134376 0.00314683 0.00612475 0.00353724 0.00200791);
    }
    sideWalls
    {
        type            empty;
    }
    glass1
    {
        Cmu             0.09;
        kappa           0.41;
        E               9.8;
        type            epsilonWallFunction;
        value           nonuniform List<scalar> 9(0.00018516 0.000483425 0.000914767 0.00153748 0.00242284 0.00367484 0.00533869 0.00592716 0.00565863);
    }
    glass2
    {
        Cmu             0.09;
        kappa           0.41;
        E               9.8;
        type            epsilonWallFunction;
        value           nonuniform List<scalar> 2(0.00764444 0.0103533);
    }
    sun
    {
        Cmu             0.09;
        kappa           0.41;
        E               9.8;
        type            epsilonWallFunction;
        value           nonuniform List<scalar> 
14
(
0.00018516
0.000232146
0.000242491
0.000274922
0.000305712
0.000334888
0.000363236
0.000391879
0.000422528
0.000450593
0.000471718
0.000481813
0.000477828
0.000461172
)
;
    }
    heatsource1
    {
        Cmu             0.09;
        kappa           0.41;
        E               9.8;
        type            epsilonWallFunction;
        value           nonuniform List<scalar> 3(9.46034e-05 0.00017692 0.000562018);
    }
    heatsource2
    {
        Cmu             0.09;
        kappa           0.41;
        E               9.8;
        type            epsilonWallFunction;
        value           nonuniform List<scalar> 4(0.000502365 0.000290228 0.000290228 0.000646877);
    }
    Table_master
    {
        Cmu             0.09;
        kappa           0.41;
        E               9.8;
        type            epsilonWallFunction;
        value           nonuniform List<scalar> 9(9.30783e-05 5.80767e-05 3.92412e-05 2.80932e-05 2.10307e-05 1.63244e-05 1.30751e-05 1.07944e-05 9.23804e-06);
    }
    Table_slave
    {
        Cmu             0.09;
        kappa           0.41;
        E               9.8;
        type            epsilonWallFunction;
        value           nonuniform List<scalar> 9(0.000151746 0.00010803 7.91673e-05 5.97468e-05 4.63014e-05 3.6614e-05 2.9239e-05 2.32134e-05 1.77311e-05);
    }
    inlet
    {
        type            turbulentMixingLengthDissipationRateInlet;
        mixingLength    0.01;
        phi             phi;
        k               k;
        value           uniform 0.000101881;
    }
    outlet
    {
        type            zeroGradient;
    }
}


// ************************************************************************* //
