/*--------------------------------*- C++ -*----------------------------------*\
  =========                 |
  \\      /  F ield         | OpenFOAM: The Open Source CFD Toolbox
   \\    /   O peration     | Website:  https://openfoam.org
    \\  /    A nd           | Version:  6
     \\/     M anipulation  |
\*---------------------------------------------------------------------------*/
FoamFile
{
    version     2.0;
    format      ascii;
    class       volScalarField;
    location    "70";
    object      nut;
}
// * * * * * * * * * * * * * * * * * * * * * * * * * * * * * * * * * * * * * //

dimensions      [0 2 -1 0 0 0 0];

internalField   nonuniform List<scalar> 
459
(
0.00108014
0.00120954
0.00127579
0.00135561
0.00143819
0.00152243
0.00159059
0.00163254
0.00163561
0.00155475
0.00146432
0.00135869
0.00123842
0.00112601
0.00100504
0.000607709
0.000719258
0.00076908
0.000759662
0.000718695
0.000658819
0.000586401
0.000516343
0.000455015
0.000400183
0.000351819
0.000310873
0.00027823
0.000254124
0.000238621
0.00023518
0.000265111
0.000374062
0.000519537
0.00132822
0.00350319
0.00366111
0.00431138
0.00491044
0.00535591
0.00576523
0.00614365
0.00646055
0.00651912
0.00627125
0.00583553
0.00513167
0.00398229
0.00258803
0.00113492
0.000969302
0.00087718
0.00255552
0.00216153
0.00223418
0.00228218
0.00211505
0.00156833
0.00134397
0.00114033
0.000962862
0.000818603
0.000703314
0.000612605
0.000544399
0.000503338
0.000489171
0.000566172
0.000758496
0.000615404
0.00153312
0.0048623
0.00466904
0.00517836
0.00547999
0.0056966
0.00595416
0.0063854
0.00695486
0.00732227
0.00738667
0.00720744
0.00680335
0.00593101
0.00457427
0.00282885
0.00107269
0.000921827
0.00272379
0.00232898
0.00249297
0.00269072
0.00252246
0.000796339
0.000640801
0.000530393
0.000451623
0.000390772
0.000341646
0.000302971
0.000275565
0.0002623
0.000344993
0.000593349
0.000958587
0.000671731
0.00173014
0.00593208
0.00504262
0.0053899
0.00539011
0.00535454
0.00545772
0.0059466
0.00665327
0.0072026
0.00745704
0.0074481
0.00724451
0.00674649
0.0058012
0.00431023
0.00219874
0.00112398
0.0013636
0.00174997
0.00235824
0.00294686
0.00327413
0.00309253
0.000933793
0.000832393
0.000743345
0.000654162
0.000565205
0.000499128
0.000479182
0.000488096
0.000494461
0.000712115
0.000934815
0.00138757
0.000764499
0.00193516
0.00717558
0.00562682
0.00575665
0.00550388
0.00517387
0.00517388
0.00570861
0.00649056
0.00713992
0.00745663
0.00747132
0.00731097
0.00700365
0.00642457
0.00542452
0.00395319
0.00305335
0.00309077
0.00351244
0.00403024
0.00438608
0.00445163
0.00420173
0.00349812
0.00284858
0.00219217
0.00176217
0.00168575
0.00196338
0.0023716
0.0026632
0.0026991
0.00237869
0.00200864
0.00196022
0.00134209
0.000844312
0.000770952
0.000661939
0.00215585
0.00857637
0.0070838
0.00656179
0.00576739
0.00513463
0.00509992
0.00570567
0.00659332
0.00731545
0.00763292
0.00759147
0.00739381
0.00718055
0.00688379
0.00636144
0.00561489
0.00528395
0.0055252
0.00583329
0.0060024
0.00594905
0.00566434
0.00518456
0.00454257
0.00373177
0.00302647
0.00275367
0.00298103
0.00341922
0.0037539
0.00387331
0.00377001
0.00348372
0.00310416
0.00268284
0.00205649
0.00146793
0.0011735
0.000655125
0.00233645
0.00943735
0.00884189
0.00728466
0.00582238
0.00500691
0.00509679
0.00590434
0.006954
0.0077399
0.00802311
0.00791207
0.00772521
0.00764505
0.00753882
0.0073279
0.0070785
0.00710822
0.00733374
0.00741186
0.00725218
0.00686421
0.00630238
0.00561481
0.00477527
0.00409345
0.00371676
0.00371096
0.00394199
0.00416865
0.00426193
0.00419289
0.00397005
0.0036589
0.00330576
0.0028113
0.00229037
0.00171356
0.00141841
0.000642873
0.00237123
0.00782571
0.00731955
0.00591197
0.00479654
0.00451621
0.00515053
0.006367
0.00761382
0.0083975
0.00858869
0.0084376
0.00834534
0.00818778
0.00806453
0.00799243
0.00796707
0.00804524
0.00807884
0.00789547
0.00745499
0.00677842
0.00598879
0.00523841
0.00463463
0.00425393
0.0040976
0.00411904
0.00421193
0.00426803
0.00422151
0.00402657
0.00365152
0.00311693
0.00251536
0.00196705
0.00158518
0.0012593
0.00105403
0.000740845
0.00231458
0.00271194
0.00280487
0.00274821
0.00301524
0.00404023
0.00567525
0.00737712
0.00863263
0.0091392
0.00916502
0.00873975
0.00824579
0.00791313
0.00778117
0.007779
0.00780917
0.00775991
0.00752469
0.00705907
0.00640994
0.00569357
0.00505979
0.00459508
0.00431183
0.00418986
0.0041904
0.00426834
0.00436273
0.00440751
0.00434422
0.00412804
0.00374039
0.00320435
0.00258697
0.00198911
0.0015251
0.0012484
0.00117767
0.00129029
0.000590148
0.00149155
0.00380282
0.00628018
0.00820944
0.0092711
0.0096386
0.00920226
0.00855723
0.00797812
0.00760068
0.00740561
0.00731899
0.0072606
0.00715235
0.00692849
0.00658289
0.00616685
0.0057544
0.00540774
0.00516198
0.00502216
0.00497889
0.00501876
0.00512147
0.00525616
0.00537936
0.00544229
0.00540161
0.00522831
0.00491494
0.00448077
0.0039723
0.00345532
0.00300717
0.00271932
0.00269808
0.00154519
0.00157989
0.00671445
0.00903388
0.0100194
0.0102649
0.00986622
0.00910249
0.00833189
0.00775914
0.00742083
0.00723425
0.00712328
0.00704356
0.00697277
0.0068933
0.00678917
0.00665535
0.00650186
0.00634578
0.00620506
0.00609642
0.00603447
0.0060336
0.00610368
0.00624074
0.0064225
0.0066091
0.00675271
0.00681048
0.00675237
0.00656374
0.00624643
0.00582014
0.00532466
0.00484683
0.00464122
0.00473832
0.001927
0.00164456
0.00179025
0.00194652
0.00221102
0.00222544
0.00219304
0.00210938
0.00200875
0.00189901
0.00181382
0.00176282
0.00173563
0.00172325
0.0017197
0.0017207
0.00172278
0.00172293
0.00171926
0.00171199
0.00170308
0.00169519
0.00169076
0.00169153
0.00169854
0.00171199
0.00173096
0.00175334
0.00177595
0.00179525
0.00180825
0.00181291
0.00180813
0.00179351
0.00176912
0.00173487
0.0016891
0.00163487
0.00159921
0.00159332
0.00147834
)
;

boundaryField
{
    floor
    {
        type            nutkWallFunction;
        Cmu             0.09;
        kappa           0.41;
        E               9.8;
        value           nonuniform List<scalar> 
29
(
0.000121327
7.32973e-05
8.70875e-05
9.31216e-05
9.19544e-05
8.69447e-05
7.9563e-05
7.05377e-05
6.16863e-05
5.3821e-05
4.66786e-05
4.02789e-05
3.47763e-05
3.03261e-05
2.7e-05
2.48443e-05
2.4379e-05
2.85933e-05
4.33872e-05
6.22226e-05
6.22226e-05
7.43303e-05
8.13339e-05
9.26929e-05
0.000121327
7.32973e-05
0.00010621
0.000111499
0.00013522
)
;
    }
    ceiling
    {
        type            nutkWallFunction;
        Cmu             0.09;
        kappa           0.41;
        E               9.8;
        value           nonuniform List<scalar> 
43
(
0.000194332
0.000210474
0.000227634
0.000256375
0.000257947
0.00025446
0.000245415
0.000234479
0.000222483
0.000213119
0.00020749
0.000204482
0.00020311
0.000202716
0.000202828
0.000203059
0.000203077
0.000202673
0.00020187
0.000200885
0.000200015
0.000199527
0.000199618
0.000200401
0.000201898
0.000204006
0.000206487
0.000208988
0.00021112
0.000212554
0.000213068
0.000212541
0.000210929
0.000208236
0.000204447
0.000199371
0.000193336
0.000189352
0.000188679
0.000175773
0.00026754
0.000309832
0.000187044
)
;
    }
    sWall
    {
        type            nutkWallFunction;
        Cmu             0.09;
        kappa           0.41;
        E               9.8;
        value           uniform 0.000194366;
    }
    nWall
    {
        type            nutkWallFunction;
        Cmu             0.09;
        kappa           0.41;
        E               9.8;
        value           nonuniform List<scalar> 6(8.00408e-05 7.91881e-05 7.76639e-05 0.000183333 0.000225647 0.000175787);
    }
    sideWalls
    {
        type            empty;
    }
    glass1
    {
        type            nutkWallFunction;
        Cmu             0.09;
        kappa           0.41;
        E               9.8;
        value           nonuniform List<scalar> 9(0.000130181 0.000158816 0.000182009 0.00020399 0.000226575 0.000250601 0.000270066 0.000273799 0.000267725);
    }
    glass2
    {
        type            nutkWallFunction;
        Cmu             0.09;
        kappa           0.41;
        E               9.8;
        value           nonuniform List<scalar> 2(8.97855e-05 0.000154462);
    }
    sun
    {
        type            nutkWallFunction;
        Cmu             0.09;
        kappa           0.41;
        E               9.8;
        value           nonuniform List<scalar> 
14
(
0.000130123
0.000145121
0.000152729
0.000161836
0.000171196
0.000180683
0.000188317
0.000192998
0.000193339
0.000184308
0.000174146
0.000162186
0.000148444
0.000135463
)
;
    }
    heatsource1
    {
        type            nutkWallFunction;
        Cmu             0.09;
        kappa           0.41;
        E               9.8;
        value           nonuniform List<scalar> 3(0.000102289 9.34092e-05 8.00413e-05);
    }
    heatsource2
    {
        type            nutkWallFunction;
        Cmu             0.09;
        kappa           0.41;
        E               9.8;
        value           nonuniform List<scalar> 4(0.000136501 0.000117117 0.000117117 0.000129257);
    }
    Table_master
    {
        type            nutkWallFunction;
        Cmu             0.09;
        kappa           0.41;
        E               9.8;
        value           nonuniform List<scalar> 9(9.63649e-05 7.73351e-05 6.34951e-05 5.33988e-05 4.54437e-05 3.89065e-05 3.36789e-05 2.99284e-05 2.81066e-05);
    }
    Table_slave
    {
        type            nutkWallFunction;
        Cmu             0.09;
        kappa           0.41;
        E               9.8;
        value           nonuniform List<scalar> 9(0.000112845 0.000100737 8.99513e-05 7.89895e-05 6.78861e-05 5.95359e-05 5.70213e-05 5.81837e-05 5.90084e-05);
    }
    inlet
    {
        type            calculated;
        value           uniform 0.000100623;
    }
    outlet
    {
        type            calculated;
        value           nonuniform List<scalar> 2(0.00164456 0.00179025);
    }
}


// ************************************************************************* //
