// -*- C++ -*-
// File generated by PyFoam - sorry for the ugliness

FoamFile
{
 version 2.0;
 format ascii;
 class volVectorField;
 location "70";
 object U;
}

dimensions [ 0 1 -1 0 0 0 0 ];

internalField nonuniform List<vector> 459
(
  (-0.010347 0.0725365 0)
  (-0.147387 0.0259426 0)
  (-0.180554 0.0102414 0)
  (-0.201437 -0.00225924 0)
  (-0.202081 -0.0151804 0)
  (-0.180435 -0.0294701 0)
  (-0.138965 -0.0439326 0)
  (-0.0841008 -0.0548647 0)
  (-0.0234118 -0.0581205 0)
  (0.0415429 -0.0441481 0)
  (0.0786244 -0.0303756 0)
  (0.103874 -0.0170981 0)
  (0.112481 -0.00358469 0)
  (0.0980459 0.0158513 0)
  (0.0943653 0.0564319 0)
  (-0.111607 0.011072 0)
  (0.000713021 0.0027134 0)
  (-0.0181465 -0.0217351 0)
  (0.0167292 -0.0305622 0)
  (0.0453998 -0.024347 0)
  (0.0702706 -0.0162409 0)
  (0.085935 -0.00828078 0)
  (0.0911811 -0.00250884 0)
  (0.0889642 0.000872077 0)
  (0.0842268 0.00217683 0)
  (0.0796193 0.00211824 0)
  (0.0758575 0.00157449 0)
  (0.0727311 0.00124689 0)
  (0.0694565 0.00162211 0)
  (0.0646965 0.00331464 0)
  (0.0563487 0.00734179 0)
  (0.0436618 0.0120144 0)
  (-0.0267766 0.0185302 0)
  (0.130942 -0.00703169 0)
  (0.104848 0.149661 0)
  (-0.125493 0.0734459 0)
  (-0.14212 0.0460627 0)
  (-0.163212 0.0201772 0)
  (-0.164936 -0.00946398 0)
  (-0.145613 -0.0423906 0)
  (-0.108764 -0.0723957 0)
  (-0.0618184 -0.090933 0)
  (-0.0122294 -0.0917603 0)
  (0.0340393 -0.0724511 0)
  (0.0667557 -0.0483328 0)
  (0.0897562 -0.0235583 0)
  (0.102341 0.00242056 0)
  (0.105646 0.0303961 0)
  (0.111254 0.0669851 0)
  (0.105386 0.0649259 0)
  (0.0687582 0.0635969 0)
  (-0.145544 0.0195117 0)
  (0.0220396 0.00471717 0)
  (0.0176162 -0.0393438 0)
  (0.0322908 -0.0480781 0)
  (0.04914 -0.0400787 0)
  (0.0636497 -0.025887 0)
  (0.0716613 -0.0110265 0)
  (0.0747884 -0.00109192 0)
  (0.0748614 0.00412601 0)
  (0.074331 0.00605169 0)
  (0.0740041 0.00609202 0)
  (0.0737753 0.00558834 0)
  (0.0735016 0.00553638 0)
  (0.0730209 0.00674035 0)
  (0.0715297 0.0106672 0)
  (0.0651791 0.0221623 0)
  (0.0541343 0.0301092 0)
  (-0.00990938 0.0351122 0)
  (0.171546 0.0147416 0)
  (0.212458 0.222398 0)
  (-0.12268 0.111058 0)
  (-0.106125 0.0707986 0)
  (-0.125836 0.0287787 0)
  (-0.127049 -0.0190692 0)
  (-0.107179 -0.0704932 0)
  (-0.0730002 -0.114237 0)
  (-0.0335912 -0.136677 0)
  (0.00538943 -0.131916 0)
  (0.0381545 -0.106395 0)
  (0.0642447 -0.0740616 0)
  (0.0830736 -0.0404848 0)
  (0.0946136 -0.00702974 0)
  (0.100195 0.026515 0)
  (0.102828 0.0596545 0)
  (0.0938766 0.0741753 0)
  (0.0736605 0.10857 0)
  (-0.189933 0.010966 0)
  (0.0719908 -0.0382038 0)
  (0.0609854 -0.0564016 0)
  (0.0622528 -0.0597419 0)
  (0.0668664 -0.0499854 0)
  (0.0698119 -0.0321413 0)
  (0.0602737 -0.0169002 0)
  (0.0521126 -0.00478845 0)
  (0.0533984 -0.000128966 0)
  (0.0582813 0.000696749 0)
  (0.0630915 -8.28736e-05 0)
  (0.0670686 -0.00116577 0)
  (0.0705351 -0.00176866 0)
  (0.0746729 -0.001236 0)
  (0.0823344 0.00269374 0)
  (0.0787321 0.0292836 0)
  (0.0645676 0.0442916 0)
  (0.00432602 0.0518404 0)
  (0.194177 0.0464551 0)
  (0.313426 0.279956 0)
  (-0.13419 0.141154 0)
  (-0.0706789 0.0923702 0)
  (-0.0873972 0.0379124 0)
  (-0.0840361 -0.0269741 0)
  (-0.0600368 -0.0971533 0)
  (-0.0288783 -0.151361 0)
  (0.00157337 -0.173624 0)
  (0.0278523 -0.163436 0)
  (0.0496296 -0.133045 0)
  (0.0672629 -0.0940496 0)
  (0.0798292 -0.0536394 0)
  (0.0879692 -0.0149146 0)
  (0.0933629 0.0216386 0)
  (0.0992438 0.0557677 0)
  (0.107807 0.0825648 0)
  (0.12069 0.117273 0)
  (0.151779 0.0476386 0)
  (0.10489 0.0146851 0)
  (0.115544 -0.028264 0)
  (0.106721 -0.0522732 0)
  (0.0973929 -0.0575404 0)
  (0.0917103 -0.0495433 0)
  (0.0890802 -0.0318347 0)
  (0.0950141 -0.0160222 0)
  (0.101317 -0.00605204 0)
  (0.0969993 0.00164503 0)
  (0.0822725 0.00825244 0)
  (0.0609084 0.0123568 0)
  (0.0395534 0.0111003 0)
  (0.0251947 0.00544209 0)
  (0.0177179 -1.37627e-05 0)
  (0.00596586 -0.00200892 0)
  (0.035693 0.0409525 0)
  (0.0451602 0.0532999 0)
  (0.00590446 0.0611874 0)
  (0.208268 0.0859975 0)
  (0.405465 0.322804 0)
  (-0.155774 0.162301 0)
  (-0.037435 0.104881 0)
  (-0.0477318 0.0424942 0)
  (-0.0310089 -0.0385036 0)
  (-0.00186836 -0.124136 0)
  (0.0232102 -0.180353 0)
  (0.040903 -0.196852 0)
  (0.0542463 -0.182685 0)
  (0.0641834 -0.148321 0)
  (0.0710016 -0.10485 0)
  (0.0750247 -0.0605925 0)
  (0.0776965 -0.0198336 0)
  (0.0810525 0.0165869 0)
  (0.0877179 0.0481581 0)
  (0.099764 0.0715336 0)
  (0.118367 0.0844411 0)
  (0.137883 0.0423249 0)
  (0.140767 0.0101156 0)
  (0.13576 -0.023023 0)
  (0.123095 -0.0424059 0)
  (0.108457 -0.04732 0)
  (0.0954623 -0.0411405 0)
  (0.0853542 -0.0270216 0)
  (0.0787509 -0.00906626 0)
  (0.0698041 0.00612757 0)
  (0.0571294 0.0179395 0)
  (0.0416002 0.0260724 0)
  (0.0272502 0.0278598 0)
  (0.0177451 0.0223279 0)
  (0.0131324 0.0133941 0)
  (0.010757 0.00599309 0)
  (0.00823889 0.00325958 0)
  (0.0168982 0.0211987 0)
  (0.0348388 0.0386435 0)
  (0.0261836 0.0467187 0)
  (0.122724 0.080592 0)
  (0.103547 0.0643719 0)
  (0.0693892 0.0468414 0)
  (-0.00409505 0.0433004 0)
  (0.480786 0.355509 0)
  (-0.182094 0.172551 0)
  (-0.00905369 0.100927 0)
  (-0.00269474 0.0329714 0)
  (0.0366128 -0.067848 0)
  (0.0630776 -0.148554 0)
  (0.0780296 -0.195957 0)
  (0.083275 -0.207205 0)
  (0.0820997 -0.188342 0)
  (0.0772241 -0.150402 0)
  (0.0705644 -0.104296 0)
  (0.0637935 -0.0590071 0)
  (0.0589409 -0.0193727 0)
  (0.0578009 0.0135289 0)
  (0.0627105 0.039231 0)
  (0.0738758 0.0554303 0)
  (0.0917281 0.058243 0)
  (0.107163 0.0333715 0)
  (0.112468 0.00616811 0)
  (0.109217 -0.0167181 0)
  (0.0991566 -0.0302982 0)
  (0.085117 -0.0333155 0)
  (0.0698093 -0.0272788 0)
  (0.0549962 -0.0139765 0)
  (0.038864 0.00466258 0)
  (0.0258185 0.0206522 0)
  (0.0145611 0.031869 0)
  (0.005903 0.0369807 0)
  (0.00138364 0.0341905 0)
  (0.000357231 0.0251824 0)
  (0.000585578 0.0144552 0)
  (0.000496377 0.00577586 0)
  (-0.00021316 0.00183315 0)
  (0.00443922 0.00860555 0)
  (0.017251 0.0187499 0)
  (0.0179856 0.0201803 0)
  (0.0520394 0.0424364 0)
  (0.0502211 0.0371416 0)
  (0.0442168 0.0375051 0)
  (-0.0257565 0.0571749 0)
  (0.546814 0.382893 0)
  (-0.195528 0.154305 0)
  (0.029006 0.0477471 0)
  (0.0752761 -0.0231368 0)
  (0.115235 -0.105366 0)
  (0.134232 -0.169176 0)
  (0.136163 -0.202072 0)
  (0.124884 -0.202783 0)
  (0.105165 -0.177356 0)
  (0.0821899 -0.136563 0)
  (0.0598689 -0.0901837 0)
  (0.0412606 -0.0471102 0)
  (0.0286521 -0.0120389 0)
  (0.0234704 0.0140636 0)
  (0.0276753 0.0320047 0)
  (0.0384025 0.0417924 0)
  (0.0540952 0.0408487 0)
  (0.0663488 0.0242615 0)
  (0.0705573 0.00489361 0)
  (0.0674843 -0.0104161 0)
  (0.0577165 -0.0187385 0)
  (0.0431791 -0.0186757 0)
  (0.0261633 -0.0107218 0)
  (0.00680109 0.00423989 0)
  (-0.00673648 0.0201524 0)
  (-0.0145551 0.0312316 0)
  (-0.0188349 0.0379485 0)
  (-0.0194706 0.038795 0)
  (-0.0173717 0.0332661 0)
  (-0.0145171 0.0236305 0)
  (-0.0126966 0.0134162 0)
  (-0.0125133 0.00524413 0)
  (-0.0134488 0.000812488 0)
  (-0.0125607 0.00208127 0)
  (-0.00838215 0.00658775 0)
  (-0.0100431 0.00942721 0)
  (0.00224677 0.0254029 0)
  (0.00833063 0.0320237 0)
  (0.0230267 0.0465475 0)
  (-0.0578783 0.0824849 0)
  (0.638961 0.368501 0)
  (-0.0113225 0.120982 0)
  (0.106539 -0.040194 0)
  (0.195258 -0.103963 0)
  (0.221422 -0.145356 0)
  (0.216377 -0.175764 0)
  (0.192539 -0.186979 0)
  (0.155878 -0.175675 0)
  (0.112338 -0.144924 0)
  (0.0689923 -0.10427 0)
  (0.0310735 -0.0615364 0)
  (0.0032901 -0.0251974 0)
  (-0.012931 0.000276723 0)
  (-0.0164987 0.0150498 0)
  (-0.0118513 0.0247 0)
  (-0.00192991 0.0297524 0)
  (0.0109933 0.02774 0)
  (0.0195467 0.0170537 0)
  (0.0209709 0.00516959 0)
  (0.0160831 -0.00324237 0)
  (0.00527355 -0.00585567 0)
  (-0.0107776 -0.00126936 0)
  (-0.026046 0.00763513 0)
  (-0.0362933 0.0174702 0)
  (-0.041939 0.0268084 0)
  (-0.0435437 0.0336878 0)
  (-0.0418362 0.036958 0)
  (-0.0376128 0.0353989 0)
  (-0.0325476 0.0293455 0)
  (-0.0286308 0.0210293 0)
  (-0.0271943 0.0130834 0)
  (-0.0286812 0.00728535 0)
  (-0.0328831 0.00482025 0)
  (-0.0388323 0.00674021 0)
  (-0.046366 0.0128249 0)
  (-0.0569307 0.0229788 0)
  (-0.0637639 0.0393181 0)
  (-0.0733333 0.0557397 0)
  (-0.0964977 0.0693857 0)
  (-0.187254 0.0734426 0)
  (0.768146 0.355322 0)
  (0.365561 0.247269 0)
  (0.384682 0.148661 0)
  (0.392689 0.0358926 0)
  (0.353889 -0.0531775 0)
  (0.291757 -0.106088 0)
  (0.221414 -0.124481 0)
  (0.150086 -0.115896 0)
  (0.0814769 -0.088057 0)
  (0.022396 -0.0537652 0)
  (-0.0242296 -0.019952 0)
  (-0.0468978 -0.0012973 0)
  (-0.0570475 0.00891031 0)
  (-0.0574445 0.0147202 0)
  (-0.0529925 0.0188745 0)
  (-0.0455091 0.0210436 0)
  (-0.0373895 0.0199797 0)
  (-0.0329232 0.015357 0)
  (-0.0340541 0.0105074 0)
  (-0.0400777 0.00806804 0)
  (-0.0487673 0.00895513 0)
  (-0.057407 0.0124963 0)
  (-0.0638196 0.0174508 0)
  (-0.0670032 0.0232116 0)
  (-0.0667832 0.0287756 0)
  (-0.063505 0.0325783 0)
  (-0.0579426 0.0335769 0)
  (-0.0512805 0.0312671 0)
  (-0.0451305 0.0264067 0)
  (-0.0409067 0.0207899 0)
  (-0.0392875 0.0161634 0)
  (-0.0403104 0.0136377 0)
  (-0.0436522 0.0138782 0)
  (-0.048856 0.0173766 0)
  (-0.0558698 0.0243877 0)
  (-0.0644418 0.0350983 0)
  (-0.0716303 0.0478171 0)
  (-0.0795439 0.051323 0)
  (-0.100697 0.0261857 0)
  (-0.136463 -0.0554002 0)
  (0.172584 -0.0577898 0)
  (0.21779 -0.0763703 0)
  (0.208369 -0.0909653 0)
  (0.156764 -0.0870297 0)
  (0.0938264 -0.0715689 0)
  (0.0315768 -0.0486558 0)
  (-0.0312252 -0.016128 0)
  (-0.0691224 0.00377094 0)
  (-0.0911016 0.0147652 0)
  (-0.0995837 0.0192579 0)
  (-0.101322 0.0214719 0)
  (-0.0996473 0.0230844 0)
  (-0.0960215 0.0247607 0)
  (-0.0913272 0.0261034 0)
  (-0.0869219 0.0265266 0)
  (-0.0845901 0.0259111 0)
  (-0.0848322 0.0251734 0)
  (-0.0867847 0.025054 0)
  (-0.089035 0.0258261 0)
  (-0.0903177 0.0273274 0)
  (-0.0898714 0.0291764 0)
  (-0.0873424 0.0311383 0)
  (-0.0826447 0.0327231 0)
  (-0.0760909 0.0330905 0)
  (-0.0684374 0.0316723 0)
  (-0.0607806 0.0284502 0)
  (-0.0542731 0.0241821 0)
  (-0.0496315 0.0200775 0)
  (-0.0469106 0.0172046 0)
  (-0.0456596 0.0162478 0)
  (-0.0451316 0.0176042 0)
  (-0.0444309 0.0215463 0)
  (-0.0427073 0.0284617 0)
  (-0.0391731 0.0392165 0)
  (-0.0324263 0.0535478 0)
  (-0.0237 0.0639038 0)
  (-0.0208603 0.0481187 0)
  (0.00750877 -0.0960775 0)
  (0.0107563 0.0221256 0)
  (0.0086946 -0.0266721 0)
  (-0.000489798 -0.0589959 0)
  (-0.0363679 -0.0641264 0)
  (-0.0741802 -0.0638987 0)
  (-0.105731 -0.0621906 0)
  (-0.12598 -0.0634117 0)
  (-0.135127 -0.0684883 0)
  (-0.138937 -0.0733851 0)
  (-0.139668 -0.077868 0)
  (-0.138768 -0.0803324 0)
  (-0.13676 -0.0808049 0)
  (-0.133754 -0.0801039 0)
  (-0.129964 -0.0793828 0)
  (-0.125942 -0.0796148 0)
  (-0.122391 -0.0810984 0)
  (-0.119584 -0.0831396 0)
  (-0.117262 -0.0847573 0)
  (-0.114875 -0.0851677 0)
  (-0.11183 -0.0840512 0)
  (-0.107646 -0.0815882 0)
  (-0.102008 -0.0783059 0)
  (-0.0948456 -0.0750723 0)
  (-0.0864664 -0.0728767 0)
  (-0.0775591 -0.072353 0)
  (-0.0690162 -0.0735536 0)
  (-0.0616282 -0.0759396 0)
  (-0.0557774 -0.0786979 0)
  (-0.0513411 -0.0810983 0)
  (-0.0477724 -0.0825829 0)
  (-0.0441772 -0.0826752 0)
  (-0.0392892 -0.0809088 0)
  (-0.0313695 -0.0768609 0)
  (-0.018307 -0.0705974 0)
  (0.0039757 -0.0660255 0)
  (0.0315 -0.0777122 0)
  (0.0627946 -0.124947 0)
  (0.0476097 -0.21572 0)
  (-0.0331278 -0.215373 0)
  (-0.248544 -0.0206202 0)
  (-0.214493 0.205324 0)
  (-0.200711 0.203924 0)
  (-0.199147 0.204026 0)
  (-0.202715 0.206502 0)
  (-0.205945 0.216058 0)
  (-0.204048 0.227815 0)
  (-0.19865 0.242393 0)
  (-0.191753 0.256107 0)
  (-0.185205 0.266904 0)
  (-0.179712 0.274793 0)
  (-0.175182 0.279965 0)
  (-0.170925 0.283363 0)
  (-0.166245 0.286207 0)
  (-0.16077 0.28954 0)
  (-0.154563 0.293933 0)
  (-0.147988 0.299284 0)
  (-0.141384 0.304873 0)
  (-0.134867 0.309841 0)
  (-0.128324 0.313563 0)
  (-0.1215 0.315822 0)
  (-0.114118 0.316792 0)
  (-0.105988 0.316926 0)
  (-0.097122 0.316842 0)
  (-0.087841 0.317112 0)
  (-0.0787305 0.318066 0)
  (-0.0704508 0.319772 0)
  (-0.0634771 0.322124 0)
  (-0.0579015 0.32503 0)
  (-0.0534141 0.328533 0)
  (-0.0494048 0.332783 0)
  (-0.0450817 0.337947 0)
  (-0.0396103 0.344199 0)
  (-0.032333 0.351874 0)
  (-0.0228884 0.361928 0)
  (-0.0101868 0.372676 0)
  (0.00666577 0.386303 0)
  (0.0336509 0.43114 0)
  (-0.111957 0.556913 0)
)
;

boundaryField
{
  floor
  {
    type noSlip;
  }
  ceiling
  {
    type noSlip;
  }
  sWall
  {
    type noSlip;
  }
  nWall
  {
    type noSlip;
  }
  sideWalls
  {
    type empty;
  }
  glass1
  {
    type noSlip;
  }
  glass2
  {
    type noSlip;
  }
  sun
  {
    type noSlip;
  }
  heatsource1
  {
    type noSlip;
  }
  heatsource2
  {
    type noSlip;
  }
  Table_master
  {
    type noSlip;
  }
  Table_slave
  {
    type noSlip;
  }
  inlet
  {
    type fixedValue;
    value uniform (0.277164 -0.114805 0);
  }
  outlet
  {
    type zeroGradient;
  }
} 	// ************************************************************************* //

