/*--------------------------------*- C++ -*----------------------------------*\
  =========                 |
  \\      /  F ield         | OpenFOAM: The Open Source CFD Toolbox
   \\    /   O peration     | Website:  https://openfoam.org
    \\  /    A nd           | Version:  6
     \\/     M anipulation  |
\*---------------------------------------------------------------------------*/
FoamFile
{
    version     2.0;
    format      ascii;
    class       volScalarField;
    location    "600";
    object      epsilon;
}
// * * * * * * * * * * * * * * * * * * * * * * * * * * * * * * * * * * * * * //

dimensions      [0 2 -3 0 0 0 0];

internalField   nonuniform List<scalar> 
459
(
0.000380562
0.000488473
0.00051004
0.000584045
0.000657853
0.000731183
0.000806426
0.000887961
0.000958177
0.00100031
0.00100045
0.000950054
0.000852905
0.000729856
0.00060954
3.15459e-05
5.92784e-05
7.95809e-05
7.39257e-05
6.47013e-05
5.51427e-05
4.5753e-05
3.78485e-05
3.15379e-05
2.65391e-05
2.25572e-05
1.93591e-05
1.67738e-05
1.46384e-05
1.28215e-05
1.12004e-05
9.64669e-06
8.75292e-06
6.74193e-06
0.000997577
0.00150017
0.000462676
0.000444324
0.000461553
0.000489063
0.000529005
0.000586259
0.000650269
0.000702723
0.000724444
0.000702396
0.000636342
0.000546407
0.000493529
0.000635375
0.000172416
4.35131e-05
0.000103532
0.000102152
8.85709e-05
7.26907e-05
5.89814e-05
5.09738e-05
4.13827e-05
3.31902e-05
2.66801e-05
2.16038e-05
1.76572e-05
1.46057e-05
1.22459e-05
1.05353e-05
9.56678e-06
9.23896e-06
2.41437e-05
1.62936e-05
0.0018635
0.00382862
0.000590858
0.000424021
0.000436305
0.000478945
0.000542905
0.000629801
0.000726249
0.000804437
0.000840975
0.00082499
0.000759934
0.000664073
0.000573996
0.000524878
0.000574904
0.000371099
0.000238712
0.000167918
0.000123152
9.3457e-05
7.57895e-05
0.000129934
9.20312e-05
6.74486e-05
5.10505e-05
3.97758e-05
3.17986e-05
2.60164e-05
2.17592e-05
1.86291e-05
1.43115e-05
1.20649e-05
4.40316e-05
2.58849e-05
0.00308272
0.00809949
0.000977936
0.000431769
0.00042178
0.000479281
0.000572125
0.000705769
0.000844322
0.000941293
0.000978415
0.000953541
0.000876371
0.000763539
0.000641508
0.000546019
0.000507813
0.000923881
0.000500014
0.000288926
0.000187416
0.000131499
9.81552e-05
8.24352e-05
0.000182122
0.000141591
0.000117163
0.000100881
8.82517e-05
7.7134e-05
6.73175e-05
5.78049e-05
4.77263e-05
2.88262e-05
1.90767e-05
6.94316e-05
3.53693e-05
0.00478852
0.0145434
0.00200721
0.000526093
0.000428814
0.000490279
0.000630359
0.000865379
0.00105258
0.00114904
0.00116655
0.0011151
0.00100926
0.000863741
0.000700796
0.000545449
0.000417795
0.000345721
0.000264836
0.000197646
0.000147403
0.000112061
8.82908e-05
7.43106e-05
7.27062e-05
6.93386e-05
6.59234e-05
6.23122e-05
5.79725e-05
5.26736e-05
4.72668e-05
4.21122e-05
3.73879e-05
3.04135e-05
2.3576e-05
5.04683e-05
3.97705e-05
6.92581e-05
0.000122649
0.000172112
0.00717978
0.0215997
0.00461049
0.00105876
0.000648901
0.000656349
0.000912395
0.00126416
0.00143142
0.00147157
0.00143518
0.00134072
0.00119312
0.001001
0.000786458
0.000579794
0.000410086
0.000294329
0.000219309
0.00016572
0.000125754
9.80179e-05
8.0609e-05
7.15737e-05
6.92771e-05
6.99173e-05
7.09629e-05
7.10318e-05
6.90796e-05
6.41918e-05
5.62904e-05
4.79223e-05
4.02679e-05
3.35182e-05
2.91346e-05
3.86507e-05
4.0564e-05
5.16018e-05
0.000226247
0.000194085
0.010018
0.0257969
0.00965563
0.00362882
0.00222961
0.00184655
0.00206235
0.00214321
0.00208535
0.00196757
0.0018233
0.00164838
0.00143008
0.00116921
0.000889665
0.000627336
0.000417258
0.000276517
0.000191523
0.000139505
0.000105956
8.58495e-05
7.58981e-05
7.33678e-05
7.59653e-05
8.10455e-05
8.6587e-05
9.15399e-05
9.48329e-05
9.47314e-05
8.79553e-05
7.6822e-05
6.58905e-05
5.6714e-05
5.28206e-05
5.87398e-05
7.42788e-05
0.000119288
0.000285053
0.000274494
0.0106874
0.0286019
0.0157262
0.0104952
0.00744715
0.00566224
0.00445203
0.00360206
0.00302788
0.00263335
0.00232613
0.00203135
0.00170552
0.00134231
0.00097475
0.00064444
0.000391823
0.00023566
0.000149265
0.000108919
8.79204e-05
7.81514e-05
7.59003e-05
7.88416e-05
8.53833e-05
9.42844e-05
0.000104858
0.000117035
0.000130918
0.000146315
0.000162069
0.000169818
0.000176117
0.000192282
0.000227568
0.000338801
0.000626427
0.00120437
0.00365608
0.00108706
0.00989714
0.0167183
0.0134119
0.0101527
0.00775255
0.00607285
0.0049212
0.00415889
0.00364492
0.0032487
0.00286632
0.0024372
0.00194934
0.00142647
0.000944552
0.000544267
0.000277459
0.000162525
0.000110386
8.66078e-05
7.61766e-05
7.33878e-05
7.54878e-05
8.10144e-05
8.92604e-05
0.000100001
0.000113485
0.000130479
0.000152256
0.000180644
0.000218095
0.000268068
0.000336395
0.000441203
0.00059748
0.000812763
0.00106307
0.00128512
0.0014536
0.000908233
0.00412895
0.00629269
0.0063908
0.00606965
0.0056701
0.00517559
0.00460262
0.00394848
0.00322443
0.00246572
0.00172053
0.000975566
0.000502655
0.000258697
0.000144438
9.76071e-05
7.76956e-05
6.93087e-05
6.65223e-05
6.69425e-05
6.95342e-05
7.38544e-05
7.98349e-05
8.77018e-05
9.7983e-05
0.000111563
0.000129781
0.000154612
0.000188995
0.000237426
0.000304827
0.000398273
0.000521749
0.000665064
0.000791576
0.000849948
0.000810736
0.00051957
0.00296679
0.00627035
0.00660815
0.00553343
0.00494648
0.00446863
0.00374691
0.00287251
0.00203201
0.00132234
0.000791394
0.000437343
0.0002429
0.000148906
0.000108815
9.36872e-05
8.82572e-05
8.63696e-05
8.58279e-05
8.60733e-05
8.72985e-05
8.96491e-05
9.33376e-05
9.87094e-05
0.000106283
0.000116844
0.000131594
0.000152355
0.000181785
0.000223281
0.000281354
0.000360697
0.000462194
0.000577898
0.000666994
0.000763966
0.000743576
0.000548413
0.00200478
0.00238025
0.00267671
0.00322357
0.00281285
0.00238667
0.00207855
0.0017829
0.00149152
0.00118946
0.000884415
0.000611049
0.000397686
0.000252166
0.000165203
0.000117945
9.32465e-05
8.03741e-05
7.38767e-05
7.11598e-05
7.09406e-05
7.28193e-05
7.62158e-05
8.10515e-05
8.7495e-05
9.58137e-05
0.000106388
0.000119764
0.000136769
0.000158752
0.000186743
0.000221658
0.000265559
0.000321102
0.000390913
0.000486155
0.000523839
0.000487554
0.000403228
0.000325856
)
;

boundaryField
{
    floor
    {
        Cmu             0.09;
        kappa           0.41;
        E               9.8;
        type            epsilonWallFunction;
        value           nonuniform List<scalar> 
29
(
0.00060954
3.15459e-05
5.92784e-05
7.95809e-05
7.39257e-05
6.47013e-05
5.51427e-05
4.5753e-05
3.78485e-05
3.15379e-05
2.65391e-05
2.25572e-05
1.93591e-05
1.67738e-05
1.46384e-05
1.28215e-05
1.12004e-05
9.64669e-06
8.75292e-06
6.74193e-06
6.74193e-06
1.62936e-05
2.58849e-05
3.53693e-05
0.00060954
3.15459e-05
4.35131e-05
0.000371099
0.000923881
)
;
    }
    ceiling
    {
        Cmu             0.09;
        kappa           0.41;
        E               9.8;
        type            epsilonWallFunction;
        value           nonuniform List<scalar> 
43
(
0.00200478
0.00238025
0.00267671
0.00322357
0.00281285
0.00238667
0.00207855
0.0017829
0.00149152
0.00118946
0.000884415
0.000611049
0.000397686
0.000252166
0.000165203
0.000117945
9.32465e-05
8.03741e-05
7.38767e-05
7.11598e-05
7.09406e-05
7.28193e-05
7.62158e-05
8.10515e-05
8.7495e-05
9.58137e-05
0.000106388
0.000119764
0.000136769
0.000158752
0.000186743
0.000221658
0.000265559
0.000321102
0.000390913
0.000486155
0.000523839
0.000487554
0.000403228
0.000325856
0.00989714
0.0167183
0.00296679
)
;
    }
    sWall
    {
        Cmu             0.09;
        kappa           0.41;
        E               9.8;
        type            epsilonWallFunction;
        value           uniform 0.00200478;
    }
    nWall
    {
        Cmu             0.09;
        kappa           0.41;
        E               9.8;
        type            epsilonWallFunction;
        value           nonuniform List<scalar> 6(0.000172112 0.000194085 0.000274494 0.00051957 0.000548413 0.000325856);
    }
    sideWalls
    {
        type            empty;
    }
    glass1
    {
        Cmu             0.09;
        kappa           0.41;
        E               9.8;
        type            epsilonWallFunction;
        value           nonuniform List<scalar> 9(0.000380562 0.000997577 0.0018635 0.00308272 0.00478852 0.00717978 0.010018 0.0106874 0.00989714);
    }
    glass2
    {
        Cmu             0.09;
        kappa           0.41;
        E               9.8;
        type            epsilonWallFunction;
        value           nonuniform List<scalar> 2(0.00108706 0.000908233);
    }
    sun
    {
        Cmu             0.09;
        kappa           0.41;
        E               9.8;
        type            epsilonWallFunction;
        value           nonuniform List<scalar> 
14
(
0.000380562
0.000488473
0.00051004
0.000584045
0.000657853
0.000731183
0.000806426
0.000887961
0.000958177
0.00100031
0.00100045
0.000950054
0.000852905
0.000729856
)
;
    }
    heatsource1
    {
        Cmu             0.09;
        kappa           0.41;
        E               9.8;
        type            epsilonWallFunction;
        value           nonuniform List<scalar> 3(6.92581e-05 0.000122649 0.000172112);
    }
    heatsource2
    {
        Cmu             0.09;
        kappa           0.41;
        E               9.8;
        type            epsilonWallFunction;
        value           nonuniform List<scalar> 4(0.000635375 0.000172416 0.000172416 0.000574904);
    }
    Table_master
    {
        Cmu             0.09;
        kappa           0.41;
        E               9.8;
        type            epsilonWallFunction;
        value           nonuniform List<scalar> 9(0.000129934 9.20312e-05 6.74486e-05 5.10505e-05 3.97758e-05 3.17986e-05 2.60164e-05 2.17592e-05 1.86291e-05);
    }
    Table_slave
    {
        Cmu             0.09;
        kappa           0.41;
        E               9.8;
        type            epsilonWallFunction;
        value           nonuniform List<scalar> 9(0.000182122 0.000141591 0.000117163 0.000100881 8.82517e-05 7.7134e-05 6.73175e-05 5.78049e-05 4.77263e-05);
    }
    inlet
    {
        type            turbulentMixingLengthDissipationRateInlet;
        mixingLength    0.01;
        phi             phi;
        k               k;
        value           uniform 0.000101881;
    }
    outlet
    {
        type            zeroGradient;
    }
}


// ************************************************************************* //
