// -*- C++ -*-
// File generated by PyFoam - sorry for the ugliness

FoamFile
{
 version 2.0;
 format ascii;
 class volVectorField;
 location "1200";
 object U;
}

dimensions [ 0 1 -1 0 0 0 0 ];

internalField nonuniform List<vector> 459
(
  (0.0330673 0.0854211 0)
  (-0.166038 0.0256384 0)
  (-0.190572 0.0178402 0)
  (-0.221167 0.0123389 0)
  (-0.243502 0.00632514 0)
  (-0.256742 1.87265e-05 0)
  (-0.259558 -0.00663612 0)
  (-0.250729 -0.0136434 0)
  (-0.23091 -0.0205374 0)
  (-0.201538 -0.0262679 0)
  (-0.16559 -0.0299914 0)
  (-0.12648 -0.0314388 0)
  (-0.0874576 -0.0311366 0)
  (-0.053289 -0.0307408 0)
  (-0.03767 -0.0319944 0)
  (-0.00254835 0.00738746 0)
  (-0.0222643 -0.0175305 0)
  (0.00149864 -0.026232 0)
  (0.0223663 -0.0194436 0)
  (0.0380777 -0.0130627 0)
  (0.0496815 -0.00834217 0)
  (0.0565331 -0.005001 0)
  (0.05995 -0.00325685 0)
  (0.0615044 -0.00250378 0)
  (0.0623206 -0.00214042 0)
  (0.0628364 -0.00190567 0)
  (0.0631066 -0.00171364 0)
  (0.0630653 -0.00147588 0)
  (0.0625012 -0.00101952 0)
  (0.0608433 3.9246e-05 0)
  (0.056884 0.00224385 0)
  (0.0492981 0.0046411 0)
  (0.0414293 0.00672333 0)
  (-0.0103981 0.0203937 0)
  (0.205419 0.174528 0)
  (-0.154278 0.0670886 0)
  (-0.152552 0.0521267 0)
  (-0.183792 0.0406736 0)
  (-0.205599 0.0278612 0)
  (-0.218799 0.0136827 0)
  (-0.222051 -0.00212181 0)
  (-0.213931 -0.0191189 0)
  (-0.195623 -0.0352009 0)
  (-0.168937 -0.0478641 0)
  (-0.137074 -0.0553199 0)
  (-0.10345 -0.0570969 0)
  (-0.071287 -0.0538742 0)
  (-0.0443424 -0.0472405 0)
  (-0.0272291 -0.0383747 0)
  (-0.0136547 -0.0188178 0)
  (-0.00717753 0.0132361 0)
  (0.0601746 0.0312389 0)
  (0.0316163 -0.019891 0)
  (0.0386293 -0.0305803 0)
  (0.0494041 -0.0259031 0)
  (0.0578431 -0.0178226 0)
  (0.0634222 -0.010443 0)
  (0.0656212 -0.00430028 0)
  (0.0659307 -0.00089903 0)
  (0.0658398 0.000555431 0)
  (0.065919 0.00123101 0)
  (0.0660814 0.00165674 0)
  (0.0661979 0.00202763 0)
  (0.0662257 0.0025125 0)
  (0.0661112 0.00345086 0)
  (0.0653201 0.00575166 0)
  (0.0614235 0.0120924 0)
  (0.051631 0.0175025 0)
  (0.0452388 0.0213687 0)
  (-0.0438316 0.0440482 0)
  (0.363328 0.260788 0)
  (-0.170033 0.106392 0)
  (-0.113954 0.0838809 0)
  (-0.143747 0.0635097 0)
  (-0.162712 0.0424907 0)
  (-0.174539 0.0195582 0)
  (-0.177068 -0.00606622 0)
  (-0.16805 -0.0332093 0)
  (-0.149731 -0.0581155 0)
  (-0.124683 -0.0767292 0)
  (-0.0963897 -0.0866523 0)
  (-0.0678191 -0.0877639 0)
  (-0.0412646 -0.0812201 0)
  (-0.0189355 -0.0685874 0)
  (-0.00266499 -0.050909 0)
  (0.00978985 -0.025285 0)
  (0.016529 0.00905513 0)
  (0.105562 -0.0393536 0)
  (0.072909 -0.043229 0)
  (0.0689833 -0.0394626 0)
  (0.0711831 -0.0316107 0)
  (0.0727464 -0.0224699 0)
  (0.0735939 -0.014809 0)
  (0.0718927 -0.012057 0)
  (0.0678945 -0.00862844 0)
  (0.0651332 -0.00677167 0)
  (0.0638855 -0.00571498 0)
  (0.0633407 -0.00504594 0)
  (0.0630762 -0.00457907 0)
  (0.0631273 -0.00412297 0)
  (0.0639679 -0.00331464 0)
  (0.0668137 -0.000174746 0)
  (0.064773 0.0170873 0)
  (0.0514835 0.029328 0)
  (0.0508588 0.0380076 0)
  (-0.0732748 0.0691731 0)
  (0.505388 0.329968 0)
  (-0.20342 0.141038 0)
  (-0.0737378 0.110434 0)
  (-0.101285 0.0824049 0)
  (-0.114415 0.0554521 0)
  (-0.122277 0.0254717 0)
  (-0.121129 -0.00962548 0)
  (-0.108793 -0.0472877 0)
  (-0.0896615 -0.0802369 0)
  (-0.0670045 -0.103237 0)
  (-0.04404 -0.114086 0)
  (-0.0225673 -0.113791 0)
  (-0.00336525 -0.104149 0)
  (0.0130188 -0.0869061 0)
  (0.026435 -0.0649689 0)
  (0.0407787 -0.0389753 0)
  (0.0628758 -0.0123595 0)
  (0.0934136 2.9341e-05 0)
  (0.101067 -0.0330134 0)
  (0.0875123 -0.0383168 0)
  (0.0789701 -0.0341125 0)
  (0.0748298 -0.0278427 0)
  (0.072134 -0.0204645 0)
  (0.0708606 -0.0119071 0)
  (0.0726269 -0.00700173 0)
  (0.0767903 -0.00553117 0)
  (0.0802393 -0.00470542 0)
  (0.0825806 -0.00406117 0)
  (0.0840101 -0.00323019 0)
  (0.0839666 -0.00195841 0)
  (0.08139 -2.71407e-05 0)
  (0.0750423 0.00285059 0)
  (0.0621279 0.00720891 0)
  (0.0511504 0.0275119 0)
  (0.0404746 0.0443434 0)
  (0.0537388 0.0579038 0)
  (-0.103674 0.0920152 0)
  (0.627385 0.383464 0)
  (-0.244197 0.169263 0)
  (-0.0346966 0.125092 0)
  (-0.0572074 0.0925876 0)
  (-0.0619642 0.0623243 0)
  (-0.0627187 0.0274555 0)
  (-0.0518154 -0.0162783 0)
  (-0.0339169 -0.0632043 0)
  (-0.0149991 -0.100738 0)
  (0.00269758 -0.124513 0)
  (0.0171885 -0.13322 0)
  (0.0285544 -0.129909 0)
  (0.0373207 -0.117622 0)
  (0.0442026 -0.0988962 0)
  (0.0503355 -0.076402 0)
  (0.0576907 -0.0527943 0)
  (0.0688602 -0.0335233 0)
  (0.0793185 -0.0289058 0)
  (0.0808958 -0.034741 0)
  (0.0743638 -0.0335346 0)
  (0.0663682 -0.0285946 0)
  (0.0602763 -0.0230444 0)
  (0.0559953 -0.0173185 0)
  (0.0537362 -0.0114389 0)
  (0.0538738 -0.00629367 0)
  (0.0560522 -0.00393338 0)
  (0.0584733 -0.00308097 0)
  (0.0608204 -0.00236007 0)
  (0.0629917 -0.000835193 0)
  (0.0646076 0.00204263 0)
  (0.0644962 0.00638976 0)
  (0.0620746 0.0123698 0)
  (0.0566506 0.0206344 0)
  (0.0500707 0.0360905 0)
  (0.0410461 0.0546362 0)
  (0.0619724 0.075138 0)
  (-0.017107 0.104325 0)
  (0.0452938 0.0339182 0)
  (-0.0613606 -0.0344517 0)
  (-0.268901 -0.0567239 0)
  (0.715078 0.428002 0)
  (-0.283505 0.188079 0)
  (-0.00562875 0.11993 0)
  (-0.0117855 0.0916893 0)
  (-0.00496559 0.0623329 0)
  (0.00525114 0.0207558 0)
  (0.0339108 -0.0335716 0)
  (0.0549802 -0.0817882 0)
  (0.0698097 -0.116175 0)
  (0.0783544 -0.135342 0)
  (0.0813865 -0.140485 0)
  (0.0803958 -0.134326 0)
  (0.0767535 -0.119897 0)
  (0.0718667 -0.100187 0)
  (0.0672121 -0.0780949 0)
  (0.0641501 -0.0563153 0)
  (0.0635684 -0.0385742 0)
  (0.0631009 -0.0294518 0)
  (0.0590719 -0.0271247 0)
  (0.0514697 -0.0249763 0)
  (0.0432505 -0.021375 0)
  (0.0366777 -0.0174108 0)
  (0.0321746 -0.0135547 0)
  (0.0299099 -0.0098755 0)
  (0.0298622 -0.00703151 0)
  (0.0315562 -0.00608943 0)
  (0.0340627 -0.00606493 0)
  (0.0370399 -0.00576656 0)
  (0.0403255 -0.00423213 0)
  (0.0437025 -0.000609162 0)
  (0.0466809 0.00537671 0)
  (0.0482373 0.013414 0)
  (0.0485803 0.0237149 0)
  (0.0491202 0.0380537 0)
  (0.0484225 0.0560218 0)
  (0.0703761 0.0788803 0)
  (0.0522275 0.0974204 0)
  (0.0913982 0.0683454 0)
  (0.114441 0.0445513 0)
  (-0.128396 -0.00747816 0)
  (0.767929 0.468613 0)
  (-0.302079 0.173459 0)
  (0.0220637 0.0677552 0)
  (0.0494857 0.0629912 0)
  (0.0701626 0.0440279 0)
  (0.10302 -0.00355797 0)
  (0.134776 -0.0572288 0)
  (0.153111 -0.0982838 0)
  (0.159149 -0.124071 0)
  (0.154964 -0.135563 0)
  (0.143188 -0.134905 0)
  (0.126681 -0.124944 0)
  (0.107985 -0.10858 0)
  (0.0892555 -0.0887347 0)
  (0.0722431 -0.0679948 0)
  (0.058054 -0.0484313 0)
  (0.0471977 -0.0327003 0)
  (0.038561 -0.0231787 0)
  (0.0301551 -0.0188995 0)
  (0.0216188 -0.0165469 0)
  (0.0139577 -0.0142746 0)
  (0.00814208 -0.0121434 0)
  (0.00436914 -0.0103187 0)
  (0.00263489 -0.00882261 0)
  (0.00277405 -0.00802023 0)
  (0.00428286 -0.00829229 0)
  (0.00654737 -0.00900177 0)
  (0.00935192 -0.0092945 0)
  (0.0127484 -0.00831987 0)
  (0.016868 -0.0050789 0)
  (0.0226436 0.00139986 0)
  (0.028372 0.0102025 0)
  (0.0338259 0.0206056 0)
  (0.0408261 0.0332726 0)
  (0.0486472 0.0479574 0)
  (0.0704294 0.0663906 0)
  (0.0839931 0.0747625 0)
  (0.11584 0.0526749 0)
  (0.155409 0.0439568 0)
  (-0.0363924 0.0925263 0)
  (0.872713 0.469965 0)
  (-0.0644075 0.152117 0)
  (0.109966 -0.0138501 0)
  (0.181708 -0.041018 0)
  (0.21225 -0.0526915 0)
  (0.243729 -0.0752265 0)
  (0.261523 -0.0975281 0)
  (0.262324 -0.113411 0)
  (0.247716 -0.120906 0)
  (0.221779 -0.120064 0)
  (0.189013 -0.112114 0)
  (0.153456 -0.0988682 0)
  (0.118255 -0.0820832 0)
  (0.0858019 -0.0639464 0)
  (0.0577075 -0.0463793 0)
  (0.0345932 -0.0305908 0)
  (0.017248 -0.0187325 0)
  (0.00474432 -0.0121099 0)
  (-0.00484675 -0.00953935 0)
  (-0.012183 -0.0087862 0)
  (-0.018008 -0.00838927 0)
  (-0.0222514 -0.00818128 0)
  (-0.0250202 -0.00818261 0)
  (-0.0264623 -0.00842949 0)
  (-0.0268089 -0.00907138 0)
  (-0.0264678 -0.0101703 0)
  (-0.0258234 -0.0114133 0)
  (-0.0249826 -0.0123512 0)
  (-0.0237866 -0.0124896 0)
  (-0.0218402 -0.0112417 0)
  (-0.0181697 -0.00786496 0)
  (-0.00951667 -0.00166674 0)
  (-0.0011962 0.0063687 0)
  (0.00936572 0.0145708 0)
  (0.0210938 0.0216644 0)
  (0.0409315 0.0290438 0)
  (0.0600306 0.0226544 0)
  (0.0801068 -0.00458171 0)
  (0.139043 0.039025 0)
  (-0.405654 0.202594 0)
  (1.01962 0.42305 0)
  (0.485068 0.279584 0)
  (0.499917 0.183073 0)
  (0.526322 0.1118 0)
  (0.507326 0.0604891 0)
  (0.465425 0.0133204 0)
  (0.416669 -0.0259973 0)
  (0.363099 -0.0529206 0)
  (0.305012 -0.0666668 0)
  (0.24532 -0.0692475 0)
  (0.187493 -0.0640378 0)
  (0.134127 -0.0542005 0)
  (0.0867888 -0.0416144 0)
  (0.047034 -0.0284969 0)
  (0.0149468 -0.0166552 0)
  (-0.0104901 -0.0071632 0)
  (-0.0254497 -0.00291331 0)
  (-0.0346803 -0.00187505 0)
  (-0.0408947 -0.00238374 0)
  (-0.0457197 -0.00338692 0)
  (-0.0496705 -0.00440976 0)
  (-0.0528822 -0.00541715 0)
  (-0.0554649 -0.00643016 0)
  (-0.0575793 -0.00748231 0)
  (-0.0594675 -0.00862224 0)
  (-0.0614792 -0.00983108 0)
  (-0.0639646 -0.0109007 0)
  (-0.067222 -0.0114644 0)
  (-0.07157 -0.0109939 0)
  (-0.077439 -0.00878473 0)
  (-0.0853776 -0.00401354 0)
  (-0.0953446 0.00387553 0)
  (-0.105497 0.0143646 0)
  (-0.12031 0.0276805 0)
  (-0.143548 0.0439512 0)
  (-0.177715 0.0621072 0)
  (-0.226166 0.0782733 0)
  (-0.281924 0.0898768 0)
  (-0.349915 0.0968596 0)
  (-0.609548 0.0997404 0)
  (-0.150929 0.00204163 0)
  (0.121411 0.00183409 0)
  (0.200581 -0.0315125 0)
  (0.187558 -0.0416564 0)
  (0.171484 -0.0398128 0)
  (0.149413 -0.0350326 0)
  (0.119975 -0.0289138 0)
  (0.0862433 -0.0216042 0)
  (0.0517277 -0.013569 0)
  (0.0169013 -0.00541424 0)
  (-0.0165853 0.00218821 0)
  (-0.0390058 0.00651335 0)
  (-0.0544769 0.00886624 0)
  (-0.0637301 0.00937909 0)
  (-0.0688379 0.0085532 0)
  (-0.0723805 0.00761505 0)
  (-0.0751788 0.00683234 0)
  (-0.0776623 0.00621019 0)
  (-0.080158 0.00566559 0)
  (-0.0827925 0.00495629 0)
  (-0.085543 0.00415787 0)
  (-0.0884885 0.00329424 0)
  (-0.0917521 0.00242285 0)
  (-0.0954744 0.00166342 0)
  (-0.0997323 0.00125539 0)
  (-0.104524 0.0015061 0)
  (-0.109776 0.00274143 0)
  (-0.115309 0.00526235 0)
  (-0.120507 0.00958572 0)
  (-0.124633 0.0166126 0)
  (-0.128048 0.0274669 0)
  (-0.130964 0.0425351 0)
  (-0.134045 0.0610081 0)
  (-0.137729 0.0794664 0)
  (-0.138977 0.0883768 0)
  (-0.12148 0.0672317 0)
  (-0.0783085 -0.0230918 0)
  (-0.274042 -0.198519 0)
  (0.0153892 0.194658 0)
  (0.0412946 0.0703983 0)
  (0.000397617 0.00594668 0)
  (-0.0125585 -0.0021497 0)
  (-0.0258612 -0.000189162 0)
  (-0.0407462 9.21825e-05 0)
  (-0.057002 0.00117094 0)
  (-0.0724993 0.0034095 0)
  (-0.0847462 0.0055239 0)
  (-0.0915167 0.00587815 0)
  (-0.0958503 0.00397127 0)
  (-0.0976545 -2.42524e-05 0)
  (-0.0979621 -0.00455761 0)
  (-0.0974197 -0.00942462 0)
  (-0.0969304 -0.0146135 0)
  (-0.0970286 -0.0196492 0)
  (-0.0977434 -0.0242452 0)
  (-0.0989835 -0.02815 0)
  (-0.10063 -0.0311851 0)
  (-0.102613 -0.0332694 0)
  (-0.104992 -0.0345609 0)
  (-0.107675 -0.0350245 0)
  (-0.110561 -0.0346041 0)
  (-0.113564 -0.0334912 0)
  (-0.116558 -0.031691 0)
  (-0.119302 -0.0289697 0)
  (-0.121419 -0.0249056 0)
  (-0.122432 -0.0188891 0)
  (-0.121915 -0.0109943 0)
  (-0.118988 -0.000913583 0)
  (-0.112284 0.0120787 0)
  (-0.100521 0.0286285 0)
  (-0.0832592 0.048246 0)
  (-0.0612651 0.0669979 0)
  (-0.0374307 0.0779339 0)
  (0.00248562 0.0619361 0)
  (0.143013 -0.0083049 0)
  (-0.204851 -0.108563 0)
  (-0.0434814 -0.319861 0)
  (-0.41321 -0.123199 0)
  (-0.301233 0.0644014 0)
  (-0.249756 -0.0172508 0)
  (-0.209936 -0.0226761 0)
  (-0.198659 -0.0116904 0)
  (-0.194189 -0.00203583 0)
  (-0.190715 0.00596058 0)
  (-0.186197 0.0134673 0)
  (-0.179731 0.0209351 0)
  (-0.171145 0.028447 0)
  (-0.160752 0.0359077 0)
  (-0.149689 0.0431509 0)
  (-0.139113 0.0501592 0)
  (-0.129817 0.057202 0)
  (-0.122076 0.0642221 0)
  (-0.115935 0.0711539 0)
  (-0.111225 0.0777616 0)
  (-0.107707 0.0836374 0)
  (-0.105177 0.0884153 0)
  (-0.103451 0.0918674 0)
  (-0.102374 0.0939047 0)
  (-0.101855 0.0946091 0)
  (-0.101852 0.0939392 0)
  (-0.102319 0.0918578 0)
  (-0.103174 0.0887661 0)
  (-0.104289 0.0849186 0)
  (-0.10545 0.0804023 0)
  (-0.106274 0.0752586 0)
  (-0.106088 0.0695872 0)
  (-0.103634 0.0646427 0)
  (-0.0970765 0.0613354 0)
  (-0.084048 0.0605532 0)
  (-0.0627504 0.0632638 0)
  (-0.0336412 0.0700016 0)
  (0.0121407 0.0798416 0)
  (0.0551796 0.0807822 0)
  (0.0960191 0.067978 0)
  (0.160971 0.0422984 0)
  (-0.23189 -0.00782307 0)
)
;

boundaryField
{
  floor
  {
    type noSlip;
  }
  ceiling
  {
    type noSlip;
  }
  sWall
  {
    type noSlip;
  }
  nWall
  {
    type noSlip;
  }
  sideWalls
  {
    type empty;
  }
  glass1
  {
    type noSlip;
  }
  glass2
  {
    type noSlip;
  }
  sun
  {
    type noSlip;
  }
  heatsource1
  {
    type noSlip;
  }
  heatsource2
  {
    type noSlip;
  }
  Table_master
  {
    type noSlip;
  }
  Table_slave
  {
    type noSlip;
  }
  inlet
  {
    type fixedValue;
    value uniform (0.277164 -0.114805 0);
  }
  outlet
  {
    type zeroGradient;
  }
} 	// ************************************************************************* //

