/*--------------------------------*- C++ -*----------------------------------*\
  =========                 |
  \\      /  F ield         | OpenFOAM: The Open Source CFD Toolbox
   \\    /   O peration     | Website:  https://openfoam.org
    \\  /    A nd           | Version:  6
     \\/     M anipulation  |
\*---------------------------------------------------------------------------*/
FoamFile
{
    version     2.0;
    format      ascii;
    class       surfaceScalarField;
    location    "300";
    object      phi;
}
// * * * * * * * * * * * * * * * * * * * * * * * * * * * * * * * * * * * * * //

dimensions      [1 0 -1 0 0 0 0];

internalField   nonuniform List<scalar> 
852
(
-0.00208481
0.0021056
-0.0030265
0.000941678
-0.00356729
0.000540771
-0.00375303
0.000185723
-0.0035387
-0.00021435
-0.00287498
-0.00066373
-0.00178959
-0.00108541
-0.000452852
-0.00133676
0.000758074
-0.00121096
0.00163287
-0.000874832
0.00217289
-0.000540059
0.0023742
-0.000201345
0.00221399
0.000160179
0.00157628
0.000637672
0.00157443
-0.000228225
0.000225027
-0.000392873
0.000164571
1.20794e-05
-0.000405025
0.000628103
-0.000616092
0.00115425
-0.000526214
0.00154003
-0.000385858
0.00175733
-0.000217371
0.0018568
-9.95434e-05
0.00191115
-5.4427e-05
0.00194605
-3.49771e-05
0.00196684
-2.08661e-05
0.00197453
-7.7715e-06
0.00196466
9.78011e-06
0.00192185
4.27285e-05
0.00180984
0.000111929
0.00156575
0.000244002
0.00113302
0.000432633
0.00043228
0.000700649
0.000427904
-0.00154992
0.00371377
-0.0023733
0.00176504
-0.00290631
0.00107376
-0.00310869
0.000388089
-0.00292751
-0.000395551
-0.00234184
-0.00124942
-0.00143517
-0.0019921
-0.000413562
-0.00235839
0.00052936
-0.00215393
0.00127289
-0.0016184
0.00176529
-0.0010325
0.00201931
-0.000455408
0.00206864
0.000110813
0.0020338
0.000672466
0.00238786
0.00122033
0.00119284
0.00119493
0.00119275
-5.29847e-05
0.000270377
0.000366827
-0.000255319
0.000814024
-0.000852287
0.0011799
-0.000982033
0.00150342
-0.000849796
0.00173891
-0.000621411
0.00179313
-0.000271665
0.00180466
-0.000111145
0.00181643
-6.62676e-05
0.00182636
-4.49849e-05
0.00183322
-2.78021e-05
0.00183731
-1.19427e-05
0.00183695
1.00621e-05
0.00182599
5.35991e-05
0.00176762
0.000170212
0.00153896
0.000472572
0.00115268
0.000818823
0.00064407
0.00120917
0.00105989
-0.00113411
0.0049396
-0.00180276
0.00243367
-0.00227718
0.00154817
-0.00246909
0.000579983
-0.00230152
-0.000563132
-0.0017633
-0.00178765
-0.000985223
-0.00277019
-0.000179861
-0.00316378
0.00054078
-0.00287461
0.00112819
-0.00220586
0.00153529
-0.00143965
0.00177344
-0.000693609
0.00188736
-3.15012e-06
0.00193005
0.000629738
0.00192048
0.00122986
0.00142541
0.00168995
0.00261812
0.000326394
-6.7581e-05
0.00112485
-0.00105384
0.00149862
-0.00122611
0.00168633
-0.0011698
0.00183209
-0.000995614
0.00201799
-0.000807382
0.00174642
0.00163536
0.00156917
0.00152427
0.00149654
0.00148467
0.0014948
0.00154847
0.00171875
0.00146178
0.000729446
0.00118074
0.00109978
0.000784714
0.0016051
0.00182532
-0.000822515
0.00588393
-0.00131114
0.00292228
-0.00164193
0.00187894
-0.00176699
0.000705024
-0.00154583
-0.000784308
-0.00102565
-0.00230784
-0.000385837
-0.00341001
0.000197314
-0.00374696
0.00070565
-0.00338299
0.00111613
-0.00261639
0.00139692
-0.0017205
0.00156274
-0.000859482
0.00166144
-0.000101894
0.00174168
0.000549447
0.0018664
0.00110509
0.00208888
0.00146742
0.00309583
0.00161114
0.00250036
0.000584696
0.00269288
-0.000260142
0.00239416
-0.000755163
0.00218758
-0.00101958
0.00204114
-0.00102342
0.00192839
-0.000882926
0.00176162
-0.000640673
0.00201682
-0.000255418
0.00211138
-9.47849e-05
0.00214429
-3.31441e-05
0.00213823
5.8339e-06
0.00209377
4.42298e-05
0.00200595
8.7581e-05
0.00186027
0.000145448
0.00162667
0.000233359
0.00124396
0.000382462
0.00122693
0.000746386
0.00114828
0.00117835
0.00102713
0.00172615
0.00282693
-0.000594502
0.00662709
-0.000911705
0.00323946
-0.00099286
0.00196008
-0.000938851
0.000650998
-0.000562495
-0.00116068
-6.96581e-05
-0.00280069
0.000365395
-0.00384507
0.000701721
-0.00408331
0.000970485
-0.00365181
0.00116208
-0.00280805
0.00126799
-0.00182648
0.0013152
-0.000906759
0.0013582
-0.000144946
0.00145464
0.00045295
0.00166709
0.000892594
0.00200771
0.00112676
0.0024987
0.00112011
0.00261212
0.000471229
0.00252175
-0.000169813
0.00232834
-0.000561804
0.00207068
-0.000761975
0.0018278
-0.000780597
0.00161798
-0.000673173
0.00145809
-0.000480854
0.00144288
-0.00024028
0.00142997
-8.19591e-05
0.00139988
-3.13724e-06
0.0013642
4.14227e-05
0.00132935
7.90003e-05
0.00128933
0.000127502
0.00123383
0.000200864
0.00115478
0.000312315
0.00106747
0.00046968
0.001089
0.000724761
0.00125802
0.00100923
0.00180212
0.00118196
0.0029998
0.00162915
0.00190595
0.00109355
0.00116218
0.000743463
0.0011994
-0.000485992
0.00728555
-0.000624087
0.00337754
-0.000318351
0.00165432
0.000146938
0.000185689
0.000680228
-0.00169398
0.00105794
-0.0031784
0.00124322
-0.00403035
0.00130485
-0.00414497
0.00127904
-0.00362605
0.00119151
-0.00272059
0.00106837
-0.00170343
0.00095199
-0.00079045
0.000902995
-9.60177e-05
0.000967301
0.000388586
0.00116156
0.00069828
0.00145736
0.000830922
0.00182896
0.000748453
0.00197552
0.000324626
0.00189994
-9.4278e-05
0.0017163
-0.000378219
0.00146974
-0.000515479
0.0012143
-0.000525235
0.000984074
-0.000443024
0.000806687
-0.000303551
0.000709101
-0.000142781
0.000658537
-3.14858e-05
0.000632278
2.30281e-05
0.000626618
4.69869e-05
0.000638346
6.71747e-05
0.000663736
0.000102014
0.000699071
0.000165429
0.000745001
0.000266285
0.000810527
0.000404055
0.000948839
0.000586352
0.00118361
0.000774361
0.00148792
0.000877568
0.00187346
0.00124351
0.00168462
0.0012823
0.00102685
0.00140113
0.00226519
-0.000383784
0.00786428
-0.000105661
0.00309939
0.000879855
0.00066878
0.00167888
-0.000613357
0.00215467
-0.00216977
0.00233343
-0.00335716
0.00222956
-0.00392648
0.00193073
-0.00384618
0.00152651
-0.0032219
0.00109537
-0.00228954
0.000703784
-0.00131194
0.000411004
-0.000497755
0.000283626
3.12859e-05
0.000326187
0.000345962
0.000501647
0.000522764
0.000754209
0.000578307
0.00101655
0.000486058
0.00111362
0.000227501
0.00104551
-2.62323e-05
0.000871594
-0.000204376
0.000641273
-0.000285237
0.000398321
-0.000282369
0.000178688
-0.000223483
1.10294e-05
-0.000135989
-8.49172e-05
-4.69346e-05
-0.000122061
5.55564e-06
-0.000120339
2.12024e-05
-9.0434e-05
1.69774e-05
-3.4543e-05
1.11776e-05
4.91275e-05
1.82361e-05
0.000161758
5.26911e-05
0.000303346
0.00012459
0.000475221
0.000232074
0.000687885
0.000373585
0.000929977
0.000532169
0.00114656
0.000660885
0.00143793
0.000952044
0.00162463
0.00109551
0.00148081
0.00154485
0.00378686
0.00182483
0.00625927
0.0025114
0.00241281
0.00312398
5.61752e-05
0.00382653
-0.00131592
0.00405598
-0.00239921
0.00380953
-0.00311069
0.00320237
-0.00331933
0.00239066
-0.00303451
0.00151125
-0.00234256
0.000702534
-0.00148094
6.3495e-05
-0.000673002
-0.000311522
-0.000122829
-0.000435585
0.000155272
-0.000388699
0.000299008
-0.000242924
0.000376924
-5.47801e-05
0.000390098
0.000105928
0.000325282
0.000145974
0.000187379
6.83218e-05
5.13363e-05
-9.34328e-05
-4.27115e-05
-0.000297239
-8.15268e-05
-0.000501529
-7.81809e-05
-0.000675659
-4.94584e-05
-0.000799607
-1.21484e-05
-0.000863265
1.66124e-05
-0.000879633
2.18113e-05
-0.000866417
7.87388e-06
-0.000833161
-1.63915e-05
-0.000778235
-4.38617e-05
-0.000692361
-6.77524e-05
-0.000562508
-7.72767e-05
-0.000381947
-5.60835e-05
-0.000159081
9.09685e-06
9.62277e-05
0.000118166
0.000352333
0.000275958
0.000541249
0.000471865
0.000765023
0.000728169
0.000941315
0.000919115
0.000444644
0.00204143
0.00439391
0.00648636
0.008883
0.00809307
0.000846088
0.00735998
-0.000582812
0.00638584
-0.00142504
0.00510916
-0.001834
0.00365307
-0.00186327
0.00219688
-0.00157839
0.000830852
-0.000976648
-0.000226607
-0.000423608
-0.000867097
-3.26201e-05
-0.0011342
0.00014418
-0.00119471
0.000215699
-0.00114963
0.000253837
-0.0010513
0.000278514
-0.000942844
0.00028156
-0.000870192
0.00025254
-0.000875698
0.000192789
-0.000954773
0.000130309
-0.00108298
8.53824e-05
-0.0012296
6.49849e-05
-0.0013688
6.0906e-05
-0.00148081
6.24261e-05
-0.00155511
6.20382e-05
-0.00159398
5.5355e-05
-0.00161237
4.0087e-05
-0.00162362
1.90072e-05
-0.00163784
-2.29671e-06
-0.00166473
-1.70912e-05
-0.00171523
-1.73623e-05
-0.00180084
8.22097e-06
-0.00192924
7.22045e-05
-0.00210882
0.00018856
-0.00237238
0.000381621
-0.00277352
0.000676993
-0.0034062
0.00110444
-0.00437314
0.00169501
-0.00574866
0.00229453
-0.00593498
0.00222764
-0.00137086
0.00623869
0.00106327
0.00533344
0.000322449
0.00420918
-0.0003008
0.00286292
-0.000487802
0.00141159
-0.000412032
4.85804e-06
-0.000171804
-0.00108345
0.00011152
-0.00168638
0.000179199
-0.00193341
0.000214291
-0.00199769
0.000208362
-0.00198501
0.000202919
-0.00193777
0.000206493
-0.00187652
0.000217164
-0.00182048
0.000225414
-0.00178967
0.000221621
-0.00179942
0.000202423
-0.00184511
0.000175885
-0.00191096
0.000151112
-0.00197877
0.000132668
-0.00203706
0.000119062
-0.00208192
0.000107169
-0.00211483
9.48122e-05
-0.00214041
8.0815e-05
-0.00216528
6.48323e-05
-0.00219459
4.81897e-05
-0.00223114
3.41356e-05
-0.00227558
2.72209e-05
-0.00233007
3.70117e-05
-0.00239469
7.27236e-05
-0.00246657
0.000143974
-0.00254701
0.000268892
-0.00263128
0.000465775
-0.00270734
0.000752949
-0.00275278
0.00114977
-0.00272005
0.00166217
-0.00242921
0.00200359
-0.000937736
0.000736062
-0.00227185
-0.000291023
0.00134565
-0.000522734
0.000553985
-0.00103641
0.000212735
-0.00162324
9.88987e-05
-0.00216629
0.000130878
-0.00254096
0.00020273
-0.00268902
0.000259454
-0.00275539
0.000245442
-0.00275314
0.000211923
-0.00272075
0.000175854
-0.00267155
0.000153601
-0.00261152
0.00014635
-0.00254418
0.000149708
-0.00247558
0.000156691
-0.00241447
0.000160383
-0.00236872
0.000156547
-0.0023392
0.000146231
-0.00232102
0.000132799
-0.00230759
0.00011911
-0.00229481
0.000106147
-0.00228189
9.41107e-05
-0.00227038
8.31778e-05
-0.00226324
7.35438e-05
-0.00226406
6.55163e-05
-0.00227596
5.99667e-05
-0.00230043
5.84799e-05
-0.00233664
6.33036e-05
-0.00237794
7.8192e-05
-0.00241236
0.000107032
-0.00242283
0.000154328
-0.00238155
0.000227491
-0.00225208
0.000336192
-0.0019911
0.000491857
-0.0015211
0.000679667
-0.00065375
0.000794716
0.000681661
0.000668076
0.00153623
-0.000118616
-0.000697894
-0.00548737
-0.00648519
-0.00516226
-0.00463265
-0.00444795
-0.00438039
-0.00428367
-0.00411782
-0.00389781
-0.00369375
-0.00352442
-0.00339183
-0.00328183
-0.00317926
-0.00307341
-0.00296066
-0.0028443
-0.00273191
-0.00262997
-0.0025416
-0.00246698
-0.00240532
-0.00235565
-0.00231683
-0.00228756
-0.00226629
-0.00225064
-0.0022367
-0.00221834
-0.00218572
-0.00212508
-0.00201812
-0.00183903
-0.00155224
-0.00111065
-0.000481975
0.000261004
0.000876314
0.000705052
)
;

boundaryField
{
    floor
    {
        type            calculated;
        value           nonuniform List<scalar> 
29
(
0
0
0
0
0
0
0
0
0
0
0
0
0
0
0
0
0
0
0
0
4.27906e-06
1.19887e-05
1.91842e-05
2.54199e-05
1.81941e-06
3.11172e-06
7.54641e-06
1.14645e-05
1.0727e-05
)
;
    }
    ceiling
    {
        type            calculated;
        value           nonuniform List<scalar> 
43
(
2.58735e-05
2.40403e-05
2.25303e-05
2.4213e-05
2.78884e-05
3.12006e-05
3.4023e-05
3.67546e-05
3.93043e-05
4.12566e-05
4.24616e-05
4.31294e-05
4.34744e-05
4.36438e-05
4.37301e-05
4.37974e-05
4.38879e-05
4.40151e-05
4.41585e-05
4.42804e-05
4.43494e-05
4.43534e-05
4.43013e-05
4.42181e-05
4.41404e-05
4.41136e-05
4.41873e-05
4.44108e-05
4.48247e-05
4.5448e-05
4.627e-05
4.72433e-05
4.82837e-05
4.92864e-05
5.01558e-05
5.0879e-05
5.16244e-05
5.26531e-05
5.2529e-05
5.43384e-05
1.91295e-05
1.6154e-05
8.47436e-06
)
;
    }
    sWall
    {
        type            calculated;
        value           uniform -7.07318e-05;
    }
    nWall
    {
        type            calculated;
        value           nonuniform List<scalar> 6(-3.75225e-05 -3.90479e-05 -4.096e-05 -3.68584e-05 -3.78419e-05 -4.73003e-05);
    }
    sideWalls
    {
        type            empty;
        value           nonuniform 0();
    }
    glass1
    {
        type            calculated;
        value           nonuniform List<scalar> 9(-2.08142e-05 -5.82578e-05 -9.17433e-05 -0.000121825 -0.000148678 -0.000172477 -0.000194967 -0.000219836 -0.000246233);
    }
    glass2
    {
        type            calculated;
        value           nonuniform List<scalar> 2(-0.0001625 -0.000170307);
    }
    sun
    {
        type            calculated;
        value           uniform 0;
    }
    heatsource1
    {
        type            calculated;
        value           nonuniform List<scalar> 3(2.04018e-07 2.04473e-07 2.04743e-07);
    }
    heatsource2
    {
        type            calculated;
        value           nonuniform List<scalar> 4(5.1251e-08 5.14048e-08 0 0);
    }
    Table_master
    {
        type            calculated;
        value           nonuniform List<scalar> 9(-1.53433e-07 -1.53582e-07 -1.53621e-07 -1.53641e-07 -1.53651e-07 -1.53653e-07 -1.53644e-07 -1.53617e-07 -1.53551e-07);
    }
    Table_slave
    {
        type            calculated;
        value           nonuniform List<scalar> 9(1.53235e-07 1.53253e-07 1.53224e-07 1.53207e-07 1.53193e-07 1.53194e-07 1.53211e-07 1.53251e-07 1.53324e-07);
    }
    inlet
    {
        type            calculated;
        value           uniform -0.00645584;
    }
    outlet
    {
        type            calculated;
        value           nonuniform List<scalar> 2(0.00553204 0.000973585);
    }
}


// ************************************************************************* //
