// -*- C++ -*-
// File generated by PyFoam - sorry for the ugliness

FoamFile
{
 version 2.0;
 format ascii;
 class volScalarField;
 location "500";
 object T;
}

dimensions [ 0 0 0 1 0 0 0 ];

internalField nonuniform List<scalar> 459
(
  301.046
  301.011
  301.011
  301.013
  301.014
  301.015
  301.016
  301.019
  301.023
  301.032
  301.051
  301.061
  301.065
  301.065
  301.059
  301.154
  301.175
  301.19
  301.202
  301.212
  301.221
  301.225
  301.228
  301.23
  301.232
  301.234
  301.236
  301.238
  301.239
  301.241
  301.243
  301.245
  301.247
  301.243
  301.066
  301.015
  301.013
  301.013
  301.013
  301.012
  301.012
  301.012
  301.016
  301.029
  301.053
  301.072
  301.081
  301.081
  301.075
  301.078
  301.08
  301.166
  301.174
  301.19
  301.21
  301.228
  301.242
  301.248
  301.252
  301.256
  301.259
  301.262
  301.265
  301.268
  301.271
  301.272
  301.272
  301.269
  301.264
  301.263
  301.085
  301.019
  301.013
  301.013
  301.012
  301.011
  301.008
  301.004
  301.005
  301.02
  301.052
  301.078
  301.094
  301.098
  301.094
  301.092
  301.088
  301.144
  301.163
  301.19
  301.219
  301.246
  301.266
  301.268
  301.271
  301.274
  301.277
  301.281
  301.284
  301.287
  301.29
  301.292
  301.293
  301.288
  301.28
  301.274
  301.105
  301.023
  301.015
  301.015
  301.017
  301.016
  301.011
  300.999
  300.993
  301.011
  301.049
  301.086
  301.11
  301.119
  301.117
  301.111
  301.103
  301.107
  301.128
  301.161
  301.201
  301.242
  301.277
  301.306
  301.33
  301.349
  301.366
  301.381
  301.394
  301.405
  301.416
  301.425
  301.431
  301.39
  301.349
  301.315
  301.293
  301.127
  301.03
  301.018
  301.02
  301.025
  301.028
  301.018
  300.996
  300.984
  301.003
  301.047
  301.095
  301.131
  301.147
  301.147
  301.142
  301.137
  301.148
  301.174
  301.211
  301.252
  301.293
  301.33
  301.361
  301.389
  301.41
  301.428
  301.443
  301.456
  301.465
  301.47
  301.472
  301.469
  301.445
  301.405
  301.361
  301.324
  301.326
  301.332
  301.361
  301.148
  301.041
  301.025
  301.026
  301.034
  301.041
  301.024
  300.994
  300.977
  300.996
  301.048
  301.111
  301.16
  301.186
  301.191
  301.189
  301.191
  301.208
  301.239
  301.277
  301.317
  301.356
  301.391
  301.42
  301.444
  301.463
  301.477
  301.489
  301.498
  301.503
  301.505
  301.503
  301.497
  301.48
  301.45
  301.413
  301.374
  301.361
  301.356
  301.372
  301.168
  301.06
  301.043
  301.043
  301.051
  301.05
  301.022
  300.984
  300.966
  300.991
  301.057
  301.138
  301.202
  301.237
  301.249
  301.251
  301.259
  301.282
  301.314
  301.351
  301.388
  301.422
  301.451
  301.474
  301.492
  301.504
  301.513
  301.519
  301.522
  301.524
  301.523
  301.519
  301.512
  301.499
  301.478
  301.45
  301.417
  301.396
  301.381
  301.384
  301.199
  301.112
  301.092
  301.084
  301.083
  301.055
  301.005
  300.958
  300.947
  300.992
  301.082
  301.184
  301.261
  301.302
  301.317
  301.324
  301.337
  301.363
  301.394
  301.426
  301.456
  301.481
  301.5
  301.514
  301.522
  301.527
  301.529
  301.529
  301.527
  301.524
  301.52
  301.516
  301.51
  301.501
  301.486
  301.466
  301.443
  301.423
  301.407
  301.437
  301.24
  301.199
  301.17
  301.146
  301.098
  301.013
  300.933
  300.896
  300.923
  301.011
  301.141
  301.263
  301.34
  301.374
  301.389
  301.4
  301.417
  301.44
  301.465
  301.487
  301.505
  301.519
  301.528
  301.532
  301.532
  301.531
  301.527
  301.523
  301.517
  301.511
  301.504
  301.496
  301.488
  301.48
  301.472
  301.465
  301.462
  301.464
  301.471
  301.494
  300.33
  300.415
  300.463
  300.536
  300.644
  300.781
  300.938
  301.105
  301.282
  301.373
  301.419
  301.441
  301.455
  301.467
  301.482
  301.498
  301.512
  301.523
  301.53
  301.534
  301.534
  301.532
  301.528
  301.524
  301.518
  301.513
  301.507
  301.501
  301.495
  301.489
  301.484
  301.48
  301.476
  301.474
  301.475
  301.48
  301.493
  301.527
  300.398
  300.558
  300.731
  300.893
  301.012
  301.125
  301.234
  301.33
  301.405
  301.45
  301.474
  301.489
  301.499
  301.509
  301.517
  301.525
  301.531
  301.534
  301.534
  301.533
  301.53
  301.526
  301.522
  301.517
  301.513
  301.508
  301.504
  301.5
  301.496
  301.493
  301.489
  301.486
  301.483
  301.481
  301.481
  301.485
  301.496
  301.515
  300.808
  300.8
  300.798
  300.967
  301.11
  301.222
  301.301
  301.361
  301.41
  301.448
  301.475
  301.492
  301.502
  301.509
  301.514
  301.517
  301.519
  301.52
  301.519
  301.517
  301.513
  301.509
  301.505
  301.501
  301.497
  301.493
  301.49
  301.487
  301.485
  301.483
  301.482
  301.481
  301.481
  301.48
  301.479
  301.479
  301.48
  301.482
  301.484
  301.509
)
;

boundaryField
{
  floor
  {
    type wallHeatTransfer;
    Tinf uniform 299.755;
    alphaWall uniform 0.24;
    value nonuniform List<scalar> 29
(
  300.857
  300.858
  300.931
  300.959
  300.973
  300.981
  300.983
  300.978
  300.969
  300.96
  300.951
  300.942
  300.933
  300.925
  300.917
  300.909
  300.899
  300.888
  300.869
  300.841
  300.841
  300.895
  300.922
  300.959
  300.857
  300.858
  300.939
  300.931
  300.931
)
;
  }
  ceiling
  {
    type wallHeatTransfer;
    Tinf uniform 299.755;
    alphaWall uniform 0.24;
    value nonuniform List<scalar> 43
(
  300.718
  300.714
  300.716
  300.882
  301.013
  301.113
  301.181
  301.232
  301.271
  301.3
  301.32
  301.331
  301.338
  301.343
  301.347
  301.35
  301.352
  301.353
  301.352
  301.35
  301.346
  301.342
  301.338
  301.334
  301.33
  301.325
  301.321
  301.316
  301.311
  301.306
  301.3
  301.296
  301.291
  301.288
  301.286
  301.285
  301.285
  301.285
  301.286
  301.305
  301.121
  301.097
  300.334
)
;
  }
  sWall
  {
    type wallHeatTransfer;
    Tinf uniform 303.161;
    alphaWall uniform 0.36;
    value uniform 301.099;
  }
  nWall
  {
    type wallHeatTransfer;
    Tinf uniform 303.145;
    alphaWall uniform 0.36;
    value nonuniform List<scalar> 6
(
  301.842
  301.773
  301.738
  301.774
  301.748
  301.778
)
;
  }
  sideWalls
  {
    type empty;
  }
  glass1
  {
    type wallHeatTransfer;
    Tinf uniform 303.161;
    alphaWall uniform 4.3;
    value nonuniform List<scalar> 9
(
  302.656
  302.588
  302.54
  302.499
  302.462
  302.424
  302.392
  302.394
  302.416
)
;
  }
  glass2
  {
    type wallHeatTransfer;
    Tinf uniform 303.145;
    alphaWall uniform 4.3;
    value nonuniform List<scalar> 2
(
  302.645
  302.647
)
;
  }
  sun
  {
    type wallHeatTransfer;
    Tinf uniform 299.755;
    alphaWall uniform 0.24;
    value nonuniform List<scalar> 14
(
  300.852
  300.836
  300.843
  300.851
  300.858
  300.865
  300.872
  300.878
  300.885
  300.893
  300.906
  300.906
  300.897
  300.881
)
;
  }
  heatsource1
  {
    type fixedGradient;
    gradient uniform 0;
  }
  heatsource2
  {
    type fixedGradient;
    gradient uniform 0;
  }
  Table_master
  {
    type zeroGradient;
  }
  Table_slave
  {
    type zeroGradient;
  }
  inlet
  {
    type fixedValue;
    value uniform 300.15;
  }
  outlet
  {
    type zeroGradient;
  }
} 	// ************************************************************************* //

