/*--------------------------------*- C++ -*----------------------------------*\
  =========                 |
  \\      /  F ield         | OpenFOAM: The Open Source CFD Toolbox
   \\    /   O peration     | Website:  https://openfoam.org
    \\  /    A nd           | Version:  6
     \\/     M anipulation  |
\*---------------------------------------------------------------------------*/
FoamFile
{
    version     2.0;
    format      ascii;
    class       surfaceScalarField;
    location    "610";
    object      phi;
}
// * * * * * * * * * * * * * * * * * * * * * * * * * * * * * * * * * * * * * //

dimensions      [1 0 -1 0 0 0 0];

internalField   nonuniform List<scalar> 
852
(
-0.00242686
0.00246671
-0.00327039
0.000843516
-0.00397953
0.000709122
-0.00458068
0.000601134
-0.00504844
0.000467749
-0.00536472
0.000316269
-0.00550903
0.000144288
-0.00545662
-5.24186e-05
-0.0051806
-0.000276036
-0.00467196
-0.000508651
-0.00395356
-0.000718419
-0.00307634
-0.000877232
-0.00210803
-0.000968326
-0.00110711
-0.00100093
-0.00111067
0.000189086
-0.000194411
0.000368916
-0.000179838
0.000601876
-0.00023297
0.000735703
-0.000133838
0.000764146
-2.84548e-05
0.000731675
3.24595e-05
0.000703608
2.80541e-05
0.000702239
1.35492e-06
0.000708755
-6.53111e-06
0.00071475
-6.01051e-06
0.000718443
-3.71036e-06
0.000716855
1.57134e-06
0.000704541
1.22962e-05
0.000670761
3.37619e-05
0.000595747
7.49972e-05
0.000454238
0.000141491
0.00026031
0.00019391
-0.000163993
0.000424284
-0.000170187
-0.0017827
0.00435799
-0.002635
0.0016958
-0.00337963
0.00145374
-0.00398074
0.00120223
-0.00444421
0.000931198
-0.00476339
0.000635437
-0.00492019
0.000301075
-0.00488909
-8.35356e-05
-0.00464832
-0.000516818
-0.00419778
-0.000959203
-0.00357521
-0.001341
-0.0028471
-0.00160536
-0.00209607
-0.00171937
-0.00143182
-0.0016652
-0.00115747
-0.00138504
-0.000381987
-0.000775546
-0.000382057
-2.66109e-05
-0.000180962
0.000611883
-0.000818343
0.00084346
-0.000464559
0.00093789
-0.00022828
0.000942602
-3.31793e-05
0.000891164
8.38838e-05
0.00088373
3.54727e-05
0.000892683
-7.61341e-06
0.000896816
-1.06796e-05
0.000899513
-8.72332e-06
0.000902352
-6.56644e-06
0.000904601
-6.95219e-07
0.00090465
1.22304e-05
0.000898962
3.94317e-05
0.000862605
0.000111337
0.000708839
0.000295238
0.000428016
0.000474715
0.00029013
0.000562152
0.000103331
-0.00128998
0.00581528
-0.00204155
0.00244735
-0.00272005
0.00213222
-0.00324923
0.00173139
-0.00366578
0.00134773
-0.00396496
0.000934604
-0.00412341
0.000459502
-0.00410689
-0.000100066
-0.0038842
-0.000739525
-0.00346116
-0.00138225
-0.00289004
-0.00191213
-0.00223962
-0.00225578
-0.00158253
-0.00237647
-0.00100395
-0.0022438
-0.000555807
-0.00183319
-0.000152844
-0.00117853
-0.000534917
0.000926435
-0.0011263
0.000980545
-0.000872466
0.00115136
-0.000635391
0.00122836
-0.000305292
0.00119876
-3.59474e-06
0.000988254
0.000294381
0.00102387
0.00101639
0.00100585
0.000997264
0.000990835
0.000990277
0.00100264
0.00104221
0.00115368
0.000982455
0.00046645
0.000813513
0.000643638
0.000653506
0.000722141
0.000730597
-0.000936512
0.00696967
-0.00154971
0.00306054
-0.0020346
0.00261709
-0.00241621
0.00211299
-0.0027326
0.00166411
-0.00297466
0.00117664
-0.00311303
0.00059786
-0.00309686
-0.000116256
-0.0028789
-0.000957491
-0.00247906
-0.00178211
-0.00197246
-0.00241874
-0.00142285
-0.0028054
-0.000877498
-0.00292183
-0.000372929
-0.00274838
9.90973e-05
-0.00230523
0.000585562
-0.00166501
0.00114056
-0.00108993
0.00198512
-0.000863258
0.00185589
-0.000997091
0.00174193
-0.000758521
0.00161424
-0.000507715
0.00154536
-0.000236416
0.00153414
7.60562e-06
0.00166651
0.000161996
0.00153952
0.000126829
0.00146316
7.61926e-05
0.00139602
6.69734e-05
0.00133079
6.50643e-05
0.00126519
6.54297e-05
0.00119303
7.19906e-05
0.00110382
8.90401e-05
0.000980956
0.000122697
0.000793682
0.000187106
0.000869096
0.000391018
0.000914094
0.000598622
0.000968247
0.00066797
0.00166355
-0.000677055
0.00790802
-0.00115707
0.00354054
-0.00133552
0.00279552
-0.00151237
0.00228983
-0.00167833
0.00183005
-0.00181155
0.00130985
-0.0018871
0.000673388
-0.00183479
-0.000168585
-0.00160187
-0.00119042
-0.00124231
-0.00214168
-0.000843617
-0.00281744
-0.000447366
-0.00320165
-7.30499e-05
-0.00329615
0.000273729
-0.00309516
0.000609421
-0.00264094
0.000982134
-0.00203774
0.0013617
-0.00146951
0.00162798
-0.00112956
0.0015337
-0.000902825
0.00143041
-0.000655243
0.00132631
-0.000403622
0.00125728
-0.000167399
0.00123449
3.0375e-05
0.00123925
0.000157229
0.00119043
0.000175632
0.0011188
0.000147805
0.00105507
0.000130691
0.000996287
0.000123831
0.000938622
0.00012308
0.000880057
0.00013054
0.000818991
0.00015009
0.000756172
0.000185499
0.000704908
0.000238353
0.00075533
0.000340579
0.000932086
0.000421848
0.00137961
0.000220424
0.00224517
0.000797979
0.00108124
0.0011637
-0.00032843
0.00140945
-0.000371191
-0.000586713
0.0087931
-0.000920675
0.00387449
-0.000663031
0.00253786
-0.000580367
0.00220715
-0.000575592
0.00182526
-0.000562614
0.00129685
-0.000507898
0.000618654
-0.00034
-0.000336502
-7.30593e-05
-0.00145738
0.000200117
-0.00241486
0.000436145
-0.00305347
0.000624294
-0.0033898
0.000766625
-0.00343848
0.000884573
-0.00321312
0.00100163
-0.00275801
0.0011312
-0.00216733
0.00124507
-0.00158339
0.00124855
-0.00113306
0.00114173
-0.000796014
0.00100904
-0.000522567
0.000889978
-0.000284576
0.000805117
-8.25516e-05
0.000761038
7.44405e-05
0.000746675
0.000171578
0.000724405
0.000197887
0.0006852
0.000186994
0.000643548
0.000172328
0.000604144
0.000163219
0.000567008
0.000160199
0.000532805
0.000164727
0.000503839
0.00017904
0.000484954
0.000204366
0.000483846
0.000239445
0.000534563
0.000289844
0.000633325
0.000323067
0.000621633
0.000232096
0.00067177
0.000747822
0.000266233
0.00156922
-0.000398429
0.00207409
-0.000811604
-0.000731931
0.00985588
-0.000641005
0.00378355
0.000151681
0.00174516
0.000459841
0.00189897
0.000608138
0.00167694
0.000778546
0.00112643
0.00104785
0.000349334
0.00137857
-0.000667251
0.00163623
-0.00171505
0.00175759
-0.00253622
0.00177282
-0.00306869
0.00170559
-0.00332257
0.00158133
-0.00331422
0.0014312
-0.003063
0.00128206
-0.00260889
0.00114588
-0.00203118
0.00101247
-0.00145
0.000847378
-0.000967985
0.000666032
-0.000614684
0.000497803
-0.000354353
0.000367973
-0.000154759
0.000285537
-1.30267e-07
0.000249316
0.000110647
0.000244821
0.000176058
0.000243178
0.000199514
0.000232169
0.000197987
0.000215305
0.000189175
0.000197431
0.000181076
0.000181694
0.000175919
0.000171478
0.000174926
0.000171292
0.000179208
0.000186103
0.000189539
0.000218843
0.000206687
0.000272392
0.000236276
0.000315445
0.000279996
0.00021711
0.000330412
0.000124489
0.000840424
-0.000102598
0.00179628
-0.000122927
0.0020944
-0.000974565
0.00189309
0.00833169
0.00238488
0.00329174
0.00230986
0.00182016
0.00235669
0.00185213
0.00246514
0.00156847
0.00268099
0.00091056
0.00306387
-3.35733e-05
0.00340475
-0.00100815
0.00349955
-0.00180986
0.00336598
-0.00240266
0.00307423
-0.00277693
0.00268416
-0.00293248
0.00224207
-0.00287213
0.00178933
-0.00261027
0.00136046
-0.00218004
0.000974825
-0.00164557
0.000641199
-0.0011164
0.00035128
-0.000678087
0.000113752
-0.000377173
-6.37533e-05
-0.000176863
-0.000179664
-3.88637e-05
-0.000237673
5.78632e-05
-0.000251109
0.000124067
-0.000241612
0.000166545
-0.000228544
0.000186429
-0.00022087
0.000190296
-0.000218082
0.00018637
-0.000216327
0.000179303
-0.000211344
0.000170918
-0.000198411
0.000161974
-0.000172048
0.000152827
-0.000126369
0.000143841
-5.59696e-05
0.000136268
4.30152e-05
0.000137272
0.000154775
0.000168217
0.000224984
0.000260183
0.000407285
0.000658103
0.000728542
0.00147501
0.0015318
0.00129112
0.000309715
0.00870328
0.0119627
0.00986384
0.00391905
0.00867142
0.00304453
0.00785516
0.00238472
0.00734721
0.00141848
0.00686885
0.000444773
0.00625658
-0.000395889
0.00556515
-0.00111842
0.00482788
-0.00166538
0.00406347
-0.0020125
0.00328305
-0.00215206
0.00250598
-0.00209506
0.00176171
-0.00186602
0.00108882
-0.00150718
0.000517946
-0.00107472
6.96814e-05
-0.000668162
-0.000248351
-0.000360077
-0.000463762
-0.000161781
-0.000600532
-4.01105e-05
-0.000675316
3.59032e-05
-0.000704026
8.65565e-05
-0.000702925
0.000122949
-0.000685368
0.000148971
-0.000662698
0.000163742
-0.000640954
0.000168534
-0.000620807
0.000166204
-0.000600342
0.000158819
-0.000576724
0.00014728
-0.000546461
0.000131692
-0.000505287
0.000111634
-0.000448024
8.65576e-05
-0.000368143
5.63668e-05
-0.000252538
2.16475e-05
-8.58283e-05
1.48711e-06
0.000125238
4.90965e-05
0.00049012
0.000293201
0.00110391
0.000861199
0.00172293
0.000672072
0.00176518
0.00653345
0.00365729
0.00613715
0.00344083
0.00631409
0.00220779
0.00637367
0.00135892
0.00618978
0.000628679
0.00581847
-2.4559e-05
0.00527947
-0.000579412
0.00458319
-0.000969073
0.00377249
-0.0012018
0.00289136
-0.00127093
0.00199167
-0.00119538
0.00112663
-0.00100102
0.000356938
-0.000737534
-0.00023805
-0.000479774
-0.000625929
-0.00028031
-0.000844165
-0.000141863
-0.000970844
-3.51217e-05
-0.00103958
2.86024e-05
-0.00106812
6.44337e-05
-0.00107013
8.85407e-05
-0.00105499
0.00010779
-0.00102866
0.000122628
-0.000996732
0.000131792
-0.000963103
0.000134885
-0.000929476
0.000132557
-0.000896223
0.000125546
-0.000863131
0.000114169
-0.0008297
9.824e-05
-0.000795255
7.7169e-05
-0.000759035
5.03169e-05
-0.000720226
1.7537e-05
-0.000673363
-2.52364e-05
-0.000601295
-7.06012e-05
-0.000498204
-5.40154e-05
-0.000373578
0.000168554
-0.000173385
0.000660986
-8.22114e-05
0.000580877
0.00163386
0.00127833
0.00234221
0.0027635
0.00195568
0.00361669
0.00135461
0.00410271
0.00087291
0.00428801
0.000443394
0.00415883
0.000104637
0.0036831
-0.000103668
0.00299983
-0.000285791
0.00223537
-0.000437328
0.00149074
-0.000526333
0.000746572
-0.000451256
8.76762e-05
-0.00034217
-0.000425047
-0.000224859
-0.00079198
-0.000112875
-0.00103651
-3.58086e-05
-0.00118926
1.08721e-05
-0.00126428
3.98764e-05
-0.00129678
6.10765e-05
-0.00130754
7.5172e-05
-0.001303
8.39905e-05
-0.00128584
9.06006e-05
-0.00125862
9.53924e-05
-0.00122459
9.77432e-05
-0.00118698
9.72479e-05
-0.00114836
9.39189e-05
-0.00111072
8.78876e-05
-0.0010758
7.92262e-05
-0.00104557
6.7986e-05
-0.0010229
5.44808e-05
-0.00101234
3.97424e-05
-0.00101989
2.50641e-05
-0.00105878
1.36294e-05
-0.00113721
7.81213e-06
-0.00121014
1.88921e-05
-0.00115258
0.000110967
-0.00083052
0.000338908
-0.0007609
0.000511236
0.000810239
-0.0044127
-0.00520503
-0.00291011
-0.00100254
0.000301341
0.00112069
0.00150872
0.00155656
0.00139587
0.00105411
0.000561902
-1.90921e-05
-0.000525591
-0.000923076
-0.00120367
-0.00137319
-0.00146666
-0.00151428
-0.00153343
-0.00153177
-0.00151629
-0.00149218
-0.00146157
-0.00142622
-0.00138853
-0.00135129
-0.0013173
-0.00128924
-0.00126971
-0.00126128
-0.0012662
-0.00128573
-0.00131991
-0.00136571
-0.00141776
-0.00145903
-0.00140742
-0.00112565
-0.000669874
)
;

boundaryField
{
    floor
    {
        type            calculated;
        value           nonuniform List<scalar> 
29
(
0
0
0
0
0
0
0
0
0
0
0
0
0
0
0
0
0
0
0
0
6.17621e-06
1.65927e-05
2.62217e-05
3.52754e-05
3.55074e-06
5.31636e-06
1.31498e-05
1.88918e-05
1.86831e-05
)
;
    }
    ceiling
    {
        type            calculated;
        value           nonuniform List<scalar> 
43
(
5.37545e-05
4.98512e-05
4.72991e-05
4.81115e-05
5.07341e-05
5.35735e-05
5.53721e-05
5.68078e-05
5.70295e-05
5.59723e-05
5.48691e-05
5.4559e-05
5.5168e-05
5.52631e-05
5.56995e-05
5.66171e-05
5.76362e-05
5.84638e-05
5.90079e-05
5.94001e-05
5.96719e-05
5.98567e-05
5.99705e-05
6.00244e-05
6.00268e-05
5.99861e-05
5.99103e-05
5.98056e-05
5.96773e-05
5.95312e-05
5.93796e-05
5.92532e-05
5.92254e-05
5.94059e-05
5.98362e-05
6.01418e-05
5.93426e-05
5.7115e-05
5.54365e-05
6.06112e-05
3.96605e-05
3.22612e-05
3.67479e-05
)
;
    }
    sWall
    {
        type            calculated;
        value           uniform -0.000197411;
    }
    nWall
    {
        type            calculated;
        value           nonuniform List<scalar> 6(4.25352e-05 4.19639e-05 4.00123e-05 4.90868e-05 6.2698e-05 7.97328e-05);
    }
    sideWalls
    {
        type            empty;
        value           nonuniform 0();
    }
    glass1
    {
        type            calculated;
        value           nonuniform List<scalar> 9(-3.98625e-05 -0.000108595 -0.000167319 -0.000217889 -0.000261313 -0.000298382 -0.000330856 -0.000368911 -0.000411257);
    }
    glass2
    {
        type            calculated;
        value           nonuniform List<scalar> 2(0.000247502 0.000267447);
    }
    sun
    {
        type            calculated;
        value           uniform 0;
    }
    heatsource1
    {
        type            calculated;
        value           nonuniform List<scalar> 3(2.03616e-07 2.03862e-07 2.04155e-07);
    }
    heatsource2
    {
        type            calculated;
        value           nonuniform List<scalar> 4(5.10049e-08 5.11337e-08 0 0);
    }
    Table_master
    {
        type            calculated;
        value           nonuniform List<scalar> 9(-1.53104e-07 -1.53138e-07 -1.53149e-07 -1.53158e-07 -1.53165e-07 -1.53169e-07 -1.53167e-07 -1.53156e-07 -1.53123e-07);
    }
    Table_slave
    {
        type            calculated;
        value           nonuniform List<scalar> 9(1.52819e-07 1.52899e-07 1.52929e-07 1.52953e-07 1.52975e-07 1.52997e-07 1.53021e-07 1.53051e-07 1.53095e-07);
    }
    inlet
    {
        type            calculated;
        value           uniform -0.00627168;
    }
    outlet
    {
        type            calculated;
        value           nonuniform List<scalar> 2(0.00455636 0.000742477);
    }
}


// ************************************************************************* //
