/*--------------------------------*- C++ -*----------------------------------*\
  =========                 |
  \\      /  F ield         | OpenFOAM: The Open Source CFD Toolbox
   \\    /   O peration     | Website:  https://openfoam.org
    \\  /    A nd           | Version:  6
     \\/     M anipulation  |
\*---------------------------------------------------------------------------*/
FoamFile
{
    version     2.0;
    format      ascii;
    class       volScalarField;
    location    "290";
    object      epsilon;
}
// * * * * * * * * * * * * * * * * * * * * * * * * * * * * * * * * * * * * * //

dimensions      [0 2 -3 0 0 0 0];

internalField   nonuniform List<scalar> 
459
(
0.00248314
0.0035189
0.00330274
0.00269663
0.00212585
0.00168351
0.00135349
0.00109808
0.000895289
0.000730763
0.000594445
0.000478816
0.000377744
0.000285016
0.000203784
9.40497e-05
0.000217824
0.000172968
0.000134584
0.000105865
8.36483e-05
6.65474e-05
5.37872e-05
4.41339e-05
3.67297e-05
3.09656e-05
2.6415e-05
2.27479e-05
1.96882e-05
1.70135e-05
1.4537e-05
1.25235e-05
1.17441e-05
2.42365e-05
0.0040823
0.00857232
0.00475742
0.00296922
0.0020204
0.00147155
0.00112185
0.000880697
0.000703432
0.000566461
0.000456196
0.000364495
0.000286934
0.0002204
0.000169477
0.000177784
0.000112021
0.00020372
0.000465871
0.000202985
0.000127329
9.09686e-05
6.88449e-05
5.67529e-05
4.56251e-05
3.64359e-05
2.92551e-05
2.37326e-05
1.94742e-05
1.61559e-05
1.35231e-05
1.15851e-05
1.07254e-05
1.79013e-05
4.26391e-05
5.40856e-05
0.00485282
0.0119014
0.0050634
0.00261145
0.00157649
0.00108349
0.000814346
0.000645248
0.000524678
0.000429928
0.000350619
0.000282348
0.000224001
0.000175041
0.000138994
0.000121176
0.000115052
0.000192529
0.000217515
0.000142614
0.00010853
8.55265e-05
7.15084e-05
0.00012944
8.35179e-05
5.711e-05
4.09892e-05
3.06397e-05
2.37426e-05
1.91435e-05
1.61516e-05
1.4454e-05
1.12883e-05
1.93148e-05
8.69375e-05
8.95783e-05
0.00478717
0.0110692
0.00374679
0.00149764
0.000793412
0.000559544
0.000465648
0.000404349
0.000351059
0.000300649
0.000252803
0.000208606
0.000169577
0.000137018
0.000113723
9.81248e-05
0.000103476
0.00013672
0.000170932
0.000145847
0.000124906
0.000103452
8.42378e-05
7.47558e-05
0.000172159
0.000122282
8.91244e-05
6.5635e-05
4.81923e-05
3.47632e-05
2.41169e-05
1.5565e-05
9.16967e-06
1.07666e-05
2.15111e-05
0.000187722
0.000149061
0.00454682
0.00806896
0.00205169
0.000568648
0.000308411
0.000269542
0.000260725
0.000247506
0.000227994
0.000204236
0.000178749
0.000153499
0.000130483
0.000112968
0.000102677
9.80715e-05
0.000113242
0.000140916
0.000153899
0.00015286
0.000135477
0.000110801
8.83578e-05
7.491e-05
7.60494e-05
6.8176e-05
5.74304e-05
4.6496e-05
3.64152e-05
2.73402e-05
1.91563e-05
1.2601e-05
9.46025e-06
1.76308e-05
2.59236e-05
0.000135388
0.00017251
0.000182744
0.000243442
0.00061969
0.00407413
0.00577863
0.00127746
0.00033397
0.000176528
0.00016152
0.000163331
0.000161993
0.000156142
0.000147184
0.000136925
0.000127064
0.000119291
0.000115968
0.000120417
0.000133613
0.000162715
0.000194962
0.000199391
0.000182198
0.00015157
0.000117535
8.99222e-05
7.26866e-05
6.37823e-05
5.50382e-05
4.53949e-05
3.58003e-05
2.73376e-05
2.10726e-05
1.72426e-05
1.68548e-05
2.15992e-05
3.32194e-05
4.67624e-05
8.26608e-05
0.00013447
0.000262014
0.00102253
0.00155756
0.00343994
0.00428297
0.000977471
0.000356401
0.000170601
0.000145689
0.000144497
0.000145567
0.000145929
0.000145877
0.000146308
0.000148189
0.000152584
0.000161125
0.000175767
0.000197485
0.000227082
0.000248022
0.00024198
0.000211464
0.00016629
0.000124038
9.53497e-05
7.76295e-05
6.56217e-05
5.53681e-05
4.61236e-05
3.85273e-05
3.34473e-05
3.18485e-05
3.4764e-05
4.39369e-05
6.10826e-05
8.37844e-05
0.000108942
0.000146441
0.000240493
0.000820508
0.0033877
0.00374311
0.00266043
0.00307981
0.00105359
0.00072373
0.000311775
0.000243418
0.000238396
0.000243746
0.000250428
0.000257972
0.000267281
0.000278704
0.000291382
0.000307404
0.00032287
0.000338497
0.000353532
0.000355757
0.000335315
0.000293483
0.000242154
0.000195618
0.000164428
0.000141173
0.000123397
0.000109393
9.88839e-05
9.25511e-05
9.156e-05
9.74818e-05
0.000112403
0.000138941
0.000178496
0.00022817
0.000287645
0.000341195
0.000472707
0.00166826
0.0115917
0.00919842
0.00159514
0.00147485
0.00148639
0.00168078
0.000825196
0.000641644
0.000639742
0.000663952
0.000684464
0.000702813
0.000726171
0.000758638
0.000781237
0.00078978
0.000787702
0.00077715
0.000761197
0.000738258
0.000700518
0.0006462
0.000581224
0.000515857
0.000468683
0.000429054
0.000396186
0.000370091
0.000351566
0.000342317
0.000344887
0.000362597
0.000399253
0.000457958
0.000538868
0.000646719
0.000752331
0.00084426
0.00101676
0.00263008
0.0149294
0.012197
0.00198374
0.00273291
0.00217519
0.00199419
0.00205938
0.00214168
0.00217544
0.00218644
0.00221489
0.00221367
0.00219598
0.0021649
0.00212091
0.00206677
0.00201179
0.00196336
0.00190999
0.00184632
0.001767
0.00166474
0.0015757
0.00149778
0.00143091
0.00137584
0.00133493
0.00131244
0.00131467
0.0013496
0.00142525
0.00154393
0.00169196
0.00184871
0.00197314
0.00209069
0.0023058
0.00349713
0.0101325
0.0068874
0.00652178
0.00827333
0.00695958
0.00625198
0.00624973
0.00643005
0.00646801
0.00642173
0.00633249
0.00622592
0.00610881
0.00598071
0.00584086
0.00569579
0.00555788
0.00546897
0.00540526
0.00534166
0.00525151
0.00508985
0.00489245
0.00471781
0.00456831
0.0044425
0.00434381
0.00428112
0.00426942
0.00433031
0.00448891
0.00475755
0.00509048
0.00530929
0.00536143
0.00536817
0.00539916
0.0055366
0.00569203
0.00392669
0.000859287
0.000486145
0.00179267
0.00379679
0.00414644
0.00398131
0.00382315
0.00373131
0.0036794
0.00361874
0.00354273
0.003455
0.00336101
0.00326506
0.00317166
0.00308719
0.00301945
0.00299423
0.00298813
0.00298023
0.00295679
0.0029272
0.00289195
0.00285516
0.00282207
0.0027954
0.00277775
0.00277231
0.00278274
0.00281214
0.00286026
0.00291745
0.00295673
0.00296465
0.0029564
0.00294844
0.00297982
0.00315206
0.00318198
0.00226132
)
;

boundaryField
{
    floor
    {
        Cmu             0.09;
        kappa           0.41;
        E               9.8;
        type            epsilonWallFunction;
        value           nonuniform List<scalar> 
29
(
0.000203784
9.40497e-05
0.000217824
0.000172968
0.000134584
0.000105865
8.36483e-05
6.65474e-05
5.37872e-05
4.41339e-05
3.67297e-05
3.09656e-05
2.6415e-05
2.27479e-05
1.96882e-05
1.70135e-05
1.4537e-05
1.25235e-05
1.17441e-05
2.42365e-05
2.42365e-05
5.40856e-05
8.95783e-05
0.000149061
0.000203784
9.40497e-05
0.00020372
0.000192529
0.00013672
)
;
    }
    ceiling
    {
        Cmu             0.09;
        kappa           0.41;
        E               9.8;
        type            epsilonWallFunction;
        value           nonuniform List<scalar> 
43
(
0.000859287
0.000486145
0.00179267
0.00379679
0.00414644
0.00398131
0.00382315
0.00373131
0.0036794
0.00361874
0.00354273
0.003455
0.00336101
0.00326506
0.00317166
0.00308719
0.00301945
0.00299423
0.00298813
0.00298023
0.00295679
0.0029272
0.00289195
0.00285516
0.00282207
0.0027954
0.00277775
0.00277231
0.00278274
0.00281214
0.00286026
0.00291745
0.00295673
0.00296465
0.0029564
0.00294844
0.00297982
0.00315206
0.00318198
0.00226132
0.00159514
0.00147485
0.00652178
)
;
    }
    sWall
    {
        Cmu             0.09;
        kappa           0.41;
        E               9.8;
        type            epsilonWallFunction;
        value           uniform 0.000859287;
    }
    nWall
    {
        Cmu             0.09;
        kappa           0.41;
        E               9.8;
        type            epsilonWallFunction;
        value           nonuniform List<scalar> 6(0.00061969 0.00155756 0.00374311 0.0068874 0.00392669 0.00226132);
    }
    sideWalls
    {
        type            empty;
    }
    glass1
    {
        Cmu             0.09;
        kappa           0.41;
        E               9.8;
        type            epsilonWallFunction;
        value           nonuniform List<scalar> 9(0.00248314 0.0040823 0.00485282 0.00478717 0.00454682 0.00407413 0.00343994 0.00266043 0.00159514);
    }
    glass2
    {
        Cmu             0.09;
        kappa           0.41;
        E               9.8;
        type            epsilonWallFunction;
        value           nonuniform List<scalar> 2(0.00919842 0.012197);
    }
    sun
    {
        Cmu             0.09;
        kappa           0.41;
        E               9.8;
        type            epsilonWallFunction;
        value           nonuniform List<scalar> 
14
(
0.00248314
0.0035189
0.00330274
0.00269663
0.00212585
0.00168351
0.00135349
0.00109808
0.000895289
0.000730763
0.000594445
0.000478816
0.000377744
0.000285016
)
;
    }
    heatsource1
    {
        Cmu             0.09;
        kappa           0.41;
        E               9.8;
        type            epsilonWallFunction;
        value           nonuniform List<scalar> 3(0.000182744 0.000243442 0.00061969);
    }
    heatsource2
    {
        Cmu             0.09;
        kappa           0.41;
        E               9.8;
        type            epsilonWallFunction;
        value           nonuniform List<scalar> 4(0.000177784 0.000112021 0.000112021 0.000115052);
    }
    Table_master
    {
        Cmu             0.09;
        kappa           0.41;
        E               9.8;
        type            epsilonWallFunction;
        value           nonuniform List<scalar> 9(0.00012944 8.35179e-05 5.711e-05 4.09892e-05 3.06397e-05 2.37426e-05 1.91435e-05 1.61516e-05 1.4454e-05);
    }
    Table_slave
    {
        Cmu             0.09;
        kappa           0.41;
        E               9.8;
        type            epsilonWallFunction;
        value           nonuniform List<scalar> 9(0.000172159 0.000122282 8.91244e-05 6.5635e-05 4.81923e-05 3.47632e-05 2.41169e-05 1.5565e-05 9.16967e-06);
    }
    inlet
    {
        type            turbulentMixingLengthDissipationRateInlet;
        mixingLength    0.01;
        phi             phi;
        k               k;
        value           uniform 3.01869e-05;
    }
    outlet
    {
        type            zeroGradient;
    }
}


// ************************************************************************* //
