/*--------------------------------*- C++ -*----------------------------------*\
  =========                 |
  \\      /  F ield         | OpenFOAM: The Open Source CFD Toolbox
   \\    /   O peration     | Website:  https://openfoam.org
    \\  /    A nd           | Version:  6
     \\/     M anipulation  |
\*---------------------------------------------------------------------------*/
FoamFile
{
    version     2.0;
    format      ascii;
    class       volScalarField;
    location    "290";
    object      nut;
}
// * * * * * * * * * * * * * * * * * * * * * * * * * * * * * * * * * * * * * //

dimensions      [0 2 -1 0 0 0 0];

internalField   nonuniform List<scalar> 
459
(
0.00191442
0.00215033
0.00210537
0.00196778
0.00181781
0.0016818
0.00156383
0.00145853
0.00136257
0.00127339
0.00118871
0.00110601
0.00102197
0.000930381
0.000831946
0.000642923
0.00085063
0.000787699
0.000724495
0.000668788
0.000618287
0.000572903
0.000533659
0.000499606
0.00046994
0.000443945
0.000421037
0.000400574
0.000381743
0.000363608
0.000345032
0.000328304
0.000321349
0.00040914
0.00225946
0.0068213
0.00600458
0.00528844
0.00475457
0.00434464
0.00398006
0.00364992
0.00333953
0.00303591
0.00272468
0.00239079
0.00202256
0.00161157
0.00120209
0.000794943
0.000681511
0.000831863
0.00262584
0.00219576
0.00215145
0.00208965
0.00194569
0.00162027
0.00139419
0.00123061
0.00110631
0.0010087
0.000927801
0.000850922
0.000771031
0.000686348
0.000612767
0.000653669
0.000722371
0.000534653
0.0023935
0.00856952
0.00660854
0.00545196
0.00486987
0.00458964
0.00440388
0.00422549
0.00401421
0.00375224
0.00343
0.00304317
0.00259628
0.00210517
0.00161695
0.00116051
0.000687601
0.000816337
0.00215852
0.00250864
0.00273751
0.00276787
0.00245649
0.000715143
0.000617964
0.000544427
0.000487443
0.000442379
0.000406327
0.000378186
0.000357358
0.000344372
0.000409563
0.000611312
0.000947698
0.000632576
0.00238266
0.00846522
0.00600202
0.0046299
0.00427658
0.00435292
0.00441948
0.00439255
0.00426873
0.00405142
0.00374582
0.00336038
0.00291095
0.00242651
0.00194042
0.00147614
0.00104323
0.000728307
0.00166142
0.00238016
0.00298982
0.00331692
0.00337243
0.00293886
0.000786467
0.00070171
0.000631493
0.00057027
0.000514469
0.000461393
0.000408446
0.00035297
0.0002959
0.000501305
0.000613477
0.00120999
0.000749609
0.0023421
0.00715315
0.0049683
0.00402907
0.00422233
0.00443667
0.00450707
0.00449699
0.00440047
0.004218
0.00395621
0.0036214
0.00322623
0.00282344
0.00243484
0.00212131
0.0019742
0.00252064
0.00329363
0.00389706
0.00419453
0.00425338
0.00416559
0.00389481
0.00299279
0.00249322
0.0020966
0.00174718
0.0014289
0.00113747
0.000875515
0.000696249
0.000730115
0.0010274
0.000898956
0.00127235
0.00111711
0.000802289
0.000882776
0.00120533
0.00225795
0.00571237
0.00399993
0.00391195
0.00451992
0.0047223
0.00473521
0.00470057
0.00461884
0.00448709
0.00431032
0.00409904
0.00387009
0.00365553
0.00347691
0.00347848
0.00374827
0.00447966
0.00489151
0.00504335
0.00500213
0.00484401
0.00463513
0.00433529
0.00377736
0.00323375
0.00272584
0.00224244
0.00180337
0.00147377
0.00129799
0.00132947
0.00158387
0.00189715
0.0019255
0.00192648
0.00144233
0.00136342
0.00195475
0.0016388
0.00213412
0.00453449
0.00343348
0.00396327
0.00470035
0.00494774
0.00495503
0.00492044
0.00486512
0.00479066
0.00470477
0.00462177
0.0045611
0.00454531
0.00460653
0.00479392
0.00512998
0.00547496
0.00553708
0.00540532
0.00515991
0.00486712
0.00453261
0.00415322
0.00371822
0.00326953
0.00283479
0.0024409
0.00212997
0.00195733
0.00196382
0.00217235
0.00254038
0.00285578
0.00289692
0.00259299
0.00188049
0.00214045
0.00374982
0.0021951
0.00195893
0.00340696
0.0030116
0.00427615
0.00476831
0.00493283
0.00492993
0.00492338
0.00491956
0.00491196
0.00490381
0.00490682
0.00493771
0.00499914
0.00511056
0.0052666
0.00543001
0.00549787
0.00540969
0.00518996
0.00488841
0.00455156
0.00417673
0.0038244
0.0034974
0.00319658
0.00293576
0.00274073
0.00264453
0.00268063
0.00287142
0.00321443
0.0036415
0.00398666
0.00412953
0.00402672
0.00328541
0.00319967
0.00649344
0.00296219
0.00165183
0.0016092
0.00229976
0.0051638
0.00558419
0.00553195
0.00554046
0.00560325
0.00566394
0.0057019
0.00571423
0.00571104
0.00571007
0.00570828
0.00571915
0.00574335
0.00576393
0.00574381
0.00565966
0.00550907
0.00530654
0.00506948
0.00478531
0.00451315
0.00427136
0.00406934
0.00391964
0.0038405
0.00385381
0.0039803
0.00423076
0.00459041
0.00499299
0.0053089
0.00546554
0.00550253
0.00513137
0.00477741
0.00804094
0.0032543
0.00124635
0.00553336
0.0068369
0.00702037
0.00718737
0.00732139
0.00738622
0.00739564
0.00735324
0.00727395
0.00718487
0.00709818
0.00702575
0.00697512
0.00694945
0.006939
0.00692403
0.0068865
0.0068096
0.00667959
0.00648277
0.00628274
0.00610163
0.00595112
0.00584308
0.00579246
0.00581651
0.00593081
0.0061405
0.00642522
0.00672107
0.00690778
0.00698372
0.00703666
0.00703554
0.00687671
0.0081264
0.00268982
0.00264136
0.00813486
0.00877403
0.00884284
0.00896025
0.00907727
0.00908495
0.00903313
0.00895628
0.00885866
0.00875155
0.00864441
0.008547
0.00846952
0.00843008
0.00844658
0.00848332
0.00850982
0.00849501
0.00839333
0.00823685
0.00807866
0.00793583
0.00781619
0.00772781
0.00768164
0.00769142
0.00777129
0.0079291
0.00815216
0.00838469
0.00850527
0.00849554
0.00845125
0.00833525
0.00789441
0.00652515
0.00223039
0.00134408
0.00111165
0.00171744
0.00220553
0.00227123
0.00224067
0.00221059
0.00219275
0.00218254
0.00217048
0.00215518
0.00213724
0.00211768
0.00209734
0.00207715
0.00205854
0.00204338
0.00203768
0.00203629
0.00203449
0.00202914
0.00202235
0.0020142
0.00200562
0.00199785
0.00199153
0.00198733
0.00198603
0.00198852
0.0019955
0.00200682
0.00202011
0.00202914
0.00203095
0.00202906
0.00202724
0.00203441
0.00207287
0.00207941
0.00185564
)
;

boundaryField
{
    floor
    {
        type            nutkWallFunction;
        Cmu             0.09;
        kappa           0.41;
        E               9.8;
        value           nonuniform List<scalar> 
29
(
0.000100742
7.7697e-05
0.000102984
9.5409e-05
8.77285e-05
8.08931e-05
7.46375e-05
6.89632e-05
6.40124e-05
5.96806e-05
5.5877e-05
5.25197e-05
4.95405e-05
4.68624e-05
4.43824e-05
4.19794e-05
3.95022e-05
3.72567e-05
3.63185e-05
4.79843e-05
4.79842e-05
6.4136e-05
7.64112e-05
9.07877e-05
0.000100742
7.76969e-05
0.000100732
9.88649e-05
8.81945e-05
)
;
    }
    ceiling
    {
        type            nutkWallFunction;
        Cmu             0.09;
        kappa           0.41;
        E               9.8;
        value           nonuniform List<scalar> 
43
(
0.000160696
0.000133887
0.000202617
0.000255962
0.000262996
0.00025967
0.000256403
0.000254459
0.000253342
0.000252026
0.000250361
0.00024841
0.000246283
0.000244069
0.000241871
0.000239843
0.000238189
0.000237566
0.000237414
0.000237218
0.000236635
0.000235896
0.000235008
0.000234072
0.000233224
0.000232536
0.000232077
0.000231935
0.000232206
0.000232966
0.000234199
0.000235646
0.000236627
0.000236823
0.000236617
0.000236418
0.000237197
0.000241378
0.000242088
0.000217655
0.000195063
0.000190309
0.000302389
)
;
    }
    sWall
    {
        type            nutkWallFunction;
        Cmu             0.09;
        kappa           0.41;
        E               9.8;
        value           uniform 0.000160683;
    }
    nWall
    {
        type            nutkWallFunction;
        Cmu             0.09;
        kappa           0.41;
        E               9.8;
        value           nonuniform List<scalar> 6(0.000144616 0.000193666 0.0002546 0.000307411 0.000258412 0.000217653);
    }
    sideWalls
    {
        type            empty;
    }
    glass1
    {
        type            nutkWallFunction;
        Cmu             0.09;
        kappa           0.41;
        E               9.8;
        value           nonuniform List<scalar> 9(0.000223941 0.000261347 0.000275712 0.000274553 0.000270213 0.000261184 0.000247831 0.0002288 0.000194989);
    }
    glass2
    {
        type            nutkWallFunction;
        Cmu             0.09;
        kappa           0.41;
        E               9.8;
        value           nonuniform List<scalar> 2(0.000335878 0.000366276);
    }
    sun
    {
        type            nutkWallFunction;
        Cmu             0.09;
        kappa           0.41;
        E               9.8;
        value           nonuniform List<scalar> 
14
(
0.000224043
0.000249704
0.000244839
0.000229879
0.000213443
0.000198411
0.000185265
0.00017344
0.000162581
0.000152414
0.000142685
0.000133109
0.000123293
0.00011249
)
;
    }
    heatsource1
    {
        type            nutkWallFunction;
        Cmu             0.09;
        kappa           0.41;
        E               9.8;
        value           nonuniform List<scalar> 3(9.71707e-05 0.000106832 0.000144627);
    }
    heatsource2
    {
        type            nutkWallFunction;
        Cmu             0.09;
        kappa           0.41;
        E               9.8;
        value           nonuniform List<scalar> 4(9.62848e-05 8.24576e-05 8.24576e-05 8.32066e-05);
    }
    Table_master
    {
        type            nutkWallFunction;
        Cmu             0.09;
        kappa           0.41;
        E               9.8;
        value           nonuniform List<scalar> 9(8.65827e-05 7.45895e-05 6.53627e-05 5.81078e-05 5.22958e-05 4.75924e-05 4.38845e-05 4.11173e-05 3.93816e-05);
    }
    Table_slave
    {
        type            nutkWallFunction;
        Cmu             0.09;
        kappa           0.41;
        E               9.8;
        value           nonuniform List<scalar> 9(9.52606e-05 8.49366e-05 7.62709e-05 6.86197e-05 6.15584e-05 5.47534e-05 4.78664e-05 4.05271e-05 3.28183e-05);
    }
    inlet
    {
        type            calculated;
        value           uniform 6.7082e-05;
    }
    outlet
    {
        type            calculated;
        value           nonuniform List<scalar> 2(0.00134408 0.00111165);
    }
}


// ************************************************************************* //
