/*--------------------------------*- C++ -*----------------------------------*\
  =========                 |
  \\      /  F ield         | OpenFOAM: The Open Source CFD Toolbox
   \\    /   O peration     | Website:  https://openfoam.org
    \\  /    A nd           | Version:  6
     \\/     M anipulation  |
\*---------------------------------------------------------------------------*/
FoamFile
{
    version     2.0;
    format      ascii;
    class       volScalarField;
    location    "720";
    object      nut;
}
// * * * * * * * * * * * * * * * * * * * * * * * * * * * * * * * * * * * * * //

dimensions      [0 2 -1 0 0 0 0];

internalField   nonuniform List<scalar> 
459
(
0.00061343
0.000680175
0.000709823
0.000749309
0.000786451
0.000823369
0.000863247
0.000899058
0.000927474
0.000943116
0.000938876
0.000898066
0.000799503
0.000681073
0.000584551
0.000379447
0.000549951
0.000553703
0.00055682
0.000552812
0.000539946
0.000513571
0.000484364
0.000456931
0.000432059
0.000409723
0.000389703
0.000371516
0.00035466
0.000338501
0.000322112
0.000303945
0.000275501
0.000245185
0.000781094
0.00190555
0.00185216
0.00214223
0.00245694
0.00276269
0.00298841
0.00323395
0.00348842
0.00372863
0.00392101
0.0040106
0.00388092
0.00342804
0.00224368
0.000716572
0.000569524
0.00056694
0.00179676
0.00185598
0.0020993
0.00224893
0.0021744
0.00159294
0.00134716
0.0011858
0.00106651
0.000972555
0.000890449
0.000815931
0.000744118
0.000672226
0.000609406
0.000572417
0.000466914
0.000297533
0.000922455
0.00258103
0.0023415
0.0026867
0.00288692
0.00303685
0.00315841
0.0033363
0.00358845
0.00391781
0.00428958
0.00461667
0.00474423
0.00455214
0.0038322
0.0024534
0.000694415
0.000636457
0.00152287
0.00215727
0.00265083
0.00292563
0.002662
0.000687055
0.000605751
0.000540451
0.000488317
0.000446418
0.000412643
0.000385307
0.000363505
0.000347405
0.000395005
0.000483687
0.000501688
0.000323904
0.00105698
0.00310612
0.00237062
0.00274577
0.00277777
0.0027588
0.00279289
0.00291669
0.00316601
0.00356661
0.00406842
0.00453427
0.00481081
0.00486214
0.00459967
0.00376917
0.00203835
0.000803354
0.00125297
0.00196333
0.00274769
0.00333839
0.0036158
0.0032114
0.000748397
0.000687165
0.000648128
0.000621638
0.000601084
0.000581228
0.000558796
0.000535307
0.0005071
0.000481768
0.000495324
0.000558275
0.000364799
0.00119571
0.00376009
0.00238186
0.00266338
0.0026321
0.00251071
0.00250602
0.00260194
0.00285384
0.00330908
0.00388866
0.00437027
0.00467672
0.0048097
0.00478046
0.00447341
0.0038145
0.00354305
0.00380457
0.00414875
0.00441472
0.00453594
0.00449849
0.00423856
0.00347777
0.00316816
0.00302625
0.00294401
0.00286968
0.00276907
0.0025907
0.0022796
0.00186974
0.00142596
0.00106636
0.000897985
0.000613469
0.000424048
0.000432036
0.00044821
0.00134778
0.00455985
0.0028819
0.00256792
0.0026185
0.00252895
0.00243008
0.00248784
0.00274254
0.00323134
0.00382571
0.00432475
0.00461632
0.00473571
0.00479757
0.00485647
0.00488632
0.00510597
0.00530712
0.00539017
0.00533347
0.00515565
0.00489442
0.00458564
0.004259
0.00405091
0.00392807
0.00384197
0.00375908
0.00365273
0.00349784
0.00323825
0.00285768
0.00237547
0.00187573
0.00150134
0.00114747
0.000895374
0.000992649
0.000607806
0.00150173
0.00522191
0.00399723
0.00289721
0.0027218
0.00268101
0.00253252
0.00251549
0.00276318
0.00328987
0.00392839
0.00444553
0.00471988
0.00481951
0.0049374
0.00520037
0.00550721
0.00576456
0.00584529
0.00573687
0.00548028
0.00513316
0.00475797
0.00441714
0.00416404
0.00401835
0.00393757
0.00388071
0.00382038
0.0037344
0.00361276
0.00346163
0.00324147
0.00290655
0.00249611
0.0020995
0.00171101
0.00139855
0.00132699
0.000726843
0.00154975
0.00504115
0.0042636
0.00363771
0.00327854
0.0029234
0.00260922
0.00256297
0.00288231
0.00350904
0.00420954
0.00472775
0.00497169
0.00506178
0.00518887
0.00541209
0.00560959
0.00570676
0.00563071
0.00538712
0.00503785
0.00465847
0.00431465
0.00404896
0.00387226
0.00376374
0.00368982
0.00362743
0.00355979
0.00347009
0.00335821
0.00325969
0.00320959
0.00310389
0.00288941
0.00266873
0.00244635
0.00210744
0.00225627
0.000969823
0.00153018
0.00183508
0.00203628
0.00212023
0.00210705
0.00207673
0.00214291
0.0024745
0.00312459
0.00396205
0.00470156
0.0051332
0.00527364
0.00528847
0.00520455
0.0051548
0.00515145
0.00512172
0.00498126
0.00474106
0.00446409
0.00420555
0.00399365
0.00383085
0.00370217
0.00358717
0.00347047
0.00334557
0.00320625
0.00303432
0.00281325
0.00256943
0.0023497
0.00217431
0.00202081
0.00187583
0.00174318
0.00162351
0.00153871
0.00100227
0.00055883
0.000945846
0.0012894
0.0016984
0.00233699
0.00319582
0.00413385
0.00494931
0.00539635
0.00545045
0.00527238
0.00504206
0.00488636
0.00482217
0.00479144
0.00474132
0.00464952
0.00451829
0.00437745
0.00424815
0.00413525
0.00403073
0.00391904
0.00378283
0.00360819
0.00338934
0.00313232
0.00285342
0.00256905
0.00229433
0.00207352
0.00191935
0.00181669
0.00174397
0.00167216
0.00157621
0.00147364
0.0010399
0.000901615
0.00214748
0.00305047
0.00410395
0.0049706
0.00548959
0.00590599
0.00615504
0.00603471
0.00566715
0.00528851
0.0050434
0.00493068
0.00489476
0.0048914
0.00489434
0.00488846
0.00486367
0.00481501
0.0047577
0.00470951
0.00467067
0.00463208
0.00457608
0.00447786
0.00431097
0.00405786
0.00372166
0.0033422
0.00296275
0.00262076
0.00233987
0.00212926
0.00197856
0.00185888
0.00176668
0.00221563
0.00112183
0.00115127
0.00119063
0.00122995
0.00143309
0.00144592
0.00141962
0.00138128
0.00137044
0.00136666
0.0013397
0.00129714
0.00124667
0.00120474
0.00118034
0.00116909
0.00116474
0.00116302
0.00116119
0.00115788
0.00115363
0.00115038
0.00114846
0.0011466
0.00114354
0.00113712
0.00112471
0.00110409
0.00107484
0.00103981
0.00100584
0.000977371
0.000956425
0.000943791
0.000939876
0.000944621
0.000956049
0.000967986
0.000961363
0.000942341
0.000917131
)
;

boundaryField
{
    floor
    {
        type            nutkWallFunction;
        Cmu             0.09;
        kappa           0.41;
        E               9.8;
        value           nonuniform List<scalar> 
29
(
7.04371e-05
4.41026e-05
6.6087e-05
6.65601e-05
6.69529e-05
6.64477e-05
6.48229e-05
6.14772e-05
5.77473e-05
5.42185e-05
5.09963e-05
4.80828e-05
4.54542e-05
4.30516e-05
4.08111e-05
3.86506e-05
3.64457e-05
3.39845e-05
3.00917e-05
2.58838e-05
2.58837e-05
3.3111e-05
3.66869e-05
4.21593e-05
7.04371e-05
4.41026e-05
6.82267e-05
7.69033e-05
9.72972e-05
)
;
    }
    ceiling
    {
        type            nutkWallFunction;
        Cmu             0.09;
        kappa           0.41;
        E               9.8;
        value           nonuniform List<scalar> 
43
(
0.000138333
0.000142877
0.000147401
0.000170527
0.000171977
0.000169011
0.000164673
0.000163444
0.000163016
0.000159952
0.000155104
0.000149329
0.000144512
0.000141701
0.000140402
0.0001399
0.000139701
0.000139489
0.000139107
0.000138615
0.000138239
0.000138017
0.000137802
0.000137447
0.000136703
0.000135264
0.00013287
0.000129465
0.000125372
0.000121389
0.000118038
0.000115566
0.000114072
0.000113608
0.00011417
0.000115521
0.000116931
0.000116149
0.0001139
0.000110911
0.000181458
0.000215288
0.000109062
)
;
    }
    sWall
    {
        type            nutkWallFunction;
        Cmu             0.09;
        kappa           0.41;
        E               9.8;
        value           uniform 0.000138341;
    }
    nWall
    {
        type            nutkWallFunction;
        Cmu             0.09;
        kappa           0.41;
        E               9.8;
        value           nonuniform List<scalar> 6(5.30759e-05 7.3335e-05 8.80154e-05 0.000125388 0.000134938 0.000110914);
    }
    sideWalls
    {
        type            empty;
    }
    glass1
    {
        type            nutkWallFunction;
        Cmu             0.09;
        kappa           0.41;
        E               9.8;
        value           nonuniform List<scalar> 9(7.40283e-05 9.46092e-05 0.000111552 0.000127397 0.000143496 0.000160905 0.000178307 0.000183694 0.000181501);
    }
    glass2
    {
        type            nutkWallFunction;
        Cmu             0.09;
        kappa           0.41;
        E               9.8;
        value           nonuniform List<scalar> 2(0.00011716 0.000120983);
    }
    sun
    {
        type            nutkWallFunction;
        Cmu             0.09;
        kappa           0.41;
        E               9.8;
        value           nonuniform List<scalar> 
14
(
7.40431e-05
8.23018e-05
8.59387e-05
9.07543e-05
9.52568e-05
9.97075e-05
0.000104489
0.000108761
0.000112136
0.000113989
0.000113487
0.000108642
9.68326e-05
8.24121e-05
)
;
    }
    heatsource1
    {
        type            nutkWallFunction;
        Cmu             0.09;
        kappa           0.41;
        E               9.8;
        value           nonuniform List<scalar> 3(4.99473e-05 5.09871e-05 5.30847e-05);
    }
    heatsource2
    {
        type            nutkWallFunction;
        Cmu             0.09;
        kappa           0.41;
        E               9.8;
        value           nonuniform List<scalar> 4(8.67631e-05 6.85499e-05 6.85498e-05 8.40498e-05);
    }
    Table_master
    {
        type            nutkWallFunction;
        Cmu             0.09;
        kappa           0.41;
        E               9.8;
        value           nonuniform List<scalar> 9(8.31459e-05 7.30835e-05 6.48834e-05 5.82493e-05 5.2854e-05 4.84586e-05 4.4868e-05 4.19808e-05 3.98348e-05);
    }
    Table_slave
    {
        type            nutkWallFunction;
        Cmu             0.09;
        kappa           0.41;
        E               9.8;
        value           nonuniform List<scalar> 9(9.0643e-05 8.31593e-05 7.83468e-05 7.50612e-05 7.25002e-05 7.00162e-05 6.71975e-05 6.42309e-05 6.06475e-05);
    }
    inlet
    {
        type            calculated;
        value           uniform 0.000100623;
    }
    outlet
    {
        type            calculated;
        value           nonuniform List<scalar> 2(0.00115127 0.00119063);
    }
}


// ************************************************************************* //
