/*--------------------------------*- C++ -*----------------------------------*\
  =========                 |
  \\      /  F ield         | OpenFOAM: The Open Source CFD Toolbox
   \\    /   O peration     | Website:  https://openfoam.org
    \\  /    A nd           | Version:  6
     \\/     M anipulation  |
\*---------------------------------------------------------------------------*/
FoamFile
{
    version     2.0;
    format      ascii;
    class       volScalarField;
    location    "1300";
    object      alphat;
}
// * * * * * * * * * * * * * * * * * * * * * * * * * * * * * * * * * * * * * //

dimensions      [1 -1 -1 0 0 0 0];

internalField   nonuniform List<scalar> 
459
(
0.00274127
0.0026741
0.00260185
0.00253669
0.00248086
0.00243155
0.00238675
0.00234422
0.00230163
0.00225702
0.00220816
0.00215202
0.0020835
0.00199155
0.00186809
0.000334575
0.000389226
0.00033248
0.000271381
0.000242363
0.000223317
0.000214911
0.000209256
0.000192881
0.000191006
0.000192751
0.000197585
0.000212762
0.000244348
0.000288329
0.00033159
0.000352284
0.000351224
0.000314003
0.00302862
0.00336723
0.00342556
0.00335416
0.003321
0.00333018
0.00336185
0.00338297
0.00336909
0.00331824
0.00322924
0.00309844
0.00291263
0.00263021
0.00224032
0.00178251
0.00157894
0.000402049
0.00132369
0.00116841
0.00118446
0.00110395
0.000934373
0.000681387
0.000391886
0.00026297
0.000237362
0.000264806
0.000326828
0.000463384
0.00071058
0.00103911
0.00150926
0.00145394
0.00128932
0.000414123
0.00319571
0.00368996
0.00340779
0.00311652
0.00306275
0.00314087
0.00327302
0.00340389
0.00350573
0.00355647
0.00354066
0.00344804
0.00326889
0.00297831
0.00260381
0.00225317
0.00158886
0.00064358
0.00112495
0.001286
0.00147345
0.00142877
0.00109808
0.000410131
0.0003381
0.000281446
0.000260799
0.000308176
0.000357388
0.000414735
0.000486402
0.000580615
0.00160487
0.00140841
0.00103298
0.000516086
0.00332096
0.00392741
0.00298543
0.00255949
0.00278057
0.00320202
0.0036186
0.00387221
0.00396482
0.00393941
0.00384006
0.00368619
0.00347365
0.00317302
0.00280888
0.00247065
0.00192996
0.00124593
0.00224874
0.00202806
0.00198039
0.00167665
0.00126368
0.000877783
0.000609725
0.000630252
0.000648471
0.000665374
0.000684031
0.000707861
0.000740795
0.000788529
0.000866651
0.00264483
0.00286063
0.00255594
0.00088091
0.00343584
0.00397366
0.00229864
0.00236706
0.00371097
0.00475447
0.00537095
0.00555423
0.00511404
0.00458719
0.00416216
0.00383959
0.00355463
0.00322833
0.00286706
0.00254301
0.00212119
0.00177969
0.00247639
0.00310543
0.00320399
0.00316568
0.00315576
0.00318762
0.00324023
0.00328311
0.00329398
0.00328173
0.00326099
0.00325303
0.0032788
0.00335098
0.0034749
0.0036727
0.00372055
0.00360935
0.00307645
0.00131588
0.00115795
0.0010064
0.00355947
0.00383231
0.00175065
0.00316615
0.00512277
0.00573888
0.00597368
0.00593077
0.00533299
0.00466118
0.0041509
0.00378462
0.00347681
0.0031485
0.00281583
0.00253141
0.0022756
0.00226608
0.00319238
0.00401061
0.00422863
0.00432477
0.00443277
0.00453802
0.0046133
0.00464309
0.00462433
0.0045515
0.00443136
0.0042911
0.00417016
0.00409468
0.00406056
0.00403912
0.00399247
0.00388276
0.00359607
0.00296297
0.00223969
0.00107392
0.00371206
0.00359127
0.00174944
0.00284033
0.00479421
0.00512312
0.00510522
0.0049711
0.0046743
0.00426768
0.0038925
0.00358138
0.00330106
0.00301326
0.00274019
0.00253767
0.00245711
0.0027839
0.00386711
0.00459825
0.0048336
0.00500396
0.00516391
0.00530042
0.00541183
0.00550063
0.00555556
0.00555041
0.00545423
0.00525785
0.00499907
0.00473722
0.00450288
0.00428742
0.00405502
0.00375268
0.00331571
0.00273863
0.00210737
0.00106979
0.00393179
0.00375359
0.00225962
0.00195147
0.00371125
0.00410941
0.00408713
0.00403732
0.00394698
0.00377105
0.00355733
0.00334238
0.0031282
0.00290904
0.00271195
0.00260696
0.00268977
0.00334905
0.00445577
0.00501682
0.00528181
0.0054919
0.00565849
0.0057909
0.00591096
0.00604095
0.00619291
0.00635704
0.00648865
0.00651271
0.00638076
0.00611593
0.00574971
0.00531469
0.00482848
0.00431163
0.00377909
0.00325824
0.00284592
0.00157301
0.00430499
0.00487801
0.00404019
0.00209198
0.00281578
0.00347169
0.00352212
0.0035137
0.00348433
0.00342584
0.00332878
0.00320959
0.00307529
0.00293011
0.00280027
0.00276724
0.0029718
0.0039043
0.0049154
0.00546542
0.00579319
0.00600711
0.00613421
0.00620204
0.00624768
0.00630923
0.00642292
0.00661851
0.00690514
0.00724111
0.00749044
0.00762262
0.00764261
0.00762484
0.00764892
0.00757956
0.0070305
0.00592617
0.00568843
0.00182532
0.00643875
0.0028947
0.00305192
0.00336307
0.00343881
0.00347666
0.00348109
0.00345537
0.00341897
0.00336978
0.00330284
0.00321442
0.00312091
0.00311131
0.00338199
0.00440765
0.00528567
0.0059607
0.00633055
0.00655344
0.00665401
0.00666587
0.0066325
0.00659672
0.006597
0.00666757
0.00683532
0.00710323
0.00740664
0.00770215
0.0079533
0.00812919
0.00820004
0.00803503
0.00748581
0.00657495
0.00549765
0.00184162
0.00299417
0.00296167
0.00361367
0.0034159
0.00335522
0.0033296
0.00331031
0.00326138
0.0032617
0.00328492
0.00330741
0.00330462
0.00326228
0.00324888
0.00338591
0.00385184
0.00465067
0.00550898
0.00617528
0.00658512
0.00676765
0.00679519
0.00674287
0.00666967
0.00661429
0.0065983
0.00663067
0.00670886
0.00680085
0.00686641
0.00692355
0.00698204
0.00698093
0.00676762
0.00632411
0.00559342
0.00515031
0.00180053
0.0016896
0.00165181
0.00180071
0.00132989
0.00135904
0.00136859
0.0013846
0.00139946
0.0014141
0.00143001
0.0014446
0.00145915
0.00147307
0.00148438
0.00148887
0.00147437
0.00142786
0.0013836
0.00136532
0.00136941
0.00140451
0.00145174
0.00149454
0.00152437
0.00153995
0.00154412
0.00154105
0.00153455
0.00152737
0.00152104
0.00151819
0.00151897
0.00151608
0.00150386
0.0014813
0.00145867
0.00142879
0.00138538
0.00139743
0.00128712
)
;

boundaryField
{
    floor
    {
        type            compressible::alphatWallFunction;
        Prt             0.85;
        value           nonuniform List<scalar> 
29
(
0.000260098
4.33249e-05
5.20545e-05
4.29958e-05
3.30018e-05
2.81486e-05
2.49213e-05
2.3485e-05
2.25187e-05
1.96873e-05
1.93613e-05
1.96686e-05
2.05073e-05
2.31207e-05
2.8481e-05
3.57934e-05
4.2842e-05
4.61699e-05
4.60015e-05
3.99956e-05
3.99951e-05
5.59744e-05
7.17304e-05
0.000125474
0.000260095
4.33243e-05
5.40736e-05
9.09301e-05
0.000176619
)
;
    }
    ceiling
    {
        type            compressible::alphatWallFunction;
        Prt             0.85;
        value           nonuniform List<scalar> 
43
(
0.000236778
0.000231789
0.000251549
0.000188267
0.000192231
0.00019353
0.000195705
0.000197722
0.000199705
0.000201857
0.000203829
0.000205792
0.000207667
0.000209188
0.000209789
0.000207827
0.000201538
0.000195535
0.000193049
0.000193602
0.000198361
0.000204744
0.00021051
0.000214515
0.000216603
0.000217161
0.000216746
0.000215872
0.000214907
0.000214056
0.000213671
0.000213774
0.000213384
0.00021174
0.000208703
0.00020565
0.000201613
0.00019573
0.000197364
0.000182345
0.000563962
0.000632423
0.000403768
)
;
    }
    sWall
    {
        type            compressible::alphatWallFunction;
        Prt             0.85;
        value           uniform 0.000235873;
    }
    nWall
    {
        type            compressible::alphatWallFunction;
        Prt             0.85;
        value           nonuniform List<scalar> 6(0.000143117 0.000152587 0.000152009 0.000256307 0.0002509 0.000182048);
    }
    sideWalls
    {
        type            empty;
    }
    glass1
    {
        type            compressible::alphatWallFunction;
        Prt             0.85;
        value           nonuniform List<scalar> 9(0.000367591 0.000403242 0.000423716 0.000438946 0.000452858 0.000467808 0.000486241 0.000512741 0.000557525);
    }
    glass2
    {
        type            compressible::alphatWallFunction;
        Prt             0.85;
        value           nonuniform List<scalar> 2(0.0002199 0.000253295);
    }
    sun
    {
        type            compressible::alphatWallFunction;
        Prt             0.85;
        value           nonuniform List<scalar> 
14
(
0.00037248
0.00036397
0.000354812
0.000346525
0.0003394
0.000333089
0.000327343
0.000321878
0.0003164
0.000310653
0.000304349
0.000297093
0.000288213
0.000276251
)
;
    }
    heatsource1
    {
        type            compressible::alphatWallFunction;
        Prt             0.85;
        value           nonuniform List<scalar> 3(0.000186179 0.000164474 0.000143322);
    }
    heatsource2
    {
        type            compressible::alphatWallFunction;
        Prt             0.85;
        value           nonuniform List<scalar> 4(0.000248745 0.000221709 0.000221706 0.000223033);
    }
    Table_master
    {
        type            compressible::alphatWallFunction;
        Prt             0.85;
        value           nonuniform List<scalar> 9(5.54189e-05 4.39655e-05 3.47305e-05 3.12917e-05 3.91029e-05 4.7049e-05 5.61297e-05 6.72548e-05 8.15724e-05);
    }
    Table_slave
    {
        type            compressible::alphatWallFunction;
        Prt             0.85;
        value           nonuniform List<scalar> 9(8.59451e-05 8.9006e-05 9.17119e-05 9.42141e-05 9.6967e-05 0.00010047 0.000105289 0.000112228 0.000123478);
    }
    inlet
    {
        type            fixedValue;
        value           uniform 1.94e-05;
    }
    outlet
    {
        type            zeroGradient;
    }
}


// ************************************************************************* //
