// -*- C++ -*-
// File generated by PyFoam - sorry for the ugliness

FoamFile
{
 version 2.0;
 format ascii;
 class volVectorField;
 location "100";
 object U;
}

dimensions [ 0 1 -1 0 0 0 0 ];

internalField nonuniform List<vector> 459
(
  (0.113151 0.0677425 0)
  (-0.1411 -0.00248063 0)
  (-0.108415 -0.000678363 0)
  (-0.111318 0.00134079 0)
  (-0.115244 0.00149454 0)
  (-0.118813 0.000760375 0)
  (-0.121029 -0.000467793 0)
  (-0.121256 -0.0020835 0)
  (-0.118939 -0.00411001 0)
  (-0.11349 -0.00658358 0)
  (-0.104109 -0.00947611 0)
  (-0.0896046 -0.0128879 0)
  (-0.0698056 -0.0174617 0)
  (-0.0519734 -0.0244588 0)
  (-0.0640156 -0.032226 0)
  (0.0293672 0.011599 0)
  (-0.0287755 -0.0125103 0)
  (-0.0138187 -0.015778 0)
  (0.000978242 -0.0109223 0)
  (0.0107623 -0.00408376 0)
  (0.00871569 0.00543199 0)
  (-0.00565279 0.00406786 0)
  (-0.00839475 -0.00265643 0)
  (-0.00393426 -0.00446178 0)
  (0.00243045 -0.00384117 0)
  (0.00809999 -0.0035834 0)
  (0.0135456 -0.00362998 0)
  (0.0185912 -0.00283719 0)
  (0.0210396 -7.34147e-05 0)
  (0.0168653 0.00251854 0)
  (0.0190052 -0.00406558 0)
  (0.025813 -0.0171151 0)
  (0.0407291 -0.0121747 0)
  (-0.0139447 0.0146241 0)
  (0.322072 0.149628 0)
  (-0.168448 0.0101518 0)
  (-0.101024 0.00364495 0)
  (-0.110375 0.00618996 0)
  (-0.115946 0.00637849 0)
  (-0.120298 0.00492439 0)
  (-0.123097 0.00242533 0)
  (-0.124017 -0.000926007 0)
  (-0.122676 -0.00513413 0)
  (-0.118691 -0.0102105 0)
  (-0.111448 -0.0160411 0)
  (-0.100176 -0.0225737 0)
  (-0.0845252 -0.0302261 0)
  (-0.0659927 -0.0398857 0)
  (-0.0480175 -0.0501058 0)
  (-0.0291541 -0.0542589 0)
  (0.0277094 0.00286995 0)
  (0.131623 0.0111343 0)
  (0.0450512 0.00257307 0)
  (0.0137233 -0.004658 0)
  (0.00362891 -0.00678215 0)
  (0.00672 -0.00149921 0)
  (0.0121834 0.0134393 0)
  (0.00852298 0.0130607 0)
  (0.00399342 -0.00202167 0)
  (0.00362523 -0.00657661 0)
  (0.00439262 -0.0060282 0)
  (0.00525024 -0.00577991 0)
  (0.00607023 -0.00611254 0)
  (0.0071214 -0.00488376 0)
  (0.00711865 -0.000154424 0)
  (-0.000990553 0.00341348 0)
  (0.0160783 -0.0098929 0)
  (0.0163825 -0.0198362 0)
  (0.0313475 -0.00823911 0)
  (-0.0797781 0.0438208 0)
  (0.489213 0.22854 0)
  (-0.212792 0.0367614 0)
  (-0.0850197 0.0151175 0)
  (-0.102974 0.0130653 0)
  (-0.110589 0.0113742 0)
  (-0.115826 0.00834971 0)
  (-0.119534 0.00414516 0)
  (-0.121711 -0.00116829 0)
  (-0.122085 -0.00756028 0)
  (-0.120664 -0.0151352 0)
  (-0.117228 -0.0238378 0)
  (-0.111589 -0.0335356 0)
  (-0.103883 -0.044115 0)
  (-0.0948554 -0.0549038 0)
  (-0.085701 -0.0629813 0)
  (-0.0787815 -0.0630729 0)
  (-0.0809191 -0.0535921 0)
  (0.0820238 0.00417735 0)
  (-0.0514457 0.00761991 0)
  (-0.0451943 0.00510242 0)
  (-0.043739 -0.00402769 0)
  (-0.0395737 -0.0103467 0)
  (-0.0347764 -0.0115527 0)
  (0.0271565 0.0111025 0)
  (0.0196882 -0.00343344 0)
  (0.0111214 -0.00981835 0)
  (0.00413636 -0.0104713 0)
  (-0.00243972 -0.00984754 0)
  (-0.00836693 -0.00804364 0)
  (-0.0147469 -0.00414016 0)
  (-0.0224402 0.00082929 0)
  (-0.0270748 0.00349342 0)
  (0.0267134 -0.00970812 0)
  (-0.00565862 0.00537229 0)
  (-0.0570608 0.0198742 0)
  (-0.172308 0.0329353 0)
  (0.618605 0.293195 0)
  (-0.252088 0.0687545 0)
  (-0.0649017 0.030006 0)
  (-0.0897038 0.0222753 0)
  (-0.0996557 0.0177337 0)
  (-0.105057 0.0130581 0)
  (-0.109003 0.00756251 0)
  (-0.111834 0.000945138 0)
  (-0.113547 -0.0067889 0)
  (-0.114311 -0.01559 0)
  (-0.114533 -0.0253561 0)
  (-0.114612 -0.0357285 0)
  (-0.115281 -0.0460418 0)
  (-0.117639 -0.0547468 0)
  (-0.123304 -0.0584565 0)
  (-0.13494 -0.0510691 0)
  (-0.151501 -0.022471 0)
  (-0.148234 0.0359173 0)
  (-0.115483 0.0123608 0)
  (-0.116803 0.00887532 0)
  (-0.109134 0.000303735 0)
  (-0.108565 -0.00822226 0)
  (-0.11152 -0.0150102 0)
  (-0.116823 -0.0182896 0)
  (-0.114854 -0.0122619 0)
  (-0.102501 -0.0127084 0)
  (-0.0880093 -0.0156343 0)
  (-0.0694357 -0.0196788 0)
  (-0.0464075 -0.0247496 0)
  (-0.0207929 -0.0304191 0)
  (0.0169331 -0.0345377 0)
  (0.0480379 -0.0315773 0)
  (0.0763938 -0.026244 0)
  (0.0895689 -0.0151482 0)
  (0.0844515 0.0118864 0)
  (0.0682565 0.0288371 0)
  (-0.0372413 0.0316743 0)
  (0.715331 0.345615 0)
  (-0.280816 0.102641 0)
  (-0.0448811 0.0442818 0)
  (-0.067076 0.0320169 0)
  (-0.0795927 0.0242181 0)
  (-0.0851924 0.01747 0)
  (-0.0887905 0.0107005 0)
  (-0.0912975 0.00323951 0)
  (-0.0930544 -0.00505238 0)
  (-0.0943041 -0.0140293 0)
  (-0.0958869 -0.0235043 0)
  (-0.0982805 -0.0330565 0)
  (-0.102071 -0.0420268 0)
  (-0.107804 -0.0493849 0)
  (-0.115744 -0.053703 0)
  (-0.124935 -0.0530349 0)
  (-0.131333 -0.0438595 0)
  (-0.131631 -0.0228383 0)
  (-0.124881 -0.00622974 0)
  (-0.115298 0.00096479 0)
  (-0.10659 -0.00149688 0)
  (-0.102083 -0.0065273 0)
  (-0.100677 -0.0116588 0)
  (-0.100154 -0.0147007 0)
  (-0.0968455 -0.0144246 0)
  (-0.089657 -0.0172963 0)
  (-0.0796563 -0.022343 0)
  (-0.0665547 -0.0291342 0)
  (-0.0502679 -0.0370716 0)
  (-0.0315604 -0.0450462 0)
  (-0.0106566 -0.0497527 0)
  (0.0135745 -0.0473314 0)
  (0.0353368 -0.0377479 0)
  (0.055215 -0.0190101 0)
  (0.0768323 0.013711 0)
  (0.0921048 0.0388656 0)
  (0.077534 0.0530489 0)
  (0.104385 0.053379 0)
  (0.108048 0.0591305 0)
  (-0.413338 -0.032015 0)
  (0.773112 0.391245 0)
  (-0.301389 0.129287 0)
  (-0.027531 0.045497 0)
  (-0.0278782 0.0382296 0)
  (-0.0399458 0.033035 0)
  (-0.0488555 0.0230116 0)
  (-0.0542066 0.0136821 0)
  (-0.057522 0.00508026 0)
  (-0.0598014 -0.00367038 0)
  (-0.061198 -0.0124385 0)
  (-0.063258 -0.0210152 0)
  (-0.0665022 -0.0291665 0)
  (-0.0712895 -0.0363397 0)
  (-0.0777355 -0.0416243 0)
  (-0.0855605 -0.0437346 0)
  (-0.0934923 -0.0411853 0)
  (-0.0986904 -0.0332987 0)
  (-0.0991767 -0.0226147 0)
  (-0.0953921 -0.0133453 0)
  (-0.0893949 -0.00830041 0)
  (-0.0838095 -0.00806058 0)
  (-0.0803595 -0.0104617 0)
  (-0.0789328 -0.013817 0)
  (-0.0783531 -0.0167975 0)
  (-0.0770041 -0.0194926 0)
  (-0.0742119 -0.0241985 0)
  (-0.0699895 -0.0312322 0)
  (-0.0642082 -0.040183 0)
  (-0.0569822 -0.0500374 0)
  (-0.0487948 -0.0591885 0)
  (-0.0399297 -0.0652708 0)
  (-0.0298671 -0.0657664 0)
  (-0.0185622 -0.0593818 0)
  (-0.00377516 -0.0432994 0)
  (0.0207341 -0.0143711 0)
  (0.0603782 0.0175704 0)
  (0.0841133 0.0312668 0)
  (0.112072 0.0397751 0)
  (0.144416 0.0742102 0)
  (-0.0414639 0.0840757 0)
  (0.794847 0.433385 0)
  (-0.304462 0.116392 0)
  (0.00542738 -0.00565013 0)
  (0.0399819 0.0284991 0)
  (0.0315981 0.0443321 0)
  (0.0162004 0.0341799 0)
  (0.00557539 0.0204335 0)
  (-0.00254929 0.009192 0)
  (-0.00942386 -0.00118679 0)
  (-0.0142057 -0.0105195 0)
  (-0.0181486 -0.0182566 0)
  (-0.0229698 -0.0249045 0)
  (-0.0291264 -0.0305471 0)
  (-0.0365967 -0.0347305 0)
  (-0.0448508 -0.0365639 0)
  (-0.0527244 -0.0349436 0)
  (-0.0583593 -0.0296458 0)
  (-0.0605416 -0.0226486 0)
  (-0.0595 -0.0163565 0)
  (-0.0566295 -0.0124345 0)
  (-0.053588 -0.0113223 0)
  (-0.05157 -0.0121478 0)
  (-0.0508868 -0.0140099 0)
  (-0.0512463 -0.0163192 0)
  (-0.052198 -0.01944 0)
  (-0.0536926 -0.0245073 0)
  (-0.0558926 -0.0320028 0)
  (-0.0589119 -0.0415357 0)
  (-0.0629367 -0.0518072 0)
  (-0.0681646 -0.0611244 0)
  (-0.0743784 -0.067622 0)
  (-0.0807511 -0.0697034 0)
  (-0.0860946 -0.0667778 0)
  (-0.0880081 -0.0591316 0)
  (-0.0817338 -0.0487619 0)
  (-0.0635258 -0.0407547 0)
  (-0.0353467 -0.0399314 0)
  (0.00410757 -0.0410135 0)
  (0.108122 0.0280564 0)
  (-0.0815548 0.174029 0)
  (0.897597 0.445029 0)
  (-0.0637669 0.0863417 0)
  (0.119625 -0.0758846 0)
  (0.178398 -0.00739982 0)
  (0.146675 0.0351345 0)
  (0.110787 0.0369167 0)
  (0.0907004 0.0273872 0)
  (0.0762101 0.0169351 0)
  (0.0633731 0.00634899 0)
  (0.0505145 -0.00398807 0)
  (0.0399754 -0.0124211 0)
  (0.0313315 -0.0185614 0)
  (0.0226106 -0.0230143 0)
  (0.0133028 -0.0262163 0)
  (0.00359433 -0.0280106 0)
  (-0.00573844 -0.0276889 0)
  (-0.0128754 -0.0249617 0)
  (-0.0173351 -0.0208769 0)
  (-0.0191683 -0.0169432 0)
  (-0.0192181 -0.0142033 0)
  (-0.0185657 -0.0130185 0)
  (-0.0180968 -0.0130502 0)
  (-0.0182862 -0.0138075 0)
  (-0.0193475 -0.0149714 0)
  (-0.0215556 -0.0167817 0)
  (-0.0255947 -0.0199651 0)
  (-0.032425 -0.0251112 0)
  (-0.0430608 -0.0320851 0)
  (-0.0579571 -0.0395874 0)
  (-0.0774287 -0.0458803 0)
  (-0.101551 -0.0490052 0)
  (-0.130246 -0.0468478 0)
  (-0.16333 -0.0374177 0)
  (-0.200431 -0.0197805 0)
  (-0.239606 0.00386289 0)
  (-0.276194 0.0269634 0)
  (-0.304896 0.0440397 0)
  (-0.325116 0.058175 0)
  (-0.37531 0.0796678 0)
  (-0.620862 0.124354 0)
  (1.03963 0.393885 0)
  (0.493503 0.208894 0)
  (0.341995 0.0992872 0)
  (0.386249 0.119105 0)
  (0.287606 0.113514 0)
  (0.21246 0.0927279 0)
  (0.174677 0.0696575 0)
  (0.150822 0.0481077 0)
  (0.132083 0.029562 0)
  (0.117115 0.014692 0)
  (0.103597 0.0030268 0)
  (0.0903491 -0.00577618 0)
  (0.0783496 -0.0117605 0)
  (0.0669779 -0.0156093 0)
  (0.0559672 -0.0179043 0)
  (0.0455506 -0.0189077 0)
  (0.0365246 -0.0185753 0)
  (0.0295459 -0.0172327 0)
  (0.0247952 -0.0156356 0)
  (0.0218714 -0.0144425 0)
  (0.0200888 -0.0139352 0)
  (0.0187889 -0.0139973 0)
  (0.0175026 -0.0143454 0)
  (0.0158981 -0.0147074 0)
  (0.0135748 -0.0149879 0)
  (0.00979052 -0.0153188 0)
  (0.00330608 -0.0160353 0)
  (-0.00829021 -0.017553 0)
  (-0.0255717 -0.0193471 0)
  (-0.0486571 -0.0205426 0)
  (-0.0765457 -0.0200416 0)
  (-0.107208 -0.016961 0)
  (-0.137022 -0.0109495 0)
  (-0.164255 -0.00369665 0)
  (-0.190062 0.000684658 0)
  (-0.215192 -0.00399513 0)
  (-0.233253 -0.0284343 0)
  (-0.239134 -0.0841914 0)
  (-0.269583 -0.163594 0)
  (-0.593283 -0.268933 0)
  (-1.4032 0.0497192 0)
  (0.165233 0.143178 0)
  (0.0896486 0.109123 0)
  (0.105587 0.098532 0)
  (0.123371 0.0801065 0)
  (0.131391 0.0581031 0)
  (0.132512 0.0383419 0)
  (0.130843 0.0229584 0)
  (0.1276 0.0116811 0)
  (0.123011 0.00346505 0)
  (0.116539 -0.00276609 0)
  (0.108918 -0.00718114 0)
  (0.100516 -0.0101162 0)
  (0.0917064 -0.0119368 0)
  (0.0831262 -0.0128576 0)
  (0.0755036 -0.0131181 0)
  (0.0693092 -0.0130472 0)
  (0.0645614 -0.0129292 0)
  (0.0609443 -0.0129025 0)
  (0.0580414 -0.012949 0)
  (0.0555036 -0.0129621 0)
  (0.0530903 -0.0128027 0)
  (0.050616 -0.0123288 0)
  (0.0478474 -0.0113819 0)
  (0.0444366 -0.00982794 0)
  (0.0396929 -0.00780832 0)
  (0.033006 -0.00543521 0)
  (0.0246851 -0.00248834 0)
  (0.015522 0.00127897 0)
  (0.00668129 0.00613224 0)
  (-0.00211386 0.0131242 0)
  (-0.010125 0.0230229 0)
  (-0.0157986 0.035447 0)
  (-0.0187578 0.0477905 0)
  (-0.018566 0.0560807 0)
  (0.0115381 0.0448084 0)
  (0.108505 -0.0597619 0)
  (-0.169353 -0.251766 0)
  (-0.626017 0.171128 0)
  (0.18849 0.0615959 0)
  (0.00326927 0.0170176 0)
  (0.0406956 0.0584732 0)
  (0.0771134 0.0606587 0)
  (0.101243 0.0482965 0)
  (0.116999 0.0358995 0)
  (0.126771 0.0271701 0)
  (0.131835 0.0221773 0)
  (0.133434 0.0202764 0)
  (0.132626 0.0207684 0)
  (0.130122 0.0227513 0)
  (0.126564 0.0255443 0)
  (0.122483 0.0282797 0)
  (0.11817 0.0304839 0)
  (0.11385 0.0319006 0)
  (0.109699 0.0324766 0)
  (0.105775 0.0323929 0)
  (0.102021 0.0319713 0)
  (0.0983447 0.031552 0)
  (0.0946938 0.0314131 0)
  (0.0910946 0.0317522 0)
  (0.0876635 0.0327076 0)
  (0.0846016 0.0344 0)
  (0.0821579 0.0369241 0)
  (0.0804638 0.0400902 0)
  (0.0793962 0.0431672 0)
  (0.0788435 0.0441409 0)
  (0.0786367 0.043994 0)
  (0.0791571 0.0443979 0)
  (0.0811476 0.0461412 0)
  (0.0857599 0.0492983 0)
  (0.0938866 0.0530221 0)
  (0.10473 0.0543289 0)
  (0.115715 0.0462775 0)
  (0.127545 0.0139539 0)
  (0.152976 -0.0623768 0)
  (-0.136187 -0.189081 0)
  (-0.0325301 -0.239796 0)
  (-0.240038 -0.0204026 0)
  (-0.342096 0.205339 0)
  (0.191795 -0.0275898 0)
  (-0.0433876 -0.05381 0)
  (-0.00469588 0.00495094 0)
  (0.0447107 0.00818498 0)
  (0.0793414 -0.00424326 0)
  (0.106475 -0.0180913 0)
  (0.125587 -0.0311663 0)
  (0.137692 -0.0435356 0)
  (0.1448 -0.0554775 0)
  (0.148781 -0.0670631 0)
  (0.150937 -0.0782264 0)
  (0.15205 -0.0888165 0)
  (0.15248 -0.0983626 0)
  (0.152376 -0.106707 0)
  (0.151719 -0.113845 0)
  (0.150385 -0.119893 0)
  (0.148231 -0.125104 0)
  (0.145183 -0.129802 0)
  (0.141278 -0.134288 0)
  (0.136661 -0.138764 0)
  (0.131555 -0.143281 0)
  (0.126254 -0.147697 0)
  (0.121132 -0.151602 0)
  (0.116697 -0.154246 0)
  (0.113616 -0.15468 0)
  (0.112648 -0.152269 0)
  (0.113906 -0.145403 0)
  (0.117395 -0.134971 0)
  (0.1236 -0.122748 0)
  (0.133291 -0.109571 0)
  (0.147102 -0.0961273 0)
  (0.16491 -0.0839793 0)
  (0.184736 -0.0766521 0)
  (0.202165 -0.0803141 0)
  (0.208749 -0.0974246 0)
  (0.205853 -0.126791 0)
  (-0.10287 -0.188873 0)
)
;

boundaryField
{
  floor
  {
    type noSlip;
  }
  ceiling
  {
    type noSlip;
  }
  sWall
  {
    type noSlip;
  }
  nWall
  {
    type noSlip;
  }
  sideWalls
  {
    type empty;
  }
  glass1
  {
    type noSlip;
  }
  glass2
  {
    type noSlip;
  }
  sun
  {
    type noSlip;
  }
  heatsource1
  {
    type noSlip;
  }
  heatsource2
  {
    type noSlip;
  }
  Table_master
  {
    type noSlip;
  }
  Table_slave
  {
    type noSlip;
  }
  inlet
  {
    type fixedValue;
    value uniform (0.1 0 0);
  }
  outlet
  {
    type zeroGradient;
  }
} 	// ************************************************************************* //

