/*--------------------------------*- C++ -*----------------------------------*\
  =========                 |
  \\      /  F ield         | OpenFOAM: The Open Source CFD Toolbox
   \\    /   O peration     | Website:  https://openfoam.org
    \\  /    A nd           | Version:  6
     \\/     M anipulation  |
\*---------------------------------------------------------------------------*/
FoamFile
{
    version     2.0;
    format      ascii;
    class       volScalarField;
    location    "900";
    object      nut;
}
// * * * * * * * * * * * * * * * * * * * * * * * * * * * * * * * * * * * * * //

dimensions      [0 2 -1 0 0 0 0];

internalField   nonuniform List<scalar> 
459
(
0.00108104
0.00118135
0.00120356
0.00126152
0.00131518
0.00136544
0.00141475
0.00146281
0.00149663
0.00151075
0.00150011
0.00146164
0.00139518
0.00130627
0.00120859
0.000475216
0.000581447
0.000654098
0.000649801
0.000627232
0.000597665
0.000560716
0.000524165
0.000491005
0.000461565
0.000435494
0.000412327
0.000391714
0.000373205
0.000356137
0.00033965
0.000322474
0.000309936
0.000282028
0.00147255
0.00360498
0.00345581
0.00402446
0.00458304
0.00514092
0.00563184
0.00600101
0.00633353
0.00660242
0.00677018
0.00679449
0.00661031
0.00605384
0.00452977
0.00123325
0.000725052
0.000513804
0.00108042
0.0014918
0.00178519
0.00193985
0.00193186
0.00155322
0.00134022
0.0011878
0.00107073
0.000977561
0.000901693
0.000836326
0.000775229
0.000715794
0.00066287
0.000616841
0.000719336
0.000367384
0.00179817
0.00492352
0.00429313
0.00538893
0.00593657
0.00634175
0.00665488
0.0069034
0.00717159
0.00745051
0.00770702
0.0078944
0.00796028
0.00782706
0.00728768
0.00561863
0.00122782
0.00102502
0.00147321
0.00188753
0.00225485
0.00250169
0.00242996
0.000802864
0.00070877
0.000633207
0.000572254
0.000522611
0.000481747
0.000447846
0.000419752
0.000396986
0.000427994
0.000495233
0.000807713
0.000424185
0.00211054
0.00628824
0.00430697
0.00570918
0.00619401
0.00635847
0.00646299
0.00658809
0.00679992
0.00708514
0.00740835
0.00771155
0.00793997
0.00803194
0.00791634
0.00734072
0.00536415
0.00146908
0.00182139
0.00235119
0.00286068
0.00326086
0.00350148
0.00327419
0.000905834
0.000824226
0.000765632
0.000720886
0.000682908
0.000648291
0.0006151
0.000580372
0.000540221
0.000506803
0.000518363
0.000919856
0.000468261
0.00242909
0.00804011
0.00473265
0.00549827
0.00614244
0.00618896
0.00613329
0.00619704
0.00638276
0.00667285
0.00703541
0.00739103
0.00766379
0.00779306
0.00775714
0.007514
0.00689513
0.00570735
0.00530184
0.00516955
0.0051252
0.00509648
0.00503999
0.00484137
0.00408006
0.00371347
0.00349954
0.00333443
0.00316154
0.00291378
0.00258195
0.00218
0.00173339
0.00128266
0.000945028
0.000946714
0.00062757
0.000576973
0.000699236
0.000784823
0.00276679
0.00994888
0.00650724
0.00547295
0.00595979
0.00618013
0.00603861
0.0060905
0.00622989
0.00648917
0.00685586
0.00724577
0.00754613
0.0076701
0.00759772
0.00737629
0.00708342
0.0067819
0.00661607
0.00649504
0.00635617
0.00619473
0.00601003
0.0057752
0.00542755
0.00511566
0.00483913
0.00457496
0.00430734
0.00401728
0.00365545
0.00320794
0.00267416
0.00208372
0.00156165
0.00116858
0.000877722
0.000744501
0.00106105
0.000818667
0.00307383
0.0112844
0.00910749
0.0070492
0.00667812
0.00659133
0.00636347
0.00622015
0.00626403
0.00651856
0.00692636
0.00736208
0.00767892
0.00777489
0.00764013
0.00737262
0.00714511
0.00707354
0.00709293
0.00703813
0.00686096
0.00659414
0.00626913
0.00590438
0.00551877
0.00516047
0.00483255
0.00452784
0.00424667
0.0039955
0.0037742
0.00347404
0.00305681
0.00254911
0.0020612
0.00162458
0.00130257
0.00120171
0.00122371
0.000931927
0.00313315
0.0100352
0.00892179
0.00824634
0.00763455
0.00693182
0.00638874
0.00617729
0.00631631
0.00672971
0.00727559
0.00777352
0.00805645
0.00804567
0.00778188
0.00743372
0.00722968
0.00724018
0.00726047
0.00705142
0.00667124
0.0061952
0.00568678
0.00520053
0.00477316
0.00441346
0.00410862
0.00385137
0.00364473
0.0034964
0.00341362
0.00337067
0.00315903
0.0028326
0.00254518
0.00239613
0.00248259
0.00285479
0.00350723
0.00145595
0.00304985
0.0036157
0.00401171
0.00410645
0.00419246
0.00443085
0.00490754
0.00562961
0.00651212
0.00740214
0.00813496
0.00855589
0.00856673
0.00821949
0.00770143
0.0073505
0.00716012
0.00699696
0.00670992
0.00624018
0.00565662
0.00505058
0.00449904
0.00404124
0.00367788
0.00338809
0.0031502
0.00295109
0.00278237
0.00263557
0.00250166
0.00237955
0.00228312
0.00221197
0.00218452
0.00219372
0.00218195
0.00209603
0.00196017
0.00137062
0.00147443
0.00304571
0.00499103
0.00660904
0.00787222
0.00883521
0.00944202
0.00968121
0.00958623
0.00915096
0.00847785
0.00765038
0.00695392
0.00652473
0.00617509
0.0057404
0.00520449
0.0046292
0.00408118
0.00360596
0.00322843
0.00293582
0.00270636
0.00252309
0.00237659
0.00226232
0.00217811
0.00212293
0.00209843
0.00210163
0.00211877
0.00214586
0.00217519
0.00218291
0.00213048
0.00200508
0.00181617
0.00114114
0.00197926
0.00513038
0.00766814
0.00866395
0.00916312
0.0093203
0.00911452
0.00860938
0.00790966
0.00711947
0.00637604
0.00571822
0.00518876
0.00473516
0.00427556
0.00382254
0.00342034
0.00309212
0.00283659
0.00263951
0.00247817
0.0023406
0.00222174
0.00212376
0.00205054
0.00200176
0.00197618
0.00197275
0.00199568
0.00204225
0.00210895
0.00218837
0.0022643
0.0023167
0.00229908
0.00232516
0.00236585
0.0011639
0.00177322
0.00187901
0.00195378
0.00210537
0.00203808
0.00195767
0.00190504
0.00182888
0.00171877
0.00158166
0.00142733
0.00126692
0.00111156
0.000978757
0.000878654
0.000807503
0.000756903
0.000720167
0.00069323
0.00067377
0.000660346
0.000652092
0.000648448
0.000649637
0.000656137
0.000667902
0.000684645
0.000706723
0.000734711
0.000769258
0.000809528
0.000855587
0.000907934
0.000967007
0.00103233
0.00110968
0.00113533
0.00110643
0.00103969
0.000969213
)
;

boundaryField
{
    floor
    {
        type            nutkWallFunction;
        Cmu             0.09;
        kappa           0.41;
        E               9.8;
        value           nonuniform List<scalar> 
29
(
0.000144999
5.65301e-05
7.00205e-05
7.90702e-05
7.85385e-05
7.57386e-05
7.2052e-05
6.74135e-05
6.27879e-05
5.85571e-05
5.4771e-05
5.13928e-05
4.83694e-05
4.56613e-05
4.32141e-05
4.09434e-05
3.87367e-05
3.6423e-05
3.47239e-05
3.09085e-05
3.09084e-05
4.24407e-05
4.99189e-05
5.5634e-05
0.000144999
5.65301e-05
6.14695e-05
0.000123665
0.000174663
)
;
    }
    ceiling
    {
        type            nutkWallFunction;
        Cmu             0.09;
        kappa           0.41;
        E               9.8;
        value           nonuniform List<scalar> 
43
(
0.000208432
0.000220057
0.000228233
0.000244803
0.000237542
0.000228799
0.000223053
0.0002147
0.00020255
0.000187297
0.000169952
0.0001517
0.000133773
0.000118223
0.000106341
9.78009e-05
9.16737e-05
8.7195e-05
8.38937e-05
8.14993e-05
7.98426e-05
7.88221e-05
7.8371e-05
7.85181e-05
7.93224e-05
8.07756e-05
8.28383e-05
8.55491e-05
8.89712e-05
9.31741e-05
9.80452e-05
0.000103582
0.000109833
0.000116836
0.000124524
0.000133556
0.000136536
0.000133178
0.000125387
0.000117098
0.000345336
0.000403825
0.000230882
)
;
    }
    sWall
    {
        type            nutkWallFunction;
        Cmu             0.09;
        kappa           0.41;
        E               9.8;
        value           uniform 0.00020849;
    }
    nWall
    {
        type            nutkWallFunction;
        Cmu             0.09;
        kappa           0.41;
        E               9.8;
        value           nonuniform List<scalar> 6(9.50605e-05 9.91477e-05 0.000112687 0.00013722 0.000139855 0.000117103);
    }
    sideWalls
    {
        type            empty;
    }
    glass1
    {
        type            nutkWallFunction;
        Cmu             0.09;
        kappa           0.41;
        E               9.8;
        value           nonuniform List<scalar> 9(0.000130323 0.000175275 0.000211629 0.00024583 0.000280151 0.00031602 0.000348236 0.000354431 0.000345759);
    }
    glass2
    {
        type            nutkWallFunction;
        Cmu             0.09;
        kappa           0.41;
        E               9.8;
        value           nonuniform List<scalar> 2(0.000173254 0.000163592);
    }
    sun
    {
        type            nutkWallFunction;
        Cmu             0.09;
        kappa           0.41;
        E               9.8;
        value           nonuniform List<scalar> 
14
(
0.000130222
0.000141859
0.000144421
0.00015108
0.000157217
0.000162938
0.000168528
0.000173957
0.000177766
0.000179352
0.000178156
0.000173824
0.000166311
0.000156199
)
;
    }
    heatsource1
    {
        type            nutkWallFunction;
        Cmu             0.09;
        kappa           0.41;
        E               9.8;
        value           nonuniform List<scalar> 3(6.94606e-05 8.46313e-05 9.50604e-05);
    }
    heatsource2
    {
        type            nutkWallFunction;
        Cmu             0.09;
        kappa           0.41;
        E               9.8;
        value           nonuniform List<scalar> 4(0.000147831 8.77929e-05 8.77929e-05 0.000147207);
    }
    Table_master
    {
        type            nutkWallFunction;
        Cmu             0.09;
        kappa           0.41;
        E               9.8;
        value           nonuniform List<scalar> 9(9.72408e-05 8.58009e-05 7.64829e-05 6.8869e-05 6.25946e-05 5.73747e-05 5.30025e-05 4.93478e-05 4.63635e-05);
    }
    Table_slave
    {
        type            nutkWallFunction;
        Cmu             0.09;
        kappa           0.41;
        E               9.8;
        value           nonuniform List<scalar> 9(0.000109581 9.98155e-05 9.27342e-05 8.72834e-05 8.26255e-05 7.83527e-05 7.42302e-05 6.98877e-05 6.48275e-05);
    }
    inlet
    {
        type            calculated;
        value           uniform 0.000100623;
    }
    outlet
    {
        type            calculated;
        value           nonuniform List<scalar> 2(0.00177322 0.00187901);
    }
}


// ************************************************************************* //
