// -*- C++ -*-
// File generated by PyFoam - sorry for the ugliness

FoamFile
{
 version 2.0;
 format ascii;
 class volScalarField;
 location "1600";
 object T;
}

dimensions [ 0 0 0 1 0 0 0 ];

internalField nonuniform List<scalar> 459
(
  319.5
  317.587
  316.651
  316.661
  316.696
  316.703
  316.675
  316.62
  316.55
  316.473
  316.39
  316.291
  316.188
  316.114
  315.871
  314.283
  314.131
  313.832
  313.844
  313.9
  313.941
  313.933
  313.951
  313.952
  313.953
  313.962
  313.983
  313.994
  313.962
  313.97
  314.057
  314.195
  314.535
  314.912
  320.282
  317.987
  317.278
  317.274
  317.356
  317.382
  317.354
  317.292
  317.215
  317.136
  317.066
  317.007
  316.969
  316.956
  316.694
  316.754
  316.688
  314.989
  314.959
  314.959
  314.908
  314.863
  314.925
  315.076
  315.031
  314.987
  314.963
  314.956
  314.964
  315.029
  315.196
  315.371
  315.606
  315.591
  315.626
  315.962
  321.177
  318.737
  317.899
  317.786
  317.815
  317.85
  317.822
  317.762
  317.698
  317.648
  317.632
  317.679
  317.751
  317.83
  317.91
  318.01
  317.991
  316.516
  316.507
  316.472
  316.507
  316.477
  316.318
  315.609
  315.749
  315.917
  316.086
  316.263
  316.455
  316.669
  316.942
  317.375
  317.937
  317.776
  317.539
  317.384
  322.087
  319.677
  318.731
  318.366
  318.244
  318.256
  318.234
  318.206
  318.203
  318.252
  318.338
  318.429
  318.533
  318.627
  318.681
  318.696
  318.627
  318.406
  318.25
  318.73
  318.998
  319.267
  319.525
  319.729
  319.888
  319.924
  319.95
  319.97
  319.983
  319.988
  319.981
  319.952
  319.876
  319.676
  319.633
  319.54
  319.254
  322.929
  320.752
  319.733
  319.171
  318.824
  318.633
  318.615
  318.636
  318.699
  318.784
  318.887
  319.013
  319.154
  319.297
  319.424
  319.513
  319.561
  319.568
  319.583
  319.734
  319.855
  319.978
  320.088
  320.176
  320.237
  320.278
  320.311
  320.342
  320.37
  320.396
  320.42
  320.438
  320.448
  320.444
  320.488
  320.565
  320.73
  321.274
  321.446
  321.562
  323.636
  321.966
  320.917
  320.12
  319.506
  319.063
  319.005
  319.072
  319.159
  319.265
  319.392
  319.534
  319.688
  319.841
  319.982
  320.095
  320.167
  320.213
  320.254
  320.307
  320.359
  320.415
  320.471
  320.519
  320.557
  320.589
  320.618
  320.646
  320.674
  320.701
  320.729
  320.757
  320.785
  320.817
  320.868
  320.951
  321.083
  321.276
  321.445
  321.674
  324.108
  323.29
  322.187
  321.075
  320.072
  319.423
  319.389
  319.499
  319.63
  319.77
  319.916
  320.068
  320.224
  320.377
  320.519
  320.638
  320.721
  320.769
  320.8
  320.823
  320.843
  320.863
  320.883
  320.902
  320.919
  320.935
  320.951
  320.967
  320.983
  321
  321.018
  321.035
  321.05
  321.063
  321.077
  321.099
  321.145
  321.25
  321.419
  321.792
  324.246
  323.924
  323.009
  321.531
  320.145
  319.687
  319.789
  319.99
  320.186
  320.366
  320.534
  320.694
  320.846
  320.991
  321.124
  321.239
  321.311
  321.348
  321.364
  321.367
  321.364
  321.358
  321.351
  321.345
  321.338
  321.333
  321.328
  321.324
  321.322
  321.32
  321.319
  321.318
  321.315
  321.308
  321.299
  321.292
  321.298
  321.34
  321.46
  321.982
  324.264
  324.227
  324.287
  321.55
  320.311
  320.126
  320.368
  320.657
  320.915
  321.131
  321.315
  321.486
  321.632
  321.757
  321.849
  321.91
  321.947
  321.962
  321.96
  321.946
  321.923
  321.896
  321.866
  321.835
  321.804
  321.774
  321.745
  321.718
  321.691
  321.665
  321.641
  321.616
  321.591
  321.562
  321.53
  321.494
  321.462
  321.454
  321.526
  322.056
  328.898
  322.64
  321.158
  321.078
  321.352
  321.657
  321.943
  322.156
  322.315
  322.423
  322.499
  322.551
  322.585
  322.601
  322.602
  322.59
  322.565
  322.531
  322.488
  322.441
  322.389
  322.336
  322.282
  322.228
  322.174
  322.121
  322.069
  322.018
  321.967
  321.916
  321.864
  321.809
  321.749
  321.679
  321.6
  321.531
  321.53
  321.79
  327.492
  324.066
  323.314
  323.161
  323.194
  323.263
  323.316
  323.353
  323.376
  323.384
  323.379
  323.363
  323.337
  323.302
  323.259
  323.208
  323.152
  323.089
  323.022
  322.951
  322.877
  322.802
  322.725
  322.648
  322.571
  322.495
  322.418
  322.342
  322.266
  322.19
  322.112
  322.03
  321.941
  321.84
  321.722
  321.596
  321.517
  321.613
  325.288
  325.363
  325.824
  325.684
  325.522
  325.37
  325.232
  325.103
  324.983
  324.867
  324.756
  324.648
  324.542
  324.437
  324.333
  324.229
  324.124
  324.02
  323.915
  323.809
  323.703
  323.597
  323.49
  323.383
  323.276
  323.17
  323.063
  322.956
  322.85
  322.743
  322.635
  322.526
  322.415
  322.299
  322.176
  322.038
  321.873
  321.663
  321.43
  321.479
)
;

boundaryField
{
  floor
  {
    type wallHeatTransfer;
    Tinf uniform 305.2;
    alphaWall uniform 0.24;
    value nonuniform List<scalar> 29
(
  314.114
  313.007
  312.884
  312.176
  311.806
  311.543
  311.459
  311.413
  311.497
  311.61
  311.748
  311.899
  312.048
  312.14
  312.135
  312.205
  312.419
  312.735
  313.333
  313.576
  313.576
  314.865
  316.366
  318.174
  314.114
  313.007
  313.908
  315.405
  317.119
)
;
  }
  ceiling
  {
    type wallHeatTransfer;
    Tinf uniform 303.2;
    alphaWall uniform 0.24;
    value nonuniform List<scalar> 43
(
  324.013
  324.188
  325.042
  324.915
  324.736
  324.557
  324.39
  324.231
  324.081
  323.937
  323.8
  323.668
  323.542
  323.422
  323.306
  323.195
  323.088
  322.985
  322.883
  322.783
  322.683
  322.582
  322.481
  322.38
  322.278
  322.175
  322.073
  321.97
  321.867
  321.764
  321.66
  321.555
  321.448
  321.336
  321.217
  321.085
  320.929
  320.746
  320.527
  320.515
  323.674
  323.769
  327.021
)
;
  }
  sWall
  {
    type wallHeatTransfer;
    Tinf uniform 315.2;
    alphaWall uniform 0.36;
    value uniform 324.438;
  }
  nWall
  {
    type wallHeatTransfer;
    Tinf uniform 307.2;
    alphaWall uniform 0.36;
    value nonuniform List<scalar> 6
(
  320.412
  320.731
  320.985
  320.942
  320.639
  320.379
)
;
  }
  sideWalls
  {
    type empty;
  }
  glass1
  {
    type wallHeatTransfer;
    Tinf uniform 315.2;
    alphaWall uniform 4.3;
    value nonuniform List<scalar> 9
(
  316.686
  317.312
  318.05
  318.826
  319.563
  320.177
  320.578
  320.856
  321.194
)
;
  }
  glass2
  {
    type wallHeatTransfer;
    Tinf uniform 307.2;
    alphaWall uniform 4.3;
    value nonuniform List<scalar> 2
(
  316.538
  316.641
)
;
  }
  sun
  {
    type wallHeatTransfer;
    Tinf uniform 305.2;
    alphaWall uniform 0.24;
    value nonuniform List<scalar> 14
(
  318.129
  316.089
  314.869
  314.672
  314.641
  314.622
  314.564
  314.473
  314.371
  314.273
  314.184
  314.105
  314.04
  314.061
)
;
  }
  heatsource1
  {
    type fixedGradient;
    gradient uniform 0;
  }
  heatsource2
  {
    type fixedGradient;
    gradient uniform 0;
  }
  Table_master
  {
    type zeroGradient;
  }
  Table_slave
  {
    type zeroGradient;
  }
  inlet
  {
    type fixedValue;
    value uniform 299.15;
  }
  outlet
  {
    type zeroGradient;
  }
} 	// ************************************************************************* //

