/*--------------------------------*- C++ -*----------------------------------*\
  =========                 |
  \\      /  F ield         | OpenFOAM: The Open Source CFD Toolbox
   \\    /   O peration     | Website:  https://openfoam.org
    \\  /    A nd           | Version:  6
     \\/     M anipulation  |
\*---------------------------------------------------------------------------*/
FoamFile
{
    version     2.0;
    format      ascii;
    class       volScalarField;
    location    "1200";
    object      nut;
}
// * * * * * * * * * * * * * * * * * * * * * * * * * * * * * * * * * * * * * //

dimensions      [0 2 -1 0 0 0 0];

internalField   nonuniform List<scalar> 
459
(
0.000728274
0.000792052
0.000721463
0.000705711
0.00067015
0.000620481
0.000576195
0.000542152
0.000516164
0.000495107
0.000476654
0.000457636
0.000437674
0.000425889
0.000472659
0.000434103
0.000468822
0.000354208
0.000285248
0.000241011
0.000211814
0.000208198
0.000220174
0.000231993
0.000246759
0.000264184
0.000284246
0.00030857
0.000326139
0.000322141
0.000343176
0.000383263
0.000483953
0.000419159
0.000973653
0.00283088
0.00230059
0.00225992
0.00266713
0.00295348
0.00300524
0.0028868
0.00267978
0.00243836
0.00218893
0.00195123
0.00173973
0.00154213
0.00145697
0.000565394
0.000446054
0.000662084
0.00201458
0.00163676
0.0013602
0.0008814
0.000435339
0.000322654
0.0003195
0.000389111
0.000490485
0.000620139
0.000759376
0.000884585
0.000934507
0.00094203
0.00140837
0.00158693
0.00199113
0.000710585
0.00122484
0.00214872
0.00241171
0.00253924
0.00296331
0.00350827
0.00385984
0.00385482
0.00361648
0.00327737
0.00289862
0.00251079
0.00214288
0.00181887
0.00155252
0.00120372
0.000799161
0.000925763
0.00287384
0.00252148
0.00206256
0.00150551
0.000947643
0.000386213
0.000334017
0.000383219
0.000435053
0.000491352
0.000556285
0.000635558
0.000738656
0.000887386
0.00243016
0.0027328
0.00348197
0.00104046
0.00185065
0.00278257
0.0026749
0.00290557
0.00335488
0.00375116
0.00431538
0.00449342
0.00436049
0.00409909
0.00380119
0.0034976
0.0031759
0.00283443
0.00247601
0.00209391
0.00158897
0.00104275
0.00280559
0.00340733
0.00280957
0.00213153
0.00157215
0.00114429
0.000854573
0.000873506
0.000897406
0.000922378
0.00095168
0.000989542
0.00104191
0.00111908
0.00124228
0.00325071
0.00351419
0.00409034
0.00132382
0.00249074
0.00418974
0.00302769
0.00291095
0.00338631
0.00382799
0.00466239
0.00508303
0.00515515
0.00513361
0.00510505
0.00510358
0.00515961
0.00527224
0.0054123
0.0054957
0.00551792
0.00548007
0.0055796
0.00548286
0.00521922
0.00498854
0.00483358
0.00475157
0.00472094
0.00475967
0.00472456
0.00465681
0.00456632
0.00445711
0.00433438
0.00420637
0.00408249
0.00396566
0.0036112
0.00318
0.00268068
0.00190485
0.00207076
0.00214357
0.00321252
0.00576789
0.00392974
0.00310542
0.00313014
0.0039413
0.00490095
0.00545123
0.00561576
0.00574106
0.00591259
0.00613979
0.0064161
0.00672385
0.00703167
0.00729002
0.00743828
0.00749455
0.00747793
0.00742091
0.00734034
0.00727181
0.00722376
0.0071896
0.00715318
0.00709197
0.00700081
0.00688795
0.0067551
0.00660181
0.00642591
0.00622492
0.00600085
0.00576889
0.00557128
0.00550963
0.00567103
0.00613638
0.00672531
0.00273485
0.003998
0.00594247
0.00461412
0.00351551
0.00319154
0.00402535
0.00490727
0.00539848
0.00560953
0.0058794
0.00622493
0.00662378
0.00705336
0.00749435
0.00792646
0.00832245
0.00864463
0.0088598
0.00897974
0.00903146
0.00903137
0.00899749
0.0089419
0.00886611
0.00876651
0.008646
0.00850759
0.00835404
0.00818858
0.00801594
0.00784197
0.00767337
0.0075175
0.00738107
0.00726984
0.00720386
0.00728397
0.00798268
0.00980674
0.00327669
0.00489917
0.00659331
0.0063565
0.00410829
0.00357471
0.00453185
0.00485584
0.00509473
0.00546616
0.00594563
0.00646163
0.00700504
0.00755716
0.00810739
0.0086471
0.00915197
0.00958883
0.00992972
0.0101642
0.0103008
0.010355
0.0103431
0.0102805
0.0101787
0.0100459
0.00988844
0.00971009
0.00951232
0.0092969
0.00906728
0.0088294
0.00859295
0.00837348
0.00819456
0.00808894
0.00808917
0.00813
0.00837507
0.0110235
0.0038597
0.00617343
0.0083251
0.0152012
0.00508169
0.00383995
0.00455731
0.00471214
0.00527478
0.00595367
0.00660675
0.00718115
0.00774247
0.00828968
0.00882652
0.00936495
0.00986169
0.0103104
0.0106881
0.0109749
0.011165
0.0112639
0.0112836
0.0112385
0.0111432
0.0110097
0.0108466
0.0106588
0.0104482
0.0102149
0.00995908
0.00968144
0.00938511
0.00907807
0.00877796
0.00852218
0.00838278
0.00843628
0.00871454
0.0105968
0.00382373
0.0231973
0.0126883
0.00493629
0.00594961
0.00659836
0.00719006
0.00765423
0.00806062
0.00844286
0.0088568
0.00930764
0.00978271
0.0102611
0.0107167
0.0111262
0.0114705
0.0117364
0.0119185
0.0120194
0.0120474
0.0120139
0.0119312
0.0118103
0.0116601
0.0114865
0.0112922
0.0110774
0.0108408
0.0105802
0.010294
0.00998289
0.00965397
0.00932791
0.00905164
0.00890476
0.00894909
0.00861311
0.00260866
0.00993157
0.0140932
0.0109683
0.00959662
0.00872855
0.00824562
0.00803888
0.00803214
0.00819387
0.00851212
0.00896789
0.00952291
0.0101213
0.0107018
0.0112132
0.0116235
0.0119212
0.0121111
0.0122084
0.0122327
0.0122034
0.012137
0.0120465
0.0119405
0.0118235
0.0116971
0.01156
0.0114098
0.0112432
0.0110573
0.010851
0.0106262
0.0103892
0.0101519
0.00992288
0.0097206
0.00826712
0.00238364
0.00227717
0.00297166
0.00549449
0.00532078
0.00496888
0.00460935
0.0042724
0.003966
0.00369338
0.00345571
0.00325337
0.00308675
0.00295628
0.00286166
0.00280067
0.00276834
0.00275733
0.00275928
0.00276656
0.00277343
0.00277643
0.00277409
0.00276634
0.00275395
0.00273805
0.00271978
0.0027001
0.00267968
0.0026589
0.00263787
0.00261649
0.00259461
0.00257212
0.00254917
0.00252645
0.00250564
0.00249164
0.00250268
0.00237819
0.00213787
)
;

boundaryField
{
    floor
    {
        type            nutkWallFunction;
        Cmu             0.09;
        kappa           0.41;
        E               9.8;
        value           nonuniform List<scalar> 
29
(
5.61364e-05
5.11566e-05
5.56587e-05
4.06314e-05
3.12935e-05
2.51482e-05
2.1007e-05
2.0486e-05
2.21922e-05
2.38705e-05
2.59507e-05
2.83835e-05
3.11569e-05
3.4483e-05
3.68628e-05
3.63231e-05
3.91559e-05
4.44936e-05
5.76074e-05
4.92086e-05
4.92085e-05
8.59989e-05
0.000125524
0.000158361
5.61363e-05
5.11566e-05
8.00264e-05
0.000111971
0.000125809
)
;
    }
    ceiling
    {
        type            nutkWallFunction;
        Cmu             0.09;
        kappa           0.41;
        E               9.8;
        value           nonuniform List<scalar> 
43
(
0.000264422
0.000338464
0.000595097
0.000577838
0.000542756
0.000506676
0.000472616
0.000441416
0.000413455
0.00038891
0.000367879
0.000350461
0.000336755
0.000326775
0.000320321
0.00031689
0.000315713
0.000315907
0.000316662
0.000317374
0.000317675
0.000317411
0.000316573
0.000315246
0.000313545
0.000311594
0.000309492
0.000307311
0.00030509
0.000302841
0.000300554
0.000298212
0.000295803
0.000293343
0.000290906
0.000288671
0.00028716
0.000288322
0.000274961
0.000248978
0.000661323
0.000868497
0.00102134
)
;
    }
    sWall
    {
        type            nutkWallFunction;
        Cmu             0.09;
        kappa           0.41;
        E               9.8;
        value           uniform 0.000264453;
    }
    nWall
    {
        type            nutkWallFunction;
        Cmu             0.09;
        kappa           0.41;
        E               9.8;
        value           nonuniform List<scalar> 6(0.000249563 0.000312915 0.000369722 0.00029954 0.00027551 0.00024898);
    }
    sideWalls
    {
        type            empty;
    }
    glass1
    {
        type            nutkWallFunction;
        Cmu             0.09;
        kappa           0.41;
        E               9.8;
        value           nonuniform List<scalar> 9(8.81616e-05 0.000117747 0.000147055 0.000217602 0.00028713 0.000363339 0.000444316 0.000535267 0.000661136);
    }
    glass2
    {
        type            nutkWallFunction;
        Cmu             0.09;
        kappa           0.41;
        E               9.8;
        value           nonuniform List<scalar> 2(0.000429485 0.000425819);
    }
    sun
    {
        type            nutkWallFunction;
        Cmu             0.09;
        kappa           0.41;
        E               9.8;
        value           nonuniform List<scalar> 
14
(
8.81776e-05
9.59397e-05
8.73514e-05
8.542e-05
8.10353e-05
7.48632e-05
6.93115e-05
6.501e-05
6.1705e-05
5.90128e-05
5.66422e-05
5.41874e-05
5.1598e-05
5.00665e-05
)
;
    }
    heatsource1
    {
        type            nutkWallFunction;
        Cmu             0.09;
        kappa           0.41;
        E               9.8;
        value           nonuniform List<scalar> 3(0.000223509 0.000241672 0.000249597);
    }
    heatsource2
    {
        type            nutkWallFunction;
        Cmu             0.09;
        kappa           0.41;
        E               9.8;
        value           nonuniform List<scalar> 4(6.79355e-05 5.26637e-05 5.26636e-05 9.68049e-05);
    }
    Table_master
    {
        type            nutkWallFunction;
        Cmu             0.09;
        kappa           0.41;
        E               9.8;
        value           nonuniform List<scalar> 9(4.48441e-05 3.78918e-05 4.44558e-05 5.12572e-05 5.85317e-05 6.67963e-05 7.67299e-05 8.94317e-05 0.000107399);
    }
    Table_slave
    {
        type            nutkWallFunction;
        Cmu             0.09;
        kappa           0.41;
        E               9.8;
        value           nonuniform List<scalar> 9(0.000103477 0.00010575 0.000108612 0.000111592 0.000115077 0.000119561 0.000125732 0.000134761 0.00014903);
    }
    inlet
    {
        type            calculated;
        value           uniform 0.0231973;
    }
    outlet
    {
        type            calculated;
        value           nonuniform List<scalar> 2(0.00227717 0.00297166);
    }
}


// ************************************************************************* //
