/*--------------------------------*- C++ -*----------------------------------*\
  =========                 |
  \\      /  F ield         | OpenFOAM: The Open Source CFD Toolbox
   \\    /   O peration     | Website:  https://openfoam.org
    \\  /    A nd           | Version:  6
     \\/     M anipulation  |
\*---------------------------------------------------------------------------*/
FoamFile
{
    version     2.0;
    format      ascii;
    class       volScalarField;
    location    "450";
    object      alphat;
}
// * * * * * * * * * * * * * * * * * * * * * * * * * * * * * * * * * * * * * //

dimensions      [1 -1 -1 0 0 0 0];

internalField   nonuniform List<scalar> 
459
(
0.00107525
0.00117904
0.0012133
0.00127398
0.00132974
0.00138252
0.00143533
0.00148831
0.00153098
0.00155751
0.001561
0.00153484
0.00147348
0.00136496
0.0010756
0.000712912
0.000793666
0.000705159
0.000717511
0.000686294
0.00064339
0.000586149
0.000531458
0.000484076
0.000443944
0.000409896
0.000380688
0.000355292
0.000333248
0.000313227
0.000294338
0.000288531
0.000374829
0.000532844
0.0014219
0.0033594
0.00315721
0.00362807
0.00412068
0.00462623
0.00507929
0.00543666
0.00580138
0.00615074
0.00644799
0.00664546
0.0066859
0.00645392
0.00537151
0.00122092
0.000836649
0.00101751
0.00300061
0.002577
0.00257346
0.0025897
0.00244454
0.00177582
0.00143322
0.0012075
0.00104584
0.000925099
0.000833071
0.00076183
0.000695305
0.000632459
0.000584048
0.000672694
0.000891858
0.000656296
0.00171264
0.00453994
0.00392475
0.00470135
0.00509723
0.00538863
0.00561448
0.00582161
0.0061044
0.00646727
0.00689524
0.00733463
0.00771459
0.00789355
0.0074778
0.00567609
0.00126498
0.00114307
0.00291179
0.00293115
0.00308879
0.00320217
0.00296105
0.000906976
0.000765737
0.000657861
0.000574282
0.000508542
0.00045616
0.00041413
0.00038095
0.000356175
0.000405728
0.000606306
0.00107529
0.000746943
0.00199135
0.0056691
0.00390035
0.00490804
0.00512157
0.00512686
0.00512201
0.00520573
0.0054174
0.00577552
0.00629221
0.00689281
0.00749724
0.00795514
0.00807884
0.00746617
0.00470011
0.00149582
0.00221282
0.00266934
0.00317567
0.00361063
0.00388699
0.00365268
0.00104582
0.000938057
0.0008557
0.00078914
0.0007326
0.000682168
0.000634809
0.000587717
0.000536893
0.000492458
0.000603793
0.00116495
0.000810736
0.00227713
0.00714115
0.00403441
0.00471872
0.00496851
0.00480767
0.00467263
0.00470403
0.00487976
0.0052263
0.00579582
0.00646408
0.00709502
0.00758836
0.00786263
0.00780013
0.00718109
0.00617773
0.00578377
0.00569089
0.00569602
0.00570945
0.00567848
0.00548104
0.00467167
0.0041712
0.00378157
0.00345056
0.0031438
0.00283682
0.00250918
0.00214354
0.00173124
0.0013223
0.00104185
0.00105296
0.00100743
0.000788446
0.000953584
0.00138972
0.00258479
0.00881784
0.00524516
0.00443396
0.00479648
0.00479573
0.00453899
0.00454578
0.00468689
0.00502366
0.00558499
0.00627588
0.00692454
0.00739351
0.00763571
0.0076843
0.00760115
0.00748387
0.00743108
0.00739584
0.00732964
0.00721271
0.00704183
0.00679527
0.00638424
0.00592654
0.00547422
0.00503768
0.00461028
0.00417867
0.00372774
0.00324603
0.00273603
0.00224039
0.00183873
0.0014331
0.00111312
0.00128802
0.002079
0.00186007
0.00288554
0.010105
0.00752087
0.00521114
0.00478613
0.00491548
0.00475461
0.00464771
0.00470813
0.00504104
0.00564786
0.00639855
0.00708405
0.00754659
0.00775912
0.00782513
0.0079021
0.00805406
0.00818973
0.00821278
0.00810572
0.00788723
0.00759071
0.00723343
0.006822
0.00638358
0.00593864
0.00549659
0.00505812
0.00461889
0.00417364
0.00372103
0.00326913
0.00284346
0.00247325
0.00204306
0.00136604
0.00202703
0.00390775
0.00247291
0.00296621
0.00951837
0.0080208
0.00680577
0.00604455
0.0055963
0.00505907
0.00474091
0.00479023
0.00523161
0.00598031
0.00684248
0.00757028
0.00801676
0.0082
0.00825761
0.00833112
0.00841511
0.00839493
0.0082266
0.00793831
0.0075726
0.00716836
0.00675479
0.00634527
0.00594942
0.00557197
0.0052154
0.00488102
0.00456927
0.00427994
0.0040116
0.00375929
0.00350958
0.00322808
0.00284529
0.00209274
0.00277403
0.0066691
0.00332802
0.00290954
0.00351631
0.00390954
0.00405963
0.00404898
0.00398889
0.00399954
0.00424187
0.00480974
0.00567163
0.00669428
0.00766698
0.00834629
0.00866633
0.00872631
0.00863559
0.00842497
0.00811594
0.00780737
0.00748526
0.00714264
0.00679352
0.00645907
0.00615562
0.00589032
0.00566527
0.00547972
0.00533262
0.00522285
0.00514801
0.00510249
0.00507495
0.00504469
0.00497648
0.00481464
0.00449027
0.00380556
0.0041455
0.00845068
0.00368304
0.00148718
0.00233423
0.00292201
0.00342341
0.00416156
0.00509222
0.00610747
0.00714062
0.00811579
0.00887047
0.00917981
0.0090939
0.00881593
0.00845872
0.00814045
0.00789014
0.00767836
0.00748604
0.00730734
0.00714484
0.00700367
0.00688798
0.00680012
0.0067415
0.0067131
0.00671581
0.00674988
0.00681378
0.006902
0.00700181
0.0070884
0.0071171
0.00701233
0.00672184
0.00620798
0.00629235
0.00873988
0.0030939
0.00172576
0.00279784
0.00395546
0.00531159
0.00666893
0.00752724
0.00828215
0.00904679
0.00979432
0.0103107
0.0102932
0.00982019
0.0093153
0.00894312
0.00871039
0.00857187
0.00848139
0.00841202
0.0083531
0.00830259
0.00826182
0.00823311
0.00821885
0.00822148
0.0082431
0.00828546
0.00834982
0.0084363
0.00854233
0.00865914
0.00876399
0.00880342
0.00867417
0.00828856
0.00769453
0.00724652
0.00677728
0.00257657
0.00151144
0.00161673
0.00172402
0.00190444
0.00197067
0.00200115
0.00202732
0.0021214
0.00221068
0.00228264
0.00232003
0.00230816
0.00225672
0.00220492
0.002159
0.00212857
0.00211089
0.00210081
0.0020949
0.00209113
0.00208859
0.00208702
0.0020864
0.00208682
0.00208838
0.00209117
0.00209526
0.00210071
0.00210756
0.00211573
0.0021248
0.00213353
0.0021387
0.00213466
0.00212006
0.00211066
0.00214933
0.00225835
0.00235432
0.00213092
)
;

boundaryField
{
    floor
    {
        type            compressible::alphatWallFunction;
        Prt             0.85;
        value           nonuniform List<scalar> 
29
(
0.00015328
0.00010146
0.000113231
0.000100328
0.000102147
9.75601e-05
9.12127e-05
8.26613e-05
7.43928e-05
6.71426e-05
6.09309e-05
5.56041e-05
5.09888e-05
4.69381e-05
4.33908e-05
4.01421e-05
3.70512e-05
3.60948e-05
5.00499e-05
7.45919e-05
7.45909e-05
9.31186e-05
0.000106446
0.000115707
0.000153278
0.000101458
0.000145152
0.000162688
0.000210844
)
;
    }
    ceiling
    {
        type            compressible::alphatWallFunction;
        Prt             0.85;
        value           nonuniform List<scalar> 
43
(
0.000212858
0.000226949
0.000241207
0.000264986
0.000273661
0.00027765
0.000281071
0.0002933
0.000304844
0.00031411
0.000318912
0.000317389
0.000310782
0.000304114
0.000298188
0.000294255
0.000291967
0.000290661
0.000289896
0.000289407
0.000289079
0.000288875
0.000288795
0.00028885
0.000289052
0.000289414
0.000289944
0.000290651
0.000291539
0.000292596
0.000293771
0.000294901
0.00029557
0.000295048
0.000293157
0.00029194
0.000296945
0.000311003
0.000323319
0.000294568
0.000393629
0.000468822
0.000241411
)
;
    }
    sWall
    {
        type            compressible::alphatWallFunction;
        Prt             0.85;
        value           uniform 0.000211865;
    }
    nWall
    {
        type            compressible::alphatWallFunction;
        Prt             0.85;
        value           nonuniform List<scalar> 6(0.000196635 0.000259375 0.000338587 0.000416727 0.000351763 0.000294688);
    }
    sideWalls
    {
        type            empty;
    }
    glass1
    {
        type            compressible::alphatWallFunction;
        Prt             0.85;
        value           nonuniform List<scalar> 9(0.00015039 0.000197558 0.000236176 0.000272564 0.000309338 0.000348404 0.000386142 0.000396262 0.000389322);
    }
    glass2
    {
        type            compressible::alphatWallFunction;
        Prt             0.85;
        value           nonuniform List<scalar> 2(0.000448395 0.000492138);
    }
    sun
    {
        type            compressible::alphatWallFunction;
        Prt             0.85;
        value           nonuniform List<scalar> 
14
(
0.000153258
0.000167671
0.0001724
0.000180737
0.000188358
0.000195537
0.000202691
0.000209838
0.000215573
0.000219129
0.000219594
0.000216086
0.000207835
0.000193147
)
;
    }
    heatsource1
    {
        type            compressible::alphatWallFunction;
        Prt             0.85;
        value           nonuniform List<scalar> 3(0.00011222 0.000135864 0.000196228);
    }
    heatsource2
    {
        type            compressible::alphatWallFunction;
        Prt             0.85;
        value           nonuniform List<scalar> 4(0.00017317 0.000119184 0.000119183 0.00017922);
    }
    Table_master
    {
        type            compressible::alphatWallFunction;
        Prt             0.85;
        value           nonuniform List<scalar> 9(0.000129247 0.000108927 9.31037e-05 8.06271e-05 7.06552e-05 6.25937e-05 5.60403e-05 5.08064e-05 4.68597e-05);
    }
    Table_slave
    {
        type            compressible::alphatWallFunction;
        Prt             0.85;
        value           nonuniform List<scalar> 9(0.000148862 0.000133667 0.000121918 0.000112324 0.000104098 9.66962e-05 8.96844e-05 8.26482e-05 7.49754e-05);
    }
    inlet
    {
        type            fixedValue;
        value           uniform 1.94e-05;
    }
    outlet
    {
        type            zeroGradient;
    }
}


// ************************************************************************* //
