/*--------------------------------*- C++ -*----------------------------------*\
  =========                 |
  \\      /  F ield         | OpenFOAM: The Open Source CFD Toolbox
   \\    /   O peration     | Website:  https://openfoam.org
    \\  /    A nd           | Version:  6
     \\/     M anipulation  |
\*---------------------------------------------------------------------------*/
FoamFile
{
    version     2.0;
    format      ascii;
    class       volScalarField;
    location    "190";
    object      nut;
}
// * * * * * * * * * * * * * * * * * * * * * * * * * * * * * * * * * * * * * //

dimensions      [0 2 -1 0 0 0 0];

internalField   nonuniform List<scalar> 
459
(
0.000924241
0.00111141
0.00126051
0.00133413
0.00131987
0.00127669
0.00122346
0.00117101
0.00112093
0.00107499
0.00103134
0.000986697
0.00093746
0.000877912
0.000806211
0.000520188
0.000665345
0.000747147
0.000758472
0.000743673
0.000716568
0.000675877
0.000634449
0.000596941
0.000563812
0.000534592
0.000508659
0.000485291
0.000464147
0.000444107
0.000423841
0.000401516
0.000368056
0.000334289
0.00113222
0.00382945
0.00431983
0.003859
0.0039355
0.00395558
0.00378292
0.00358971
0.0034248
0.00320479
0.00291257
0.00255781
0.00214395
0.00168015
0.00121852
0.000796789
0.000703531
0.000717891
0.0024692
0.00231138
0.00255793
0.00275255
0.00267687
0.00197172
0.00164943
0.00143816
0.00128501
0.00116881
0.00107862
0.00100844
0.000932675
0.00084462
0.00075947
0.000711552
0.000597082
0.000387616
0.00131867
0.00516298
0.00503734
0.00370071
0.0038747
0.00423936
0.00420849
0.00411626
0.00407783
0.00398223
0.00375243
0.003376
0.00287694
0.00230307
0.00172845
0.00122038
0.000717051
0.000716057
0.00224141
0.00246655
0.00298855
0.00339377
0.00320638
0.00088664
0.000782499
0.0006961
0.000625137
0.000566759
0.000518519
0.000478656
0.000447767
0.000426563
0.000486081
0.00061558
0.000695055
0.000429574
0.00149623
0.00592968
0.00510063
0.00321858
0.00364011
0.00434969
0.00437189
0.00427783
0.0043125
0.00429551
0.00411647
0.00377199
0.0032967
0.00274198
0.00216429
0.00161613
0.00105381
0.000726047
0.00116658
0.00184335
0.00280066
0.00367441
0.00421513
0.00394181
0.00097486
0.000889731
0.000821866
0.000762147
0.000705717
0.000649768
0.000592429
0.000531881
0.000462933
0.000458324
0.000573995
0.000843315
0.000491141
0.00164829
0.00630769
0.00478831
0.00277687
0.00355689
0.004603
0.00465826
0.00452578
0.00460122
0.00454205
0.0043455
0.00403922
0.0036364
0.00317537
0.0026971
0.00226175
0.0019224
0.00205322
0.00275228
0.00369572
0.00458143
0.00522361
0.00555391
0.0054802
0.00457435
0.00401613
0.00347634
0.00297334
0.00249113
0.00202088
0.00156791
0.00113945
0.000721543
0.000545051
0.000605678
0.000907095
0.000725399
0.000555898
0.000512978
0.000434809
0.00175732
0.00637558
0.00416775
0.00242106
0.00353345
0.0048694
0.0049937
0.00489809
0.00497196
0.00485503
0.00466882
0.00444528
0.0041619
0.00386856
0.00360326
0.00346416
0.00355643
0.00420919
0.00510235
0.00586525
0.00638846
0.00664206
0.00665025
0.00642591
0.0059154
0.00524706
0.00450404
0.00375253
0.00301453
0.00227554
0.00162726
0.00114461
0.00083286
0.000768326
0.000823302
0.000995004
0.000932434
0.000771054
0.000656785
0.000422148
0.00179039
0.00598015
0.00321225
0.00218352
0.00349945
0.00504207
0.005216
0.00511263
0.00519418
0.00512885
0.00503982
0.00496328
0.00489051
0.00484206
0.00486949
0.00507231
0.00552886
0.00627678
0.006912
0.00728923
0.00741161
0.00730489
0.00702043
0.00656862
0.00593423
0.00518834
0.00438589
0.0035766
0.00280755
0.00213064
0.00162661
0.00133379
0.00121821
0.00120844
0.00118832
0.00111321
0.0009909
0.000787932
0.000679228
0.000389499
0.00172312
0.00427171
0.0023507
0.00199678
0.00345927
0.00515203
0.0054314
0.00532575
0.00523989
0.00517453
0.00519638
0.00527774
0.00540324
0.00558511
0.00585334
0.00624441
0.0067613
0.00727483
0.00757091
0.00759035
0.00736766
0.00693648
0.00637093
0.00574659
0.00509252
0.00441733
0.00373635
0.00308923
0.00253105
0.00211463
0.00187282
0.00178724
0.00178471
0.0017624
0.0016354
0.00140706
0.00113747
0.000895474
0.000799619
0.000399254
0.00162332
0.00160638
0.00122208
0.00176937
0.00355653
0.00537483
0.00575024
0.00553432
0.00533328
0.00531256
0.00540411
0.00555023
0.00573625
0.00596612
0.00624514
0.00656164
0.00686321
0.00703249
0.00697085
0.00666767
0.00617305
0.00558675
0.00499031
0.00443597
0.00394276
0.00350836
0.00313451
0.00283979
0.00264945
0.00257885
0.00262002
0.00273052
0.00283264
0.00282935
0.00264963
0.00229313
0.0018355
0.00146086
0.00139252
0.000530569
0.000490156
0.00219392
0.00438417
0.00603784
0.00594221
0.00580018
0.00581532
0.00592571
0.00605447
0.0061754
0.00628572
0.00638718
0.00647604
0.00653503
0.00652974
0.00641823
0.0061892
0.0058726
0.00551733
0.00516688
0.0048474
0.00457021
0.0043385
0.00415507
0.00402697
0.00396506
0.00397901
0.00407056
0.00422596
0.00440881
0.00455814
0.00459828
0.00446241
0.00411744
0.00359514
0.00304802
0.00270458
0.000763639
0.00219592
0.00665664
0.00686416
0.00631204
0.0060414
0.00607822
0.00625486
0.00644006
0.00658312
0.00667654
0.00672711
0.00674363
0.00673293
0.00669813
0.00663792
0.00654855
0.00642926
0.00628643
0.00613137
0.00597486
0.00582401
0.00568447
0.00556291
0.00546845
0.00541196
0.00540468
0.00545591
0.00556963
0.00573936
0.00594134
0.00612906
0.00623444
0.00618109
0.00591165
0.00543322
0.00484325
0.00410611
0.00110403
0.0014415
0.00153501
0.00167291
0.00173686
0.00169456
0.00164048
0.00161324
0.00160797
0.00160962
0.00161206
0.00161383
0.00161505
0.00161619
0.00161753
0.00161892
0.00161954
0.00161816
0.00161366
0.00160597
0.00159601
0.00158507
0.00157428
0.0015645
0.00155643
0.00155074
0.00154811
0.00154928
0.00155484
0.00156509
0.0015796
0.00159681
0.00161357
0.00162523
0.00162684
0.00161528
0.00159154
0.00155995
0.00152202
0.00145502
0.00117999
)
;

boundaryField
{
    floor
    {
        type            nutkWallFunction;
        Cmu             0.09;
        kappa           0.41;
        E               9.8;
        value           nonuniform List<scalar> 
29
(
9.76429e-05
6.23026e-05
8.04685e-05
9.04894e-05
9.18651e-05
9.00653e-05
8.6758e-05
8.17649e-05
7.66442e-05
7.19734e-05
6.78181e-05
6.41284e-05
6.08331e-05
5.78458e-05
5.51274e-05
5.25365e-05
4.99016e-05
4.69805e-05
4.25633e-05
3.80537e-05
3.80536e-05
4.51528e-05
5.06506e-05
5.85982e-05
9.76429e-05
6.23026e-05
8.69247e-05
8.66967e-05
8.79179e-05
)
;
    }
    ceiling
    {
        type            nutkWallFunction;
        Cmu             0.09;
        kappa           0.41;
        E               9.8;
        value           nonuniform List<scalar> 
43
(
0.00017154
0.000182061
0.000197451
0.000204544
0.000199862
0.000193856
0.000190824
0.000190239
0.000190424
0.000190696
0.000190894
0.000191031
0.000191157
0.000191308
0.000191462
0.000191533
0.000191378
0.000190877
0.000190019
0.000188907
0.000187685
0.000186478
0.000185383
0.00018448
0.000183841
0.000183547
0.000183677
0.0001843
0.000185446
0.000187069
0.000188992
0.000190862
0.000192163
0.000192343
0.000191056
0.000188406
0.000184876
0.000180627
0.000173085
0.0001417
0.000191879
0.000189982
0.000254644
)
;
    }
    sWall
    {
        type            nutkWallFunction;
        Cmu             0.09;
        kappa           0.41;
        E               9.8;
        value           uniform 0.000171548;
    }
    nWall
    {
        type            nutkWallFunction;
        Cmu             0.09;
        kappa           0.41;
        E               9.8;
        value           nonuniform List<scalar> 6(5.13129e-05 4.96598e-05 4.53779e-05 9.25593e-05 0.000132918 0.000141705);
    }
    sideWalls
    {
        type            empty;
    }
    glass1
    {
        type            nutkWallFunction;
        Cmu             0.09;
        kappa           0.41;
        E               9.8;
        value           nonuniform List<scalar> 9(0.000111766 0.000136161 0.000157596 0.000177697 0.000194699 0.000206784 0.000210432 0.000203 0.000191916);
    }
    glass2
    {
        type            nutkWallFunction;
        Cmu             0.09;
        kappa           0.41;
        E               9.8;
        value           nonuniform List<scalar> 2(4.66939e-05 6.36843e-05);
    }
    sun
    {
        type            nutkWallFunction;
        Cmu             0.09;
        kappa           0.41;
        E               9.8;
        value           nonuniform List<scalar> 
14
(
0.000111757
0.000133729
0.000150933
0.000159329
0.000157702
0.000152772
0.000146669
0.000140627
0.00013483
0.000129485
0.000124384
0.00011914
0.000113324
0.000106244
)
;
    }
    heatsource1
    {
        type            nutkWallFunction;
        Cmu             0.09;
        kappa           0.41;
        E               9.8;
        value           nonuniform List<scalar> 3(6.68185e-05 6.13766e-05 5.13135e-05);
    }
    heatsource2
    {
        type            nutkWallFunction;
        Cmu             0.09;
        kappa           0.41;
        E               9.8;
        value           nonuniform List<scalar> 4(9.65067e-05 8.51642e-05 8.51642e-05 8.68188e-05);
    }
    Table_master
    {
        type            nutkWallFunction;
        Cmu             0.09;
        kappa           0.41;
        E               9.8;
        value           nonuniform List<scalar> 9(0.00010729 9.47782e-05 8.4249e-05 7.54841e-05 6.81833e-05 6.2081e-05 5.69854e-05 5.30006e-05 5.02453e-05);
    }
    Table_slave
    {
        type            nutkWallFunction;
        Cmu             0.09;
        kappa           0.41;
        E               9.8;
        value           nonuniform List<scalar> 9(0.000117756 0.00010766 9.9531e-05 9.23122e-05 8.54289e-05 7.85388e-05 7.14027e-05 6.37748e-05 5.49558e-05);
    }
    inlet
    {
        type            calculated;
        value           uniform 0.000100623;
    }
    outlet
    {
        type            calculated;
        value           nonuniform List<scalar> 2(0.0014415 0.00153501);
    }
}


// ************************************************************************* //
