/*--------------------------------*- C++ -*----------------------------------*\
  =========                 |
  \\      /  F ield         | OpenFOAM: The Open Source CFD Toolbox
   \\    /   O peration     | Website:  https://openfoam.org
    \\  /    A nd           | Version:  6
     \\/     M anipulation  |
\*---------------------------------------------------------------------------*/
FoamFile
{
    version     2.0;
    format      ascii;
    class       surfaceScalarField;
    location    "160";
    object      phi;
}
// * * * * * * * * * * * * * * * * * * * * * * * * * * * * * * * * * * * * * //

dimensions      [1 0 -1 0 0 0 0];

internalField   nonuniform List<scalar> 
852
(
-0.00246997
0.00250174
-0.0035416
0.00107159
-0.00420282
0.000661191
-0.00451115
0.000308297
-0.00442301
-8.81721e-05
-0.00388902
-0.000534013
-0.0029237
-0.000965353
-0.00164743
-0.00127631
-0.000267089
-0.00138038
0.000843715
-0.00111086
0.00159653
-0.000752867
0.001985
-0.000388523
0.00197431
1.06345e-05
0.00145434
0.000519923
0.00145153
-0.000125918
0.000121267
-0.000404062
0.000278065
-9.96051e-05
-0.000304534
0.00046186
-0.000561539
0.000958526
-0.000496742
0.00133016
-0.000371713
0.00154206
-0.000211976
0.00163897
-9.69864e-05
0.00169159
-5.27011e-05
0.00172538
-3.38714e-05
0.00174589
-2.05876e-05
0.00175433
-8.52641e-06
0.00174654
7.71179e-06
0.00170806
3.83917e-05
0.00160518
0.000102792
0.00137919
0.000225904
0.000971908
0.000407195
0.000245498
0.00072632
0.000239088
-0.00181737
0.00440696
-0.00277666
0.00203085
-0.00343719
0.00132169
-0.00376146
0.000632542
-0.00369907
-0.000150588
-0.00321735
-0.00101576
-0.0023675
-0.00181522
-0.0013209
-0.00232294
-0.000286402
-0.00241492
0.000607938
-0.00200526
0.00126977
-0.00141476
0.001677
-0.000795811
0.00185703
-0.000169458
0.0019198
0.000457098
0.00230386
0.00106742
0.00117496
0.0011288
0.00117486
-0.00011927
0.000230205
0.0002241
-6.53867e-05
0.000669752
-0.00075026
0.00101367
-0.000905532
0.00131318
-0.00079632
0.00153546
-0.000594076
0.00158933
-0.000265919
0.00160083
-0.000108561
0.0016121
-6.40531e-05
0.00162132
-4.31624e-05
0.00162753
-2.68863e-05
0.00163129
-1.23614e-05
0.00163105
7.8668e-06
0.00162137
4.79891e-05
0.00156907
0.000155006
0.00136506
0.000429824
0.00102184
0.000750328
0.000614232
0.00113384
0.000836486
-0.00131117
0.00585525
-0.00210021
0.00281987
-0.00269309
0.00191454
-0.00299216
0.000931592
-0.00293044
-0.000212331
-0.00246339
-0.00148284
-0.00169129
-0.00258734
-0.000819249
-0.003195
-1.83066e-05
-0.0032159
0.000669731
-0.00269336
0.00119872
-0.00194382
0.00155126
-0.00114841
0.00175794
-0.00037621
0.00186312
0.000351859
0.0018887
0.00104178
0.00141776
0.00159968
0.00259256
0.000117861
9.66069e-05
0.0010242
-0.000971794
0.00137178
-0.00109791
0.001531
-0.00106482
0.00165866
-0.00092406
0.00183099
-0.000766476
0.00156515
0.00145666
0.00139269
0.0013496
0.00132279
0.0013105
0.00131843
0.00136649
0.00152156
0.00131134
0.000639959
0.00108798
0.000973602
0.000795787
0.00142594
0.00160627
-0.000933797
0.00696976
-0.00151759
0.00340363
-0.00193366
0.00233059
-0.00214047
0.00113838
-0.00200091
-0.000351914
-0.00150054
-0.00198322
-0.000813984
-0.00327391
-0.000136741
-0.00387226
0.000429669
-0.00378236
0.000905386
-0.00316914
0.00127095
-0.00230946
0.00151783
-0.00139537
0.00167475
-0.000533198
0.00178607
0.000240463
0.0019132
0.000914597
0.00211473
0.00139809
0.00306458
0.00164266
0.00233971
0.000709499
0.00256432
-0.00012807
0.00223023
-0.000637764
0.00204532
-0.000913074
0.00190941
-0.000928979
0.00179687
-0.000811594
0.00162545
-0.000595134
0.00186018
-0.000234962
0.00193824
-7.82865e-05
0.0019525
-1.44946e-05
0.00192805
2.42179e-05
0.00187172
5.6089e-05
0.00178358
8.79097e-05
0.00165295
0.000130381
0.00145273
0.000199984
0.00112649
0.000325992
0.00113117
0.000635193
0.00110122
0.00100346
0.00107065
0.00145642
0.0026435
-0.000659575
0.00784846
-0.00104685
0.00379087
-0.00115612
0.00243983
-0.0011576
0.00113983
-0.000804366
-0.000705165
-0.000254927
-0.00253266
0.000274607
-0.00380344
0.000692609
-0.00429028
0.000999084
-0.00408887
0.00122938
-0.00339951
0.00138146
-0.00246162
0.00146809
-0.00148209
0.00152698
-0.00059217
0.00161134
0.000156028
0.00178606
0.0007398
0.00208191
0.00110218
0.00253202
0.00119249
0.0026459
0.000595551
0.00253457
-1.67954e-05
0.00231462
-0.000417886
0.00204361
-0.000642134
0.00179718
-0.000682623
0.00158255
-0.000597045
0.00141226
-0.000424922
0.00137455
-0.000197342
0.00133249
-3.63024e-05
0.00127004
4.78596e-05
0.00120503
8.91405e-05
0.00114648
0.000114553
0.00109342
0.000140882
0.0010405
0.000183216
0.000982494
0.000257901
0.00093403
0.000374363
0.000998799
0.000570334
0.00121835
0.000783815
0.00185292
0.00082176
0.00318211
0.00131421
0.00220253
0.000979289
0.00138648
0.000815755
0.00141379
-0.000542167
0.00864324
-0.000728639
0.00397731
-0.000371726
0.00208288
0.000102318
0.000665757
0.000714069
-0.00131693
0.00121366
-0.00303225
0.00150607
-0.00409584
0.00162939
-0.00441361
0.00162715
-0.00408668
0.00154657
-0.00331901
0.00142307
-0.00233821
0.00129419
-0.00135332
0.00120405
-0.000502125
0.0012021
0.000157891
0.00132463
0.00061719
0.00156252
0.000864213
0.00189506
0.00085988
0.00202115
0.00046939
0.00194654
5.77435e-05
0.00177036
-0.000241784
0.00152996
-0.000401811
0.00127779
-0.000430545
0.00104232
-0.000361666
0.000847118
-0.000229806
0.000716305
-6.66194e-05
0.000622755
5.71562e-05
0.000552923
0.000117601
0.000504426
0.000137548
0.000478344
0.000140545
0.000476975
0.000142162
0.000502761
0.000157339
0.000558766
0.000201804
0.000651002
0.000282035
0.000820197
0.000401046
0.00107939
0.000524525
0.00136246
0.000538594
0.00176525
0.00091133
0.00165616
0.00108829
0.00105791
0.00141391
0.00250222
-0.000465481
0.00939255
-0.000195248
0.00370704
0.000887833
0.000999765
0.00182254
-0.000268986
0.00250667
-0.00200108
0.00284407
-0.00336964
0.00284381
-0.00409556
0.00258901
-0.00415882
0.00217965
-0.00367738
0.00171265
-0.00285211
0.001261
-0.00188667
0.000888513
-0.000980955
0.000640255
-0.000253977
0.000561509
0.000236543
0.000648885
0.00052973
0.000849756
0.000663262
0.00109198
0.000617579
0.00119129
0.000369998
0.00114387
0.000105075
0.00099232
-9.03227e-05
0.00077847
-0.000188054
0.000541552
-0.000193725
0.000312662
-0.000132873
0.000115911
-3.31536e-05
-2.34226e-05
7.26165e-05
-0.000106771
0.000140408
-0.000151889
0.000162623
-0.000169355
0.000154921
-0.000158187
0.000129283
-0.0001122
9.60809e-05
-2.23087e-05
6.73531e-05
0.000116517
6.28821e-05
0.000296611
0.000101843
0.000512557
0.000185001
0.000739462
0.000297522
0.000898215
0.000379739
0.00116424
0.000645205
0.00143417
0.00081825
0.00122468
0.0016233
0.00375959
0.0022192
0.00749238
0.0029792
0.00294701
0.00360478
0.000374151
0.00448386
-0.00114809
0.00486424
-0.00238145
0.00472033
-0.00322571
0.00415871
-0.00353392
0.00333512
-0.00333525
0.00239937
-0.0027417
0.00149511
-0.00194798
0.00072021
-0.0011119
0.00015467
-0.000415551
-0.000152423
5.29949e-05
-0.000224872
0.00030889
-0.000138135
0.000442899
3.18503e-05
0.000493185
0.000203195
0.000446141
0.000268836
0.000304261
0.000221365
0.000152446
8.62585e-05
4.46789e-05
-0.000103301
1.39856e-06
-0.00031173
1.45959e-05
-0.000504455
5.97424e-05
-0.000653613
0.000115896
-0.000745558
0.000164456
-0.000794403
0.000189148
-0.000816341
0.000184458
-0.000815915
0.000154393
-0.000791433
0.000104697
-0.00073933
4.38728e-05
-0.000655458
-1.66251e-05
-0.000528081
-6.46039e-05
-0.000347358
-7.89886e-05
-0.000137693
-2.4769e-05
4.05616e-05
0.000119162
9.72523e-05
0.000322947
0.000127129
0.000615235
6.72424e-05
0.000878057
-0.000319846
0.00201029
0.00357181
0.00782114
0.0107445
0.00966666
0.00145197
0.00883581
-0.000317214
0.00775315
-0.00129874
0.00637117
-0.00184368
0.00481191
-0.00197466
0.00324383
-0.00176723
0.001776
-0.001274
0.000529879
-0.000702011
-0.000364405
-0.000217786
-0.000867608
8.75142e-05
-0.00105381
0.000239077
-0.00105962
0.000314591
-0.000974264
0.000357435
-0.000851313
0.000370128
-0.000747429
0.000342149
-0.000718732
0.000275451
-0.000771369
0.000204966
-0.000883159
0.000156349
-0.00102073
0.000138848
-0.00115358
0.000147327
-0.00126347
0.000169509
-0.00134214
0.000194448
-0.00139071
0.000212903
-0.00141909
0.000217414
-0.00143943
0.000204675
-0.00146119
0.000176037
-0.00149292
0.000136307
-0.00154349
9.43194e-05
-0.00162388
6.36404e-05
-0.00175203
6.34227e-05
-0.00194576
0.000114625
-0.00221177
0.000241136
-0.00256762
0.0004749
-0.00309973
0.000854951
-0.00390827
0.00142367
-0.00507929
0.00204897
-0.00520489
0.00213577
-0.00150188
0.00601336
0.00181758
0.00499522
0.000700961
0.00419252
-0.000496062
0.00313786
-0.00078912
0.00187045
-0.000707375
0.000565435
-0.000462383
-0.000576504
-0.000132256
-0.00137072
9.20392e-05
-0.00178541
0.000196745
-0.0019398
0.000241771
-0.00195601
0.00025516
-0.00190695
0.000265406
-0.00182657
0.00027693
-0.00174049
0.000283926
-0.00167575
0.000277276
-0.00165493
0.000254508
-0.00167649
0.000226393
-0.00172402
0.000203745
-0.0017774
0.00019209
-0.00182119
0.000190976
-0.00184826
0.000196447
-0.00185786
0.000203913
-0.00185385
0.000208756
-0.00184343
0.000206856
-0.00183474
0.000195847
-0.00183485
0.000176016
-0.00184927
0.000150585
-0.00188137
0.000126284
-0.00193191
0.000114051
-0.00199794
0.000129316
-0.00207474
0.000191308
-0.00215691
0.000323185
-0.00223453
0.000552405
-0.00229175
0.000912052
-0.00229225
0.00142406
-0.00200978
0.00176639
-0.000615795
0.000741665
-0.00209232
0.00033945
0.0014689
0.00044444
0.000595813
-0.000169319
0.000117486
-0.000937969
-2.06574e-05
-0.00167811
3.25754e-05
-0.00226841
0.000127741
-0.00260863
0.000207784
-0.00275946
0.000242712
-0.00280299
0.000240118
-0.00278081
0.00021945
-0.00272403
0.000198233
-0.00264586
0.000187104
-0.00255497
0.00018589
-0.00246051
0.000189331
-0.00237429
0.000190914
-0.00230675
0.000186818
-0.00225927
0.00017877
-0.00222582
0.000170141
-0.00219738
0.0001635
-0.00216612
0.000159566
-0.00212742
0.0001576
-0.00207989
0.000156233
-0.00202507
0.000153792
-0.00196706
0.000148692
-0.00191153
0.000140173
-0.00186456
0.000128892
-0.00183126
0.000117139
-0.00181405
0.000108936
-0.00181014
0.000109995
-0.00180833
0.000127374
-0.00178623
0.000169074
-0.001708
0.000244833
-0.0015213
0.000365578
-0.0011333
0.000523932
-0.000342409
0.000633044
0.000856992
0.000566868
0.00159409
4.44891e-06
-0.000473074
-0.00542287
-0.00638521
-0.00494644
-0.00438364
-0.00430348
-0.00436468
-0.00437533
-0.00429358
-0.00413473
-0.00394352
-0.00375671
-0.00359168
-0.00344849
-0.00331675
-0.00318639
-0.00305269
-0.00291753
-0.00278665
-0.00266405
-0.00255033
-0.0024435
-0.00234079
-0.00224014
-0.00214087
-0.00204396
-0.00195201
-0.00186837
-0.00179582
-0.00173491
-0.00168224
-0.00162877
-0.00155849
-0.00144742
-0.00126184
-0.000957047
-0.000495677
7.26651e-05
0.000572682
0.000511103
)
;

boundaryField
{
    floor
    {
        type            calculated;
        value           nonuniform List<scalar> 
29
(
0
0
0
0
0
0
0
0
0
0
0
0
0
0
0
0
0
0
0
0
6.31833e-06
1.67423e-05
2.59148e-05
3.33254e-05
2.7572e-06
4.56603e-06
1.02457e-05
1.56529e-05
1.53168e-05
)
;
    }
    ceiling
    {
        type            calculated;
        value           nonuniform List<scalar> 
43
(
3.44001e-05
3.17965e-05
2.99013e-05
3.28044e-05
3.71327e-05
4.03623e-05
4.30417e-05
4.58251e-05
4.87668e-05
5.13339e-05
5.31447e-05
5.42584e-05
5.48841e-05
5.52082e-05
5.53706e-05
5.5474e-05
5.5594e-05
5.57727e-05
5.60077e-05
5.62662e-05
5.65057e-05
5.66894e-05
5.67926e-05
5.68039e-05
5.67252e-05
5.65724e-05
5.63772e-05
5.61885e-05
5.60726e-05
5.61089e-05
5.6379e-05
5.69524e-05
5.7868e-05
5.91177e-05
6.06498e-05
6.24328e-05
6.45745e-05
6.67211e-05
6.58861e-05
6.87505e-05
2.82522e-05
2.36299e-05
9.17915e-06
)
;
    }
    sWall
    {
        type            calculated;
        value           uniform -0.000131377;
    }
    nWall
    {
        type            calculated;
        value           nonuniform List<scalar> 6(-2.76095e-05 -3.06112e-05 -3.27832e-05 -2.54906e-05 -2.52849e-05 -3.0877e-05);
    }
    sideWalls
    {
        type            empty;
        value           nonuniform 0();
    }
    glass1
    {
        type            calculated;
        value           nonuniform List<scalar> 9(-3.18014e-05 -8.78891e-05 -0.000137142 -0.000180749 -0.000219146 -0.000252641 -0.000283851 -0.000319051 -0.000357045);
    }
    glass2
    {
        type            calculated;
        value           nonuniform List<scalar> 2(-0.000132159 -0.000131321);
    }
    sun
    {
        type            calculated;
        value           uniform 0;
    }
    heatsource1
    {
        type            calculated;
        value           nonuniform List<scalar> 3(2.01904e-07 2.02316e-07 2.02651e-07);
    }
    heatsource2
    {
        type            calculated;
        value           nonuniform List<scalar> 4(5.07439e-08 5.08963e-08 0 0);
    }
    Table_master
    {
        type            calculated;
        value           nonuniform List<scalar> 9(-1.51999e-07 -1.52142e-07 -1.52179e-07 -1.52197e-07 -1.52204e-07 -1.52204e-07 -1.52194e-07 -1.52167e-07 -1.52105e-07);
    }
    Table_slave
    {
        type            calculated;
        value           nonuniform List<scalar> 9(1.51807e-07 1.51831e-07 1.51811e-07 1.51794e-07 1.51786e-07 1.5179e-07 1.51806e-07 1.51837e-07 1.51895e-07);
    }
    inlet
    {
        type            calculated;
        value           uniform -0.00637891;
    }
    outlet
    {
        type            calculated;
        value           nonuniform List<scalar> 2(0.00551961 0.000930319);
    }
}


// ************************************************************************* //
