// -*- C++ -*-
// File generated by PyFoam - sorry for the ugliness

FoamFile
{
 version 2.0;
 format ascii;
 class volVectorField;
 location "100";
 object U;
}

dimensions [ 0 1 -1 0 0 0 0 ];

internalField nonuniform List<vector> 459
(
  (-0.052598 0.096957 0)
  (-0.213893 0.00988569 0)
  (-0.196 -0.0410805 0)
  (-0.124102 -0.0814315 0)
  (-0.0281431 -0.0916005 0)
  (0.0713933 -0.0714383 0)
  (0.13735 -0.0504949 0)
  (0.186655 -0.0333412 0)
  (0.216303 -0.0203229 0)
  (0.228552 -0.0104941 0)
  (0.227107 -0.00237276 0)
  (0.21424 0.00565704 0)
  (0.189743 0.0156731 0)
  (0.148293 0.0338811 0)
  (0.107529 0.0826333 0)
  (-0.040089 0.0220519 0)
  (-0.0661292 -0.00621443 0)
  (-0.0520925 -0.0256865 0)
  (-0.0242618 -0.0375551 0)
  (0.0174775 -0.0360852 0)
  (0.0486544 -0.0271644 0)
  (0.0714367 -0.0154035 0)
  (0.0861231 -0.00900894 0)
  (0.0937231 -0.00663117 0)
  (0.0975939 -0.00568123 0)
  (0.100158 -0.00504561 0)
  (0.102103 -0.00449371 0)
  (0.103371 -0.0039066 0)
  (0.10358 -0.00300703 0)
  (0.101727 -0.00119094 0)
  (0.0958935 0.00236263 0)
  (0.0837412 0.0072659 0)
  (0.0636902 0.0146765 0)
  (0.0275249 0.0311855 0)
  (0.124696 0.221499 0)
  (-0.167631 0.0677905 0)
  (-0.103793 -0.0619425 0)
  (-0.0294848 -0.143969 0)
  (0.0505336 -0.148736 0)
  (0.113276 -0.119649 0)
  (0.165759 -0.0832152 0)
  (0.20294 -0.0506003 0)
  (0.22414 -0.0243172 0)
  (0.231631 -0.00362512 0)
  (0.228075 0.0131659 0)
  (0.215679 0.0284187 0)
  (0.196578 0.0449374 0)
  (0.174477 0.0668956 0)
  (0.156824 0.104377 0)
  (0.14657 0.095618 0)
  (0.0913716 0.0859884 0)
  (0.00529896 0.0578663 0)
  (-0.0307206 0.0118154 0)
  (0.0197226 -0.0439225 0)
  (0.0367603 -0.0556692 0)
  (0.0574619 -0.0527963 0)
  (0.0767644 -0.0416603 0)
  (0.0863377 -0.0200331 0)
  (0.089349 -0.0065039 0)
  (0.0899225 -0.0014669 0)
  (0.0904556 0.000291349 0)
  (0.0911278 0.00120376 0)
  (0.091633 0.00185017 0)
  (0.0919178 0.00263584 0)
  (0.0919352 0.00426884 0)
  (0.0908407 0.00793102 0)
  (0.0854283 0.0168809 0)
  (0.0722887 0.0267914 0)
  (0.052774 0.0392868 0)
  (0.000502246 0.0637832 0)
  (0.268176 0.325112 0)
  (-0.173252 0.0763818 0)
  (0.0108589 -0.170198 0)
  (0.0784095 -0.230859 0)
  (0.125685 -0.214937 0)
  (0.167174 -0.17185 0)
  (0.199611 -0.12183 0)
  (0.220364 -0.0757399 0)
  (0.229974 -0.0376487 0)
  (0.230441 -0.0072758 0)
  (0.222673 0.0181327 0)
  (0.20935 0.0406072 0)
  (0.19289 0.06231 0)
  (0.175804 0.0854219 0)
  (0.16002 0.11086 0)
  (0.13737 0.113315 0)
  (0.103339 0.14761 0)
  (0.0616372 0.0259425 0)
  (0.0665239 -0.0349913 0)
  (0.0837331 -0.0635432 0)
  (0.092444 -0.0721277 0)
  (0.099912 -0.067852 0)
  (0.108694 -0.0591782 0)
  (0.107805 -0.0446328 0)
  (0.0920894 -0.0286457 0)
  (0.0798593 -0.0197603 0)
  (0.0741968 -0.0146833 0)
  (0.0714313 -0.0113671 0)
  (0.0694032 -0.00907112 0)
  (0.0678752 -0.00728344 0)
  (0.0676802 -0.00513064 0)
  (0.0710962 0.00055597 0)
  (0.0696755 0.0233092 0)
  (0.0566757 0.04129 0)
  (0.0438338 0.0607927 0)
  (-0.0261803 0.0960555 0)
  (0.450852 0.406609 0)
  (-0.130657 -0.080507 0)
  (0.140156 -0.275398 0)
  (0.194591 -0.29099 0)
  (0.21437 -0.254019 0)
  (0.223102 -0.197479 0)
  (0.226971 -0.137266 0)
  (0.225928 -0.0827165 0)
  (0.220865 -0.037403 0)
  (0.211247 -0.000349263 0)
  (0.197528 0.0302779 0)
  (0.182842 0.0556206 0)
  (0.16909 0.0776242 0)
  (0.15794 0.0983857 0)
  (0.152461 0.119276 0)
  (0.15576 0.133113 0)
  (0.168499 0.165423 0)
  (0.202926 0.136774 0)
  (0.161996 0.0525725 0)
  (0.15594 -0.00908624 0)
  (0.150533 -0.0499311 0)
  (0.140626 -0.0659896 0)
  (0.129328 -0.0644829 0)
  (0.1174 -0.0531212 0)
  (0.115199 -0.0308852 0)
  (0.126291 -0.0180092 0)
  (0.132235 -0.0106501 0)
  (0.13016 -0.00581503 0)
  (0.123576 -0.00218054 0)
  (0.114459 0.000858947 0)
  (0.102898 0.00380954 0)
  (0.0878319 0.00740412 0)
  (0.0652509 0.0128111 0)
  (0.047518 0.0359189 0)
  (0.0384315 0.0555862 0)
  (0.0399454 0.0779604 0)
  (-0.0473048 0.123206 0)
  (0.64371 0.435905 0)
  (0.284575 -0.0296535 0)
  (0.29813 -0.246395 0)
  (0.322488 -0.281365 0)
  (0.294298 -0.243753 0)
  (0.253025 -0.183375 0)
  (0.219133 -0.121428 0)
  (0.192746 -0.0672646 0)
  (0.172503 -0.0224025 0)
  (0.150633 0.0162936 0)
  (0.135112 0.0464299 0)
  (0.125191 0.0692778 0)
  (0.119808 0.0875456 0)
  (0.118954 0.103469 0)
  (0.124632 0.117916 0)
  (0.138113 0.125722 0)
  (0.159678 0.126296 0)
  (0.178945 0.0676709 0)
  (0.17877 0.0143079 0)
  (0.175824 -0.0245409 0)
  (0.163881 -0.046889 0)
  (0.145917 -0.0543032 0)
  (0.126697 -0.0501528 0)
  (0.109462 -0.0374736 0)
  (0.0993405 -0.0160134 0)
  (0.0952828 -0.00180986 0)
  (0.0898106 0.0059194 0)
  (0.0826665 0.0103433 0)
  (0.0747768 0.01351 0)
  (0.066766 0.0163848 0)
  (0.0585108 0.0197258 0)
  (0.049782 0.0244401 0)
  (0.039661 0.0316837 0)
  (0.031571 0.046583 0)
  (0.0288527 0.0628314 0)
  (0.0493539 0.0844895 0)
  (0.0152929 0.123316 0)
  (0.0554385 0.0770265 0)
  (0.110118 0.0379702 0)
  (-0.391396 -0.00563561 0)
  (0.949544 0.0739633 0)
  (0.421005 -0.184788 0)
  (0.365765 -0.254288 0)
  (0.35806 -0.239218 0)
  (0.278958 -0.190743 0)
  (0.191766 -0.129831 0)
  (0.129456 -0.0734058 0)
  (0.0881913 -0.0268559 0)
  (0.0562579 0.0116864 0)
  (0.0466279 0.0381228 0)
  (0.045781 0.0576057 0)
  (0.0488474 0.0733745 0)
  (0.0549703 0.0865815 0)
  (0.0641287 0.0974626 0)
  (0.0774209 0.105124 0)
  (0.0948496 0.10493 0)
  (0.11808 0.0930603 0)
  (0.137378 0.0521006 0)
  (0.143967 0.0151918 0)
  (0.13978 -0.0117128 0)
  (0.126235 -0.0278402 0)
  (0.107902 -0.0334581 0)
  (0.0885381 -0.0303328 0)
  (0.0708603 -0.0206719 0)
  (0.0574545 -0.00633211 0)
  (0.0475717 0.00514307 0)
  (0.0408314 0.0117898 0)
  (0.0348307 0.0156303 0)
  (0.0293747 0.018474 0)
  (0.0246038 0.0212719 0)
  (0.0206757 0.0247512 0)
  (0.0180524 0.0297286 0)
  (0.0168673 0.0368808 0)
  (0.0189125 0.0468741 0)
  (0.024681 0.0583788 0)
  (0.049448 0.0759807 0)
  (0.051265 0.0941635 0)
  (0.074745 0.0498768 0)
  (0.121697 0.0400648 0)
  (-0.139156 0.0337385 0)
  (1.09804 -0.369022 0)
  (0.160449 -0.291871 0)
  (0.149188 -0.206068 0)
  (0.175802 -0.138761 0)
  (0.0791311 -0.0929504 0)
  (-0.00448796 -0.0472078 0)
  (-0.0363415 -0.0179605 0)
  (-0.0491016 0.00263681 0)
  (-0.0493687 0.0194389 0)
  (-0.0436522 0.0347588 0)
  (-0.0351926 0.0496959 0)
  (-0.0244495 0.063114 0)
  (-0.0116731 0.0741409 0)
  (0.00381762 0.0823937 0)
  (0.0216825 0.086109 0)
  (0.0414969 0.0825052 0)
  (0.0638011 0.0695303 0)
  (0.0794071 0.0424675 0)
  (0.0835456 0.0164829 0)
  (0.0783344 -0.00229875 0)
  (0.0663583 -0.012939 0)
  (0.0502344 -0.0159574 0)
  (0.0332109 -0.012786 0)
  (0.0175273 -0.00512657 0)
  (0.00459003 0.00498164 0)
  (-0.00276049 0.0127805 0)
  (-0.00708745 0.0172178 0)
  (-0.010168 0.0198779 0)
  (-0.0122911 0.021839 0)
  (-0.0132833 0.0236511 0)
  (-0.0126279 0.0257284 0)
  (-0.00946193 0.0285386 0)
  (-0.00321289 0.0325005 0)
  (0.00769525 0.037759 0)
  (0.0207371 0.043706 0)
  (0.0446629 0.0556919 0)
  (0.0639026 0.0640855 0)
  (0.0870045 0.0384816 0)
  (0.140537 0.0403182 0)
  (-0.08296 0.100594 0)
  (0.928917 -0.306815 0)
  (-0.438475 -0.172687 0)
  (-0.140618 -0.170096 0)
  (-0.0655081 -0.0721174 0)
  (-0.113923 -0.0506001 0)
  (-0.122325 -0.0330055 0)
  (-0.124553 -0.0194721 0)
  (-0.123849 -0.00551236 0)
  (-0.118639 0.00907411 0)
  (-0.110892 0.0232622 0)
  (-0.10057 0.0365518 0)
  (-0.0878498 0.0480978 0)
  (-0.0730362 0.0571502 0)
  (-0.0561657 0.0632134 0)
  (-0.0376155 0.0653509 0)
  (-0.0183148 0.0619938 0)
  (0.000564479 0.0519992 0)
  (0.0117709 0.0347698 0)
  (0.0134935 0.0184622 0)
  (0.00766132 0.00669623 0)
  (-0.00240462 0.000292299 0)
  (-0.0150638 -0.00077608 0)
  (-0.0278038 0.00205324 0)
  (-0.0383923 0.00704602 0)
  (-0.0449605 0.0123596 0)
  (-0.0482955 0.0164962 0)
  (-0.0496559 0.0191486 0)
  (-0.0498533 0.0207259 0)
  (-0.0490123 0.0215153 0)
  (-0.0468519 0.0216099 0)
  (-0.0427245 0.0210056 0)
  (-0.0357407 0.0197131 0)
  (-0.0253437 0.0178278 0)
  (-0.0115855 0.015606 0)
  (0.00549022 0.0133599 0)
  (0.0260559 0.0168136 0)
  (0.0457479 0.0170964 0)
  (0.0583487 0.00107144 0)
  (0.134669 0.0575443 0)
  (-0.458536 0.199939 0)
  (0.900015 -0.271921 0)
  (-0.50889 -0.268165 0)
  (-0.351142 -0.276704 0)
  (-0.142936 -0.11559 0)
  (-0.176011 -0.0585914 0)
  (-0.173307 -0.0351199 0)
  (-0.173474 -0.0209256 0)
  (-0.172913 -0.00893976 0)
  (-0.169591 0.00276806 0)
  (-0.163508 0.0143173 0)
  (-0.154508 0.0249977 0)
  (-0.142843 0.0341681 0)
  (-0.128971 0.0412691 0)
  (-0.113399 0.0458677 0)
  (-0.096898 0.0474097 0)
  (-0.0807731 0.0452833 0)
  (-0.0669332 0.0394581 0)
  (-0.0588318 0.0304648 0)
  (-0.0571897 0.0215192 0)
  (-0.0605905 0.0146801 0)
  (-0.0668852 0.0107756 0)
  (-0.0740477 0.0097074 0)
  (-0.080366 0.0106265 0)
  (-0.0848202 0.0126292 0)
  (-0.0869814 0.0149187 0)
  (-0.0872376 0.0167844 0)
  (-0.0862666 0.0178991 0)
  (-0.0846418 0.0182502 0)
  (-0.0827787 0.017849 0)
  (-0.0811214 0.0167212 0)
  (-0.0803299 0.0150559 0)
  (-0.0815523 0.0135448 0)
  (-0.0866584 0.0137834 0)
  (-0.0977507 0.0181077 0)
  (-0.1161 0.0284758 0)
  (-0.141822 0.0451791 0)
  (-0.179149 0.0651471 0)
  (-0.230336 0.0832842 0)
  (-0.300226 0.0936165 0)
  (-0.550227 0.0831402 0)
  (-0.51883 -0.227347 0)
  (-0.10472 -0.0935098 0)
  (-0.17718 -0.043439 0)
  (-0.200325 -0.024439 0)
  (-0.209636 -0.0131493 0)
  (-0.213265 -0.00382973 0)
  (-0.213018 0.00483088 0)
  (-0.209227 0.0127647 0)
  (-0.202427 0.0200176 0)
  (-0.192917 0.0262682 0)
  (-0.181251 0.0311768 0)
  (-0.168127 0.0344816 0)
  (-0.15445 0.0359408 0)
  (-0.141416 0.0353959 0)
  (-0.130453 0.0329764 0)
  (-0.1231 0.0291161 0)
  (-0.119629 0.0251244 0)
  (-0.119201 0.0220011 0)
  (-0.120538 0.020302 0)
  (-0.122341 0.0201499 0)
  (-0.123607 0.0212354 0)
  (-0.123788 0.023133 0)
  (-0.122725 0.0254575 0)
  (-0.120592 0.0278753 0)
  (-0.117723 0.0301623 0)
  (-0.114466 0.0322079 0)
  (-0.111174 0.033928 0)
  (-0.108267 0.0352525 0)
  (-0.106215 0.036181 0)
  (-0.105425 0.0369403 0)
  (-0.10605 0.038333 0)
  (-0.107782 0.0421344 0)
  (-0.109618 0.0508321 0)
  (-0.110022 0.0658233 0)
  (-0.107826 0.0833408 0)
  (-0.0988416 0.0890519 0)
  (-0.0807569 0.051301 0)
  (-0.125141 -0.188435 0)
  (-0.170491 0.0406885 0)
  (-0.172748 -0.0276839 0)
  (-0.214996 -0.0427908 0)
  (-0.237442 -0.0425863 0)
  (-0.249012 -0.0396439 0)
  (-0.254971 -0.0353756 0)
  (-0.256793 -0.0300961 0)
  (-0.254882 -0.0238641 0)
  (-0.2499 -0.0179986 0)
  (-0.242142 -0.0131069 0)
  (-0.232127 -0.00936142 0)
  (-0.220505 -0.00689263 0)
  (-0.208054 -0.00585055 0)
  (-0.195673 -0.00639389 0)
  (-0.184319 -0.00862483 0)
  (-0.174847 -0.0125016 0)
  (-0.167567 -0.017564 0)
  (-0.162235 -0.0232851 0)
  (-0.158294 -0.0291445 0)
  (-0.155077 -0.0347148 0)
  (-0.152005 -0.0397949 0)
  (-0.148694 -0.0443898 0)
  (-0.144966 -0.0486523 0)
  (-0.140824 -0.0527825 0)
  (-0.136378 -0.0568514 0)
  (-0.131755 -0.0606562 0)
  (-0.127043 -0.0636817 0)
  (-0.122254 -0.0651177 0)
  (-0.117289 -0.0639523 0)
  (-0.111849 -0.0591482 0)
  (-0.105218 -0.0498245 0)
  (-0.0959221 -0.0354026 0)
  (-0.0816022 -0.0160642 0)
  (-0.0599942 0.00573252 0)
  (-0.0324837 0.0226485 0)
  (0.0122143 0.00982869 0)
  (0.104032 -0.0670902 0)
  (-0.0732041 -0.128814 0)
  (-0.114755 -0.328033 0)
  (-0.396984 -0.0868144 0)
  (-0.342139 0.128178 0)
  (-0.298876 0.104712 0)
  (-0.287647 0.0966055 0)
  (-0.290777 0.0913206 0)
  (-0.297493 0.0889705 0)
  (-0.303235 0.0880976 0)
  (-0.306536 0.0878844 0)
  (-0.306522 0.0878111 0)
  (-0.303154 0.0886372 0)
  (-0.296694 0.0905602 0)
  (-0.287552 0.0934761 0)
  (-0.276253 0.0973403 0)
  (-0.263398 0.102168 0)
  (-0.249665 0.10802 0)
  (-0.235791 0.11497 0)
  (-0.222488 0.123051 0)
  (-0.21025 0.132188 0)
  (-0.199276 0.142138 0)
  (-0.189509 0.152506 0)
  (-0.180696 0.162882 0)
  (-0.172498 0.172998 0)
  (-0.164569 0.182796 0)
  (-0.156624 0.192369 0)
  (-0.148489 0.201812 0)
  (-0.140092 0.211063 0)
  (-0.131426 0.219808 0)
  (-0.122484 0.227474 0)
  (-0.11321 0.233293 0)
  (-0.103428 0.236441 0)
  (-0.0927017 0.236262 0)
  (-0.0801019 0.232551 0)
  (-0.0642422 0.225903 0)
  (-0.0443045 0.21824 0)
  (-0.0215022 0.2131 0)
  (0.00925492 0.213051 0)
  (0.0370734 0.223201 0)
  (0.106469 0.258738 0)
  (-0.24613 0.302251 0)
)
;

boundaryField
{
  floor
  {
    type noSlip;
  }
  ceiling
  {
    type noSlip;
  }
  sWall
  {
    type noSlip;
  }
  nWall
  {
    type noSlip;
  }
  sideWalls
  {
    type empty;
  }
  glass1
  {
    type noSlip;
  }
  glass2
  {
    type noSlip;
  }
  sun
  {
    type noSlip;
  }
  heatsource1
  {
    type noSlip;
  }
  heatsource2
  {
    type noSlip;
  }
  Table_master
  {
    type noSlip;
  }
  Table_slave
  {
    type noSlip;
  }
  inlet
  {
    type fixedValue;
    value uniform (0.1 0 0);
  }
  outlet
  {
    type zeroGradient;
  }
} 	// ************************************************************************* //

