/*--------------------------------*- C++ -*----------------------------------*\
  =========                 |
  \\      /  F ield         | OpenFOAM: The Open Source CFD Toolbox
   \\    /   O peration     | Website:  https://openfoam.org
    \\  /    A nd           | Version:  6
     \\/     M anipulation  |
\*---------------------------------------------------------------------------*/
FoamFile
{
    version     2.0;
    format      ascii;
    class       volScalarField;
    location    "100";
    object      alphat;
}
// * * * * * * * * * * * * * * * * * * * * * * * * * * * * * * * * * * * * * //

dimensions      [1 -1 -1 0 0 0 0];

internalField   nonuniform List<scalar> 
459
(
0.000850308
0.000878213
0.000803164
0.000832675
0.000865635
0.000897224
0.000927441
0.000957034
0.000987247
0.00101692
0.001041
0.00105747
0.00106443
0.00106005
0.00103894
0.000503305
0.000608376
0.000540496
0.000456879
0.000389876
0.000342091
0.000300726
0.000274158
0.000251876
0.000231284
0.000214482
0.000213151
0.000249074
0.000331012
0.000438143
0.000569839
0.000644928
0.000620285
0.000500081
0.00143923
0.002666
0.00201661
0.00267084
0.00292877
0.00318451
0.00344874
0.00369887
0.00390182
0.00404492
0.00412112
0.00408457
0.00385904
0.00332001
0.00233047
0.0011064
0.000754677
0.000597148
0.0017991
0.00166427
0.00133775
0.00101567
0.000739605
0.000573715
0.000513509
0.000452504
0.000408191
0.000380358
0.000361751
0.00039063
0.000582823
0.000992248
0.00151389
0.00179636
0.00167322
0.000547324
0.00194729
0.0043065
0.00215407
0.00378005
0.00438884
0.00468363
0.00493181
0.00514393
0.00531001
0.00542904
0.00549187
0.00545042
0.00522076
0.00467695
0.00369874
0.00237535
0.0011423
0.000881555
0.00223431
0.00183914
0.00139824
0.00104006
0.000696295
0.00029698
0.000251297
0.000234836
0.000225951
0.00023081
0.0002646
0.000341922
0.000473724
0.000696386
0.00189778
0.00219334
0.00167952
0.000679788
0.00242361
0.00631965
0.00240695
0.00393648
0.00509106
0.00540755
0.00560246
0.00576838
0.00591588
0.00604407
0.0061817
0.00630091
0.00632278
0.0061039
0.00543652
0.00414267
0.00239978
0.00115707
0.00231265
0.00269236
0.00230075
0.0019179
0.0015885
0.00124092
0.000944895
0.000963688
0.000988393
0.00101539
0.00104244
0.00106805
0.001092
0.00111759
0.00114599
0.00226311
0.00286581
0.00287741
0.00101553
0.00286343
0.00847891
0.00314386
0.00356971
0.00519867
0.00559228
0.00573858
0.0058485
0.00595954
0.00608763
0.00631521
0.00665688
0.00707473
0.0074857
0.00776286
0.00777081
0.00742921
0.0067466
0.00605715
0.00557221
0.00528447
0.00510193
0.00489967
0.00471505
0.00456835
0.00453255
0.00454001
0.00456246
0.00456922
0.00453835
0.00447268
0.00440973
0.00436661
0.00436487
0.00426242
0.00397469
0.00298219
0.00126943
0.00111519
0.00108145
0.00327426
0.0104066
0.00464039
0.00327878
0.00466926
0.0052753
0.00548565
0.00557561
0.00561405
0.00565181
0.00587005
0.00627651
0.00686784
0.00759679
0.00834198
0.0089289
0.00918241
0.00902235
0.00857333
0.00806667
0.00764188
0.00732022
0.00706162
0.00682717
0.00659451
0.00637698
0.00618184
0.00599416
0.00578155
0.00552167
0.00523263
0.00497358
0.00478973
0.00467576
0.00462921
0.00460614
0.00441155
0.00382243
0.00249132
0.00131011
0.00365468
0.0117962
0.00724029
0.0040756
0.00366874
0.00428025
0.00485817
0.00517821
0.00520842
0.00516081
0.00527209
0.00554582
0.00602819
0.00674776
0.00763551
0.00850739
0.00913773
0.00938745
0.00929453
0.00902792
0.00874354
0.00850117
0.00829211
0.00808433
0.00784892
0.00758201
0.00729402
0.00698446
0.00662936
0.00619966
0.00570787
0.00522768
0.004837
0.00455357
0.00434392
0.0041349
0.00382401
0.00339553
0.00274514
0.00127942
0.00373767
0.0118792
0.00917118
0.00693071
0.00511628
0.00438466
0.00455985
0.00495055
0.00497624
0.0048975
0.00487853
0.00495698
0.00516954
0.00557777
0.00623198
0.00707598
0.00790575
0.00850045
0.00878459
0.00883761
0.0087879
0.00871531
0.00864372
0.00856922
0.00848102
0.00837063
0.00822546
0.00802635
0.00775005
0.00736466
0.00685117
0.00624314
0.00559476
0.00495325
0.00435789
0.00382983
0.00332403
0.00289774
0.00252337
0.00155599
0.0036174
0.0043141
0.00529186
0.00548032
0.00517849
0.00475293
0.00446789
0.00434405
0.00429528
0.00430434
0.00434658
0.00441295
0.00451481
0.00468801
0.00499241
0.00547945
0.00611702
0.00676625
0.00728698
0.00763781
0.00785568
0.00799217
0.00808407
0.0081542
0.00822253
0.0083125
0.00843742
0.00857533
0.00867078
0.00866816
0.00856707
0.00838496
0.00813769
0.00786463
0.00750376
0.00685994
0.00592854
0.00495256
0.00472872
0.00177013
0.00577644
0.00786581
0.0063352
0.00560308
0.00513652
0.00481966
0.00459584
0.00442748
0.00430361
0.00421831
0.00417064
0.00416843
0.00423213
0.00439414
0.00468238
0.00508673
0.00554503
0.00597937
0.0063425
0.00662382
0.00683515
0.00699793
0.00713867
0.00729007
0.00748752
0.0077453
0.00805144
0.00835233
0.00857121
0.00865466
0.00860325
0.00845101
0.00822229
0.00788648
0.00719772
0.00617228
0.00543565
0.00177102
0.00367086
0.00805796
0.00656058
0.00578263
0.00526302
0.0048819
0.00460016
0.00438885
0.00420374
0.00405835
0.00396197
0.003922
0.00394589
0.00404176
0.00421616
0.00446676
0.00476747
0.00506154
0.00532473
0.00554468
0.00571954
0.0058543
0.00595836
0.00604545
0.00613479
0.00625147
0.00641487
0.00662549
0.00685028
0.00703075
0.00711808
0.00709321
0.00695406
0.00660997
0.00596481
0.00504877
0.00475192
0.00162407
0.00225609
0.00262303
0.00307898
0.00318174
0.00276573
0.00248947
0.00226924
0.00208189
0.00191855
0.00177575
0.00165697
0.00155545
0.00146793
0.00139319
0.00133119
0.0012825
0.00124777
0.00122713
0.00122037
0.00122717
0.00124004
0.00125375
0.0012655
0.00127431
0.00128041
0.00128474
0.00128878
0.00129476
0.00130506
0.00132176
0.00134528
0.00137332
0.00140061
0.00141933
0.00141971
0.0014029
0.0013752
0.00133217
0.00132974
0.00122687
)
;

boundaryField
{
    floor
    {
        type            compressible::alphatWallFunction;
        Prt             0.85;
        value           nonuniform List<scalar> 
29
(
0.000147803
6.97729e-05
8.5675e-05
7.54482e-05
6.26415e-05
5.21695e-05
4.45529e-05
3.78404e-05
3.34632e-05
2.97493e-05
2.6277e-05
2.34087e-05
2.31671e-05
2.92386e-05
4.27055e-05
5.96852e-05
7.98508e-05
9.10899e-05
8.74192e-05
6.92638e-05
6.92629e-05
7.64642e-05
9.62269e-05
0.00014451
0.000147801
6.97721e-05
8.39822e-05
0.000125527
0.000164252
)
;
    }
    ceiling
    {
        type            compressible::alphatWallFunction;
        Prt             0.85;
        value           nonuniform List<scalar> 
43
(
0.000310466
0.000357263
0.000414469
0.000427255
0.00037529
0.000340331
0.000312169
0.000287979
0.000266698
0.00024793
0.000232192
0.000218642
0.000206882
0.000196776
0.000188345
0.000181693
0.00017693
0.00017409
0.000173157
0.000174091
0.000175859
0.00017774
0.000179349
0.000180556
0.00018139
0.000181981
0.000182533
0.000183349
0.000184758
0.000187038
0.000190247
0.000194065
0.000197776
0.000200321
0.000200382
0.000198108
0.000194351
0.000188496
0.000188153
0.00017406
0.000481007
0.000565495
0.000487448
)
;
    }
    sWall
    {
        type            compressible::alphatWallFunction;
        Prt             0.85;
        value           uniform 0.000309399;
    }
    nWall
    {
        type            compressible::alphatWallFunction;
        Prt             0.85;
        value           nonuniform List<scalar> 6(0.000153528 0.000185037 0.000180933 0.000246932 0.000227447 0.000173744);
    }
    sideWalls
    {
        type            empty;
    }
    glass1
    {
        type            compressible::alphatWallFunction;
        Prt             0.85;
        value           nonuniform List<scalar> 9(0.000117868 0.000198437 0.000265131 0.000326077 0.000381315 0.000432169 0.000478707 0.000488917 0.000474497);
    }
    glass2
    {
        type            compressible::alphatWallFunction;
        Prt             0.85;
        value           nonuniform List<scalar> 2(0.000217209 0.00024563);
    }
    sun
    {
        type            compressible::alphatWallFunction;
        Prt             0.85;
        value           nonuniform List<scalar> 
14
(
0.000121078
0.000125058
0.000114269
0.000118525
0.000123257
0.000127772
0.000132074
0.000136271
0.00014054
0.000144717
0.000148097
0.000150403
0.000151375
0.000150761
)
;
    }
    heatsource1
    {
        type            compressible::alphatWallFunction;
        Prt             0.85;
        value           nonuniform List<scalar> 3(0.000179759 0.000158476 0.00015383);
    }
    heatsource2
    {
        type            compressible::alphatWallFunction;
        Prt             0.85;
        value           nonuniform List<scalar> 4(0.000157311 0.000107313 0.000107311 0.000162296);
    }
    Table_master
    {
        type            compressible::alphatWallFunction;
        Prt             0.85;
        value           nonuniform List<scalar> 9(3.72974e-05 2.97262e-05 2.69497e-05 2.54344e-05 2.62435e-05 3.18955e-05 4.452e-05 6.52509e-05 9.87413e-05);
    }
    Table_slave
    {
        type            compressible::alphatWallFunction;
        Prt             0.85;
        value           nonuniform List<scalar> 9(0.000134638 0.000137304 0.000140801 0.000144609 0.000148416 0.000152007 0.000155356 0.000158921 0.000162852);
    }
    inlet
    {
        type            fixedValue;
        value           uniform 1.94e-05;
    }
    outlet
    {
        type            zeroGradient;
    }
}


// ************************************************************************* //
