/*--------------------------------*- C++ -*----------------------------------*\
  =========                 |
  \\      /  F ield         | OpenFOAM: The Open Source CFD Toolbox
   \\    /   O peration     | Website:  https://openfoam.org
    \\  /    A nd           | Version:  6
     \\/     M anipulation  |
\*---------------------------------------------------------------------------*/
FoamFile
{
    version     2.0;
    format      ascii;
    class       surfaceScalarField;
    location    "340";
    object      phi;
}
// * * * * * * * * * * * * * * * * * * * * * * * * * * * * * * * * * * * * * //

dimensions      [1 0 -1 0 0 0 0];

internalField   nonuniform List<scalar> 
852
(
-0.00163973
0.00165091
-0.00243635
0.000796597
-0.00287417
0.000437796
-0.00298422
0.000110031
-0.00272268
-0.00026156
-0.0020446
-0.000678113
-0.000986899
-0.00105773
0.000262796
-0.00124974
0.00126529
-0.00100253
0.00196516
-0.000699914
0.00235704
-0.000391923
0.00244667
-8.96692e-05
0.00221694
0.000229687
0.00155187
0.000665032
0.00155024
-0.000183702
0.000180885
-0.000385442
0.000201676
-3.46907e-05
-0.000350814
0.000522812
-0.000557563
0.000996425
-0.000473675
0.0013408
-0.000344435
0.0015355
-0.000194765
0.0016267
-9.12639e-05
0.00167813
-5.14991e-05
0.00171217
-3.41027e-05
0.00173349
-2.13915e-05
0.00174291
-9.48041e-06
0.00173612
6.71261e-06
0.00169928
3.67746e-05
0.00160037
9.88385e-05
0.00138391
0.000216397
0.000997922
0.000385912
0.000355943
0.000641906
0.000352082
-0.00123842
0.00292118
-0.00191812
0.00147628
-0.00233858
0.00085824
-0.00245971
0.000231147
-0.00223302
-0.000488273
-0.00164703
-0.00126412
-0.000792009
-0.00191278
0.000126373
-0.00216817
0.000945048
-0.00182126
0.00154321
-0.00129813
0.0019095
-0.000758269
0.00206193
-0.000242146
0.00203709
0.00025448
0.00195572
0.000746353
0.00227662
0.0012293
0.00112152
0.00115501
0.00112142
-6.32437e-05
0.000237499
0.000279541
-0.000141172
0.000690989
-0.00076232
0.00102023
-0.000886861
0.00130925
-0.000762752
0.00151806
-0.000553304
0.00156579
-0.000242558
0.00157635
-0.000101887
0.00158702
-6.22333e-05
0.00159605
-4.31964e-05
0.00160241
-2.78234e-05
0.00160648
-1.36181e-05
0.00160664
6.49013e-06
0.00159726
4.6079e-05
0.00154638
0.000149654
0.00134707
0.000415634
0.00100885
0.000724054
0.000569377
0.00108131
0.000910828
-0.000921319
0.0038933
-0.00146293
0.00201787
-0.00182793
0.00122322
-0.00194321
0.000346416
-0.00173764
-0.000693868
-0.00121905
-0.00178273
-0.000519013
-0.00261284
0.000170937
-0.00285817
0.000800054
-0.00245043
0.00128183
-0.00177997
0.00158866
-0.00106517
0.00174553
-0.000399072
0.00179964
0.00020032
0.00180512
0.000740815
0.00177531
0.00125906
0.00129879
0.00163149
0.00242017
0.000188489
3.8842e-05
0.000996268
-0.000949006
0.0013244
-0.00109051
0.00148172
-0.00104424
0.0016063
-0.00088738
0.00176786
-0.000714921
0.00152539
0.0014236
0.00136146
0.00131835
0.00129061
0.00127708
0.00128366
0.00132982
0.00147956
0.00126029
0.000634826
0.00102165
0.000962626
0.000695247
0.00140764
0.00158921
-0.000678547
0.00464007
-0.00106373
0.00240303
-0.00131257
0.00147205
-0.00137207
0.000405899
-0.00113491
-0.000931041
-0.000669522
-0.00224813
-0.000132852
-0.00314953
0.000350442
-0.00334151
0.000789838
-0.0028899
0.00112502
-0.00211523
0.00133223
-0.00127244
0.00144022
-0.000507131
0.0014976
0.000142877
0.00155047
0.00068789
0.0016557
0.00115378
0.00184899
0.00143814
0.00272699
0.00154213
0.0021226
0.000594306
0.00236477
-0.000203374
0.00209149
-0.00067578
0.00192453
-0.000923602
0.00179888
-0.000918634
0.00169343
-0.00078199
0.00153462
-0.000556162
0.00174105
-0.000206645
0.00180244
-6.16131e-05
0.00180718
-4.95601e-06
0.00177766
2.93019e-05
0.00171892
5.85205e-05
0.0016293
8.9401e-05
0.0014978
0.000131277
0.00129966
0.000197913
0.000983247
0.000316186
0.000993176
0.000624825
0.000955547
0.00100018
0.000895321
0.00146779
0.00246233
-0.000496384
0.00522056
-0.000732054
0.00263869
-0.000788479
0.00152845
-0.000684244
0.000301647
-0.000341756
-0.00127354
5.09653e-05
-0.00264086
0.000381382
-0.00347996
0.000646495
-0.00360667
0.000871617
-0.00311509
0.00101932
-0.00226302
0.00108257
-0.00133578
0.00110112
-0.000525763
0.00113079
0.00011314
0.00122475
0.000593872
0.00143617
0.000942305
0.00176095
0.00111332
0.00221423
0.0010888
0.00234217
0.000466315
0.00227651
-0.000137756
0.00210166
-0.000500987
0.00186066
-0.00068265
0.00163043
-0.000688464
0.00142615
-0.000577767
0.00126261
-0.000392676
0.00122388
-0.00016798
0.00117987
-1.76685e-05
0.00111979
5.50547e-05
0.0010614
8.76298e-05
0.00100983
0.000110028
0.000961003
0.000138156
0.000906876
0.000185333
0.000839544
0.000265172
0.00077349
0.000382165
0.000814623
0.000583618
0.00100139
0.000813342
0.00154426
0.000924849
0.00265071
0.0013558
0.00171761
0.000932812
0.00107277
0.000644562
0.0010966
-0.000395598
0.00571465
-0.000462208
0.00270528
-0.00018781
0.00125403
0.000233106
-0.000119291
0.000651448
-0.00169189
0.000911043
-0.00290046
0.00101777
-0.0035867
0.00103868
-0.00362763
0.00100191
-0.00307841
0.000911058
-0.00217227
0.000784918
-0.00120973
0.000680978
-0.000421905
0.000660366
0.000133685
0.000757508
0.000496674
0.000974296
0.000725467
0.0012755
0.000812068
0.00164446
0.000719795
0.0017988
0.000311932
0.00173737
-7.63806e-05
0.00156786
-0.000331534
0.00133123
-0.000446075
0.00108179
-0.000439083
0.000851324
-0.000347367
0.000662935
-0.000204353
0.000539417
-4.45287e-05
0.000459188
6.24923e-05
0.000407114
0.000107061
0.000376018
0.000118657
0.000364952
0.000121025
0.000374241
0.000128797
0.000403183
0.000156319
0.000450042
0.000218238
0.000517419
0.000314712
0.000656088
0.000444874
0.000884894
0.000584464
0.00116895
0.000640714
0.00152354
0.00100114
0.00137948
0.0010768
0.000851565
0.00117239
0.00197409
-0.0002685
0.00609547
1.41719e-05
0.00242259
0.000840806
0.000427379
0.00149216
-0.000770659
0.00183091
-0.00203066
0.0019103
-0.00297985
0.00176109
-0.00343751
0.00146577
-0.00333236
0.00110099
-0.00271372
0.000719021
-0.0017904
0.000376498
-0.000867312
0.000157105
-0.000202597
0.000107305
0.00018342
0.000206501
0.000397423
0.000412072
0.000519843
0.00067502
0.000549069
0.000940359
0.000454404
0.00103927
0.000212969
0.00097503
-1.22046e-05
0.000806079
-0.000162647
0.000578952
-0.000219016
0.000335388
-0.000195589
0.00010763
-0.000119681
-7.88276e-05
-1.79675e-05
-0.000197006
7.3577e-05
-0.00025373
0.000119145
-0.000274209
0.000127468
-0.000269276
0.000113652
-0.000237778
8.94543e-05
-0.000173833
6.4778e-05
-7.08473e-05
5.32566e-05
7.19526e-05
7.53597e-05
0.000240609
0.000145976
0.000434377
0.00025103
0.000642385
0.000376378
0.000811644
0.000471376
0.00105414
0.000758564
0.0012152
0.000915654
0.00111922
0.00126829
0.00312084
0.00145356
0.00476902
0.00207873
0.0017974
0.00266593
-0.000159843
0.00321189
-0.00131663
0.00334797
-0.00216674
0.00308259
-0.00271448
0.00251724
-0.00287217
0.00178442
-0.0025996
0.00101146
-0.00194086
0.000303836
-0.0010829
-0.000201304
-0.000362283
-0.000441631
3.76469e-05
-0.000474961
0.000216685
-0.000384238
0.00030664
-0.000219874
0.000355419
-2.811e-05
0.000357244
0.000128602
0.000297628
0.000162566
0.000178937
8.30491e-05
6.7241e-05
-7.86856e-05
-9.86592e-07
-0.000285174
-1.26042e-05
-0.000496252
1.54101e-05
-0.000678699
6.26858e-05
-0.000806381
0.000109636
-0.000873781
0.000140899
-0.000901917
0.000147203
-0.000904056
0.000129528
-0.000883596
9.31132e-05
-0.000839198
4.49744e-05
-0.000768354
-6.14877e-06
-0.000662242
-5.29396e-05
-0.000504901
-8.20675e-05
-0.000290799
-6.82094e-05
-5.35415e-05
1.36906e-05
0.000157017
0.000165736
0.000285372
0.00034294
0.000454179
0.000589676
0.000594506
0.000775247
0.000196095
0.00166662
0.00341907
0.00489476
0.0066777
0.00633734
0.000180503
0.00590267
-0.00088196
0.00519562
-0.00145967
0.00415891
-0.00167777
0.00291285
-0.00162615
0.00162406
-0.0013109
0.000404796
-0.00072171
-0.000487803
-0.000190441
-0.000947105
9.69176e-05
-0.00110241
0.000192874
-0.0011059
0.000220097
-0.00103629
0.000236958
-0.00093212
0.00025118
-0.000828149
0.000253199
-0.000763789
0.00023319
-0.000775883
0.000190951
-0.000858453
0.000149727
-0.000985568
0.000126044
-0.00112351
0.000125253
-0.00124751
0.000139323
-0.00134268
0.000157773
-0.00140573
0.000172598
-0.00144237
0.000177448
-0.00146397
0.000168715
-0.00148067
0.000146141
-0.00149991
0.000112253
-0.00152741
7.2386e-05
-0.00156854
3.48829e-05
-0.00163436
1.27838e-05
-0.00173703
2.05188e-05
-0.00188145
7.61218e-05
-0.00206989
0.000202044
-0.00233353
0.000429289
-0.00277542
0.000784745
-0.00348329
0.00129746
-0.00454576
0.00183764
-0.00473594
0.00185672
-0.00121267
0.00642793
0.000245464
0.00558678
-4.08148e-05
0.00435205
-0.000224982
0.00290501
-0.000230782
0.00135035
-7.15732e-05
-0.000116011
0.000155296
-0.00116015
0.000322292
-0.00163823
0.000287534
-0.0017908
0.000249393
-0.00181071
0.000212693
-0.00178112
0.00019043
-0.00172978
0.00018553
-0.00167133
0.000192645
-0.00162025
0.000202028
-0.00159179
0.000204647
-0.00159743
0.000196503
-0.00163134
0.000183542
-0.00167855
0.00017316
-0.00172259
0.0001692
-0.00175365
0.000170287
-0.001769
0.000173028
-0.00177068
0.00017418
-0.00176406
0.000170736
-0.001756
0.000160557
-0.00175295
0.000142988
-0.00176012
0.000119317
-0.00178106
9.32168e-05
-0.00181745
7.11711e-05
-0.00186762
6.28561e-05
-0.00192807
8.08665e-05
-0.00199406
0.000142012
-0.00206063
0.000268513
-0.00211665
0.000485219
-0.00214751
0.000815519
-0.00211709
0.00126695
-0.00185617
0.00157664
-0.000633775
0.000634239
-0.00182449
-0.000884105
0.00111635
-0.00127655
0.000351513
-0.00166946
0.00016782
-0.00206581
0.000165461
-0.0023617
0.000224207
-0.00250338
0.000296862
-0.00251546
0.000334262
-0.00250744
0.00027941
-0.00247317
0.000215036
-0.00242728
0.000166705
-0.00237646
0.00013952
-0.00232122
0.000130192
-0.00226144
0.00013278
-0.00220013
0.000140621
-0.00214309
0.000147508
-0.00209602
0.000149342
-0.00205912
0.000146538
-0.00202773
0.000141673
-0.00199564
0.000137007
-0.00195853
0.000133082
-0.00191501
0.000129408
-0.00186606
0.000125119
-0.0018146
0.000119178
-0.00176497
0.000110823
-0.00172215
0.000100058
-0.00169094
8.79943e-05
-0.00167484
7.7012e-05
-0.00167455
7.07691e-05
-0.00168585
7.40555e-05
-0.00169757
9.24801e-05
-0.00168861
0.000132943
-0.00162518
0.000204988
-0.00145958
0.00031952
-0.00111242
0.000468259
-0.000416759
0.0005712
0.000652107
0.000507683
0.00132441
-3.81527e-05
-0.000477906
-0.00516137
-0.0059997
-0.00490573
-0.004577
-0.00443436
-0.00429653
-0.00410241
-0.00383808
-0.00353856
-0.00329551
-0.00311775
-0.00298882
-0.00288733
-0.00279532
-0.00270081
-0.00259855
-0.00248951
-0.00237877
-0.00227099
-0.00216822
-0.00207021
-0.00197617
-0.00188576
-0.00179953
-0.00171908
-0.00164679
-0.00158505
-0.0015352
-0.00149625
-0.00146358
-0.00142785
-0.00137413
-0.0012806
-0.00111585
-0.000837543
-0.000411558
0.000116142
0.000579057
0.000496597
)
;

boundaryField
{
    floor
    {
        type            calculated;
        value           nonuniform List<scalar> 
29
(
0
0
0
0
0
0
0
0
0
0
0
0
0
0
0
0
0
0
0
0
3.78529e-06
1.05538e-05
1.67928e-05
2.21215e-05
1.59116e-06
2.74947e-06
6.563e-06
1.01026e-05
1.00368e-05
)
;
    }
    ceiling
    {
        type            calculated;
        value           nonuniform List<scalar> 
43
(
2.55196e-05
2.38187e-05
2.22277e-05
2.26639e-05
2.50619e-05
2.75217e-05
2.99873e-05
3.2425e-05
3.46417e-05
3.62584e-05
3.71815e-05
3.76709e-05
3.79336e-05
3.8081e-05
3.81753e-05
3.82595e-05
3.83642e-05
3.85014e-05
3.86568e-05
3.87997e-05
3.88987e-05
3.89327e-05
3.88936e-05
3.87844e-05
3.8618e-05
3.84159e-05
3.82087e-05
3.80362e-05
3.79464e-05
3.79903e-05
3.82142e-05
3.86498e-05
3.93021e-05
4.01402e-05
4.11077e-05
4.21721e-05
4.34009e-05
4.46677e-05
4.4204e-05
4.59107e-05
1.66544e-05
1.4449e-05
1.30243e-05
)
;
    }
    sWall
    {
        type            calculated;
        value           uniform -2.8394e-05;
    }
    nWall
    {
        type            calculated;
        value           nonuniform List<scalar> 6(-2.41156e-05 -2.59977e-05 -2.76094e-05 -2.20574e-05 -2.22706e-05 -2.73267e-05);
    }
    sideWalls
    {
        type            empty;
        value           nonuniform 0();
    }
    glass1
    {
        type            calculated;
        value           nonuniform List<scalar> 9(-1.12027e-05 -3.18618e-05 -5.08232e-05 -6.82399e-05 -8.41182e-05 -9.85084e-05 -0.000112341 -0.000127131 -0.000142414);
    }
    glass2
    {
        type            calculated;
        value           nonuniform List<scalar> 2(-0.000102209 -0.000104281);
    }
    sun
    {
        type            calculated;
        value           uniform 0;
    }
    heatsource1
    {
        type            calculated;
        value           nonuniform List<scalar> 3(2.0565e-07 2.0604e-07 2.06295e-07);
    }
    heatsource2
    {
        type            calculated;
        value           nonuniform List<scalar> 4(5.16164e-08 5.17595e-08 0 0);
    }
    Table_master
    {
        type            calculated;
        value           nonuniform List<scalar> 9(-1.54633e-07 -1.54758e-07 -1.5479e-07 -1.54807e-07 -1.54814e-07 -1.54814e-07 -1.54806e-07 -1.54781e-07 -1.54721e-07);
    }
    Table_slave
    {
        type            calculated;
        value           nonuniform List<scalar> 9(1.54487e-07 1.54506e-07 1.54491e-07 1.54478e-07 1.54475e-07 1.54483e-07 1.54503e-07 1.54537e-07 1.54596e-07);
    }
    inlet
    {
        type            calculated;
        value           uniform -0.00649287;
    }
    outlet
    {
        type            calculated;
        value           nonuniform List<scalar> 2(0.00516409 0.000814371);
    }
}


// ************************************************************************* //
