/*--------------------------------*- C++ -*----------------------------------*\
  =========                 |
  \\      /  F ield         | OpenFOAM: The Open Source CFD Toolbox
   \\    /   O peration     | Website:  https://openfoam.org
    \\  /    A nd           | Version:  6
     \\/     M anipulation  |
\*---------------------------------------------------------------------------*/
FoamFile
{
    version     2.0;
    format      ascii;
    class       volScalarField;
    location    "280";
    object      alphat;
}
// * * * * * * * * * * * * * * * * * * * * * * * * * * * * * * * * * * * * * //

dimensions      [1 -1 -1 0 0 0 0];

internalField   nonuniform List<scalar> 
459
(
0.00108344
0.00121801
0.00128659
0.00137244
0.00146572
0.00155517
0.00162682
0.00167308
0.00162523
0.00154365
0.00144773
0.00134008
0.00123451
0.00112816
0.001011
0.000598399
0.000773374
0.000882463
0.000941487
0.000937239
0.000911609
0.00085865
0.000802133
0.000750804
0.000705605
0.000665857
0.000630721
0.000599469
0.000571312
0.000544929
0.000518719
0.000490227
0.000449261
0.000402164
0.00134141
0.0036329
0.00380454
0.00444122
0.00497366
0.00539814
0.0057817
0.00618051
0.00647913
0.00633168
0.0059557
0.00542086
0.00455517
0.00346276
0.00226684
0.00109588
0.000941907
0.000802017
0.00275853
0.00290624
0.00333734
0.00366442
0.00357276
0.00252813
0.00209959
0.00182339
0.00162431
0.00147354
0.00135567
0.00125654
0.00115625
0.00104692
0.000943307
0.000872109
0.000711578
0.000451634
0.00155763
0.00506662
0.00486717
0.00528287
0.00550785
0.00566891
0.00592232
0.00646328
0.00707412
0.00728207
0.00716111
0.00681316
0.0061934
0.00520789
0.00390454
0.0024339
0.00101982
0.000875
0.00293563
0.00320789
0.00394636
0.0045549
0.00429928
0.00113859
0.000996029
0.000879487
0.000785473
0.00070947
0.000647619
0.000597356
0.000558033
0.000530127
0.000600005
0.000733842
0.000766421
0.000484261
0.00176614
0.00618922
0.00533866
0.00553356
0.00543316
0.00529907
0.00544289
0.00611513
0.00688159
0.00731491
0.00736938
0.00716849
0.00677103
0.00608809
0.00505573
0.0036812
0.00196657
0.00107336
0.00151246
0.00239439
0.00371552
0.00496019
0.00573524
0.00532282
0.00125647
0.00114442
0.00105836
0.000988102
0.000927292
0.000870177
0.000813079
0.000753205
0.000686157
0.0006274
0.000683275
0.000859697
0.000532505
0.00198029
0.00745183
0.00604747
0.0059988
0.0055273
0.00506849
0.00517744
0.00592476
0.00680371
0.00735506
0.00747149
0.00730402
0.00699763
0.00655337
0.00587698
0.00493226
0.00381711
0.00352198
0.00422375
0.00530795
0.00638612
0.00718527
0.00758265
0.00742315
0.00612068
0.00541232
0.00495475
0.00454896
0.00409049
0.00358068
0.00302128
0.00242197
0.00180767
0.00126745
0.000970098
0.00101919
0.000767341
0.000588556
0.000580387
0.000568349
0.00220395
0.0088375
0.0075327
0.00684598
0.00569785
0.00498504
0.00510755
0.00595226
0.00695242
0.0075789
0.0076995
0.00753025
0.0073207
0.00711808
0.00682041
0.00643015
0.006125
0.00654848
0.00745992
0.00826662
0.00882305
0.00907222
0.00902338
0.0086942
0.00806897
0.00745042
0.00685904
0.00624532
0.00560039
0.00491512
0.00418373
0.00341839
0.00265597
0.00197323
0.00148313
0.00130465
0.00109745
0.000943806
0.00115616
0.00070862
0.0023791
0.00963162
0.00911647
0.0072847
0.00563246
0.00484997
0.00513236
0.00617916
0.00732715
0.00800135
0.00811025
0.00802223
0.00806953
0.0080892
0.00806115
0.00809256
0.00834269
0.00899696
0.00968473
0.0100641
0.0101446
0.00995415
0.00955265
0.00900583
0.00836642
0.00771893
0.00708677
0.00645773
0.00581823
0.00516386
0.00448842
0.00381864
0.00318477
0.00260854
0.00212505
0.00182325
0.00154264
0.00132035
0.0013853
0.00082698
0.00240468
0.00790428
0.00729483
0.00575606
0.00462723
0.00443638
0.0052464
0.00665684
0.00794974
0.0086055
0.0087119
0.00882232
0.00884546
0.00884417
0.00895016
0.00921071
0.0096336
0.010136
0.0104607
0.0104541
0.0101382
0.00959192
0.0088982
0.00812382
0.00737581
0.00672162
0.006124
0.00554952
0.00498556
0.00444764
0.00397634
0.00358953
0.00326932
0.00295452
0.00265353
0.00245254
0.00225299
0.00190559
0.00235124
0.00103304
0.00234264
0.00270843
0.00275659
0.00267356
0.00296784
0.00405332
0.00578611
0.00760282
0.00882814
0.00928217
0.00928959
0.00904238
0.00882276
0.0088013
0.00896991
0.00925625
0.00956378
0.00974341
0.00966075
0.00928201
0.00865996
0.00788647
0.0070826
0.00635693
0.00574462
0.00523045
0.00476801
0.0043248
0.00388829
0.00345435
0.00302638
0.00262758
0.00229992
0.002069
0.0019189
0.00181642
0.00174516
0.00169035
0.00165446
0.00116115
0.000500871
0.00163725
0.00379215
0.00619877
0.0081412
0.00928813
0.00961585
0.00923153
0.00875272
0.00841473
0.008282
0.00830296
0.00839564
0.00848171
0.00848103
0.00831951
0.00798146
0.00751875
0.00701483
0.00654449
0.00615116
0.00584122
0.00559172
0.00536717
0.00513196
0.00485735
0.0045237
0.00412552
0.00367888
0.00321867
0.00279001
0.00243371
0.00218164
0.00203799
0.00196359
0.00191226
0.00188027
0.00140547
0.00239277
0.00902093
0.0102756
0.0104081
0.0101115
0.00952978
0.00880263
0.00816553
0.00777386
0.00760559
0.00755791
0.00755611
0.00756084
0.0075476
0.00749595
0.00739328
0.00724603
0.00707855
0.00691888
0.00678738
0.00669152
0.00662703
0.00658195
0.00653947
0.00647825
0.00637313
0.00619649
0.00592291
0.00553781
0.00504812
0.0044882
0.0039158
0.00339282
0.00295997
0.00262355
0.00240141
0.00312261
0.00158309
0.00199644
0.00215533
0.00232702
0.00255365
0.00240462
0.0022526
0.00211759
0.00198846
0.001881
0.00181073
0.00177424
0.00175896
0.00175558
0.00175841
0.00176368
0.00176833
0.0017698
0.00176671
0.00175962
0.00175059
0.00174188
0.00173496
0.0017302
0.00172701
0.00172404
0.00171939
0.00171081
0.00169595
0.00167279
0.00164027
0.00159885
0.0015508
0.00149992
0.00145072
0.00140717
0.00137054
0.00133625
0.00130444
0.00133352
0.0013068
)
;

boundaryField
{
    floor
    {
        type            compressible::alphatWallFunction;
        Prt             0.85;
        value           nonuniform List<scalar> 
29
(
0.000144089
8.43762e-05
0.000110165
0.000125878
0.000134284
0.000133682
0.00013004
0.000122472
0.000114335
0.000106885
0.000100274
9.44174e-05
8.9205e-05
8.45387e-05
8.03087e-05
7.63217e-05
7.2337e-05
6.79764e-05
6.16494e-05
5.42838e-05
5.42831e-05
6.202e-05
6.70631e-05
7.44426e-05
0.000144088
8.43752e-05
0.000114317
0.00012481
0.000152828
)
;
    }
    ceiling
    {
        type            compressible::alphatWallFunction;
        Prt             0.85;
        value           nonuniform List<scalar> 
43
(
0.000276933
0.000297552
0.000319652
0.000348567
0.000329602
0.000310125
0.000292706
0.000275933
0.000261885
0.000252653
0.000247844
0.000245828
0.000245383
0.000245759
0.000246456
0.00024707
0.000247265
0.000246857
0.000245921
0.000244727
0.000243574
0.000242658
0.000242028
0.000241605
0.000241212
0.000240596
0.00023946
0.00023749
0.000234416
0.000230089
0.000224565
0.000218137
0.000211306
0.000204674
0.000198783
0.000193811
0.000189143
0.000184802
0.000188774
0.000185132
0.000321648
0.000368127
0.000328042
)
;
    }
    sWall
    {
        type            compressible::alphatWallFunction;
        Prt             0.85;
        value           uniform 0.000276468;
    }
    nWall
    {
        type            compressible::alphatWallFunction;
        Prt             0.85;
        value           nonuniform List<scalar> 6(7.95817e-05 0.000100422 0.000117619 0.000198215 0.000222113 0.000184802);
    }
    sideWalls
    {
        type            empty;
    }
    glass1
    {
        type            compressible::alphatWallFunction;
        Prt             0.85;
        value           nonuniform List<scalar> 9(0.000152742 0.000188105 0.000217171 0.00024479 0.000272798 0.000301711 0.000324144 0.000327436 0.000319576);
    }
    glass2
    {
        type            compressible::alphatWallFunction;
        Prt             0.85;
        value           nonuniform List<scalar> 2(0.000146391 0.000164237);
    }
    sun
    {
        type            compressible::alphatWallFunction;
        Prt             0.85;
        value           nonuniform List<scalar> 
14
(
0.000154233
0.000172882
0.000182294
0.000194
0.000206624
0.000218646
0.000228219
0.000234373
0.000228005
0.000217103
0.000204199
0.000189602
0.000175159
0.000160465
)
;
    }
    heatsource1
    {
        type            compressible::alphatWallFunction;
        Prt             0.85;
        value           nonuniform List<scalar> 3(8.27722e-05 8.15443e-05 7.97307e-05);
    }
    heatsource2
    {
        type            compressible::alphatWallFunction;
        Prt             0.85;
        value           nonuniform List<scalar> 4(0.000155854 0.000134213 0.000134212 0.000145208);
    }
    Table_master
    {
        type            compressible::alphatWallFunction;
        Prt             0.85;
        value           nonuniform List<scalar> 9(0.000161786 0.000141857 0.000125317 0.000111786 0.000100705 9.15814e-05 8.40887e-05 7.81727e-05 7.39429e-05);
    }
    Table_slave
    {
        type            compressible::alphatWallFunction;
        Prt             0.85;
        value           nonuniform List<scalar> 9(0.000178051 0.000162598 0.000150612 0.000140742 0.000132133 0.000123987 0.000115779 0.000107098 9.72776e-05);
    }
    inlet
    {
        type            fixedValue;
        value           uniform 1.94e-05;
    }
    outlet
    {
        type            zeroGradient;
    }
}


// ************************************************************************* //
