/*--------------------------------*- C++ -*----------------------------------*\
  =========                 |
  \\      /  F ield         | OpenFOAM: The Open Source CFD Toolbox
   \\    /   O peration     | Website:  https://openfoam.org
    \\  /    A nd           | Version:  6
     \\/     M anipulation  |
\*---------------------------------------------------------------------------*/
FoamFile
{
    version     2.0;
    format      ascii;
    class       surfaceScalarField;
    location    "800";
    object      phi;
}
// * * * * * * * * * * * * * * * * * * * * * * * * * * * * * * * * * * * * * //

dimensions      [1 0 -1 0 0 0 0];

internalField   nonuniform List<scalar> 
852
(
-0.00234616
0.00238643
-0.00301209
0.000666264
-0.00329375
0.000281993
-0.00339192
9.85015e-05
-0.00331574
-7.58393e-05
-0.0031044
-0.000211001
-0.00282894
-0.000275119
-0.00255226
-0.000276347
-0.00229512
-0.000256803
-0.00205249
-0.000242303
-0.00180507
-0.000247086
-0.00152445
-0.000280286
-0.00117138
-0.000352742
-0.000687733
-0.000483311
-0.000689896
0.000146352
-0.00014648
0.000175982
-2.93813e-05
0.000238004
-6.17502e-05
0.00031199
-7.37384e-05
0.000388172
-7.59711e-05
0.000475093
-8.67471e-05
0.00051621
-4.09663e-05
0.000555147
-3.88036e-05
0.000587537
-3.22736e-05
0.000615838
-2.81916e-05
0.000645476
-2.95283e-05
0.000676712
-3.11211e-05
0.00067956
-2.73032e-06
0.000648307
3.13856e-05
0.000581999
6.64548e-05
0.000416338
0.000165819
0.000210176
0.000206327
-6.44776e-05
0.000274837
-6.46782e-05
-0.00190682
0.00439836
-0.00260613
0.00136593
-0.00290697
0.00058318
-0.00307545
0.000267335
-0.00307151
-7.94337e-05
-0.00288927
-0.000392885
-0.00263996
-0.000524084
-0.00241217
-0.000503794
-0.00221971
-0.000448919
-0.00205559
-0.000406088
-0.00190273
-0.000399608
-0.00173814
-0.000444537
-0.00153737
-0.000553161
-0.00128423
-0.000736094
-0.00100266
-0.000971104
6.00227e-05
-0.00106236
6.03237e-05
-1.74828e-05
-0.000131651
-4.21719e-05
-4.3546e-06
-0.000104794
1.20233e-06
-0.000152801
-2.54369e-05
-0.000191693
-3.68289e-05
-0.000254028
-2.42112e-05
-0.000150207
-0.000144613
-9.59457e-05
-9.28974e-05
-6.50332e-05
-6.3015e-05
-4.90086e-05
-4.40419e-05
-5.02144e-05
-2.81474e-05
-7.32418e-05
-7.9227e-06
-0.000108113
3.2301e-05
-0.00014221
6.56284e-05
-0.000155382
7.97842e-05
-0.000114527
0.000125152
-5.70238e-05
0.000149028
-4.88757e-06
0.000222921
-7.29815e-05
-0.00029093
0.00485046
-0.000959361
0.00203475
-0.00139894
0.00102315
-0.00197938
0.000848159
-0.00237783
0.000319389
-0.00234501
-0.000425347
-0.00219954
-0.000669196
-0.00206425
-0.000638735
-0.00195546
-0.000557372
-0.00188151
-0.000479698
-0.00183548
-0.000445294
-0.00180321
-0.000476464
-0.00177263
-0.000583383
-0.001745
-0.000763358
-0.00172947
-0.000986261
-0.00157592
-0.00121551
-0.00151519
-0.000736176
0.000597647
-0.000894332
0.000154193
-0.000941986
4.92385e-05
-0.000962115
-4.93429e-06
-0.000944927
-5.36537e-05
-0.000822699
-0.000146112
-0.000967013
-0.00105964
-0.0011224
-0.00116617
-0.00119402
-0.00120162
-0.00116897
-0.00110295
-0.00102274
-0.000629536
-0.000267732
-0.000291486
-0.000188725
7.2395e-05
-0.00014071
-9.35105e-06
0.00592141
-0.000890441
0.00593308
0.00202371
0.00423126
0.00272553
0.00232651
0.00275342
0.000409656
0.0022367
-0.00100503
0.000989724
-0.00150154
-0.000172326
-0.00156103
-0.000578892
-0.00155882
-0.000559237
-0.00157531
-0.000462869
-0.00162772
-0.000392538
-0.00171703
-0.000386802
-0.00184662
-0.000453434
-0.00202784
-0.000581759
-0.00226696
-0.000746757
-0.00257743
-0.00090463
-0.00319567
-0.000896549
-0.00289196
-0.000316078
-0.00231542
2.15119e-05
-0.00223461
7.37953e-05
-0.00226687
8.19332e-05
-0.00231988
4.85159e-05
-0.00236903
-4.0496e-06
-0.00246572
-4.89555e-05
-0.00242488
-4.05178e-05
-0.00237
-5.45589e-05
-0.00229682
-7.28537e-05
-0.0022074
-8.90949e-05
-0.00210061
-0.000106464
-0.0019726
-0.000127683
-0.0018163
-0.000155982
-0.00161687
-0.000199108
-0.00133709
-0.000279472
-0.00116525
-0.000439125
-0.000785693
-0.000567839
-0.000260558
-0.000665407
-0.000287973
0.00323541
-0.00406113
0.00478307
0.000476477
0.00440633
0.00310271
0.00311849
0.00404169
0.00168099
0.00367461
0.000265486
0.00240561
-0.00068093
0.000774434
-0.000990275
-0.000269192
-0.00109228
-0.000456884
-0.001172
-0.000382795
-0.00127573
-0.000288465
-0.00141164
-0.000250535
-0.00158295
-0.000281758
-0.00179241
-0.000371919
-0.00204244
-0.000496329
-0.00234893
-0.000597722
-0.00268995
-0.000555105
-0.0026855
-0.000320083
-0.0025544
-0.000109143
-0.0024614
-1.87581e-05
-0.00239523
1.62375e-05
-0.00235427
8.02694e-06
-0.00233396
-2.38694e-05
-0.00232592
-5.64969e-05
-0.00228832
-7.7624e-05
-0.00224191
-0.000100465
-0.00219055
-0.000123716
-0.00213319
-0.000145958
-0.00207052
-0.00016863
-0.00200382
-0.000193885
-0.00193444
-0.000224855
-0.00186492
-0.000268122
-0.00181011
-0.000333787
-0.00183381
-0.00041492
-0.00192507
-0.000476069
-0.00211857
-0.000471384
-0.00202033
-0.000385688
-0.001705
-0.000314973
-0.00138653
-0.000318113
-0.00140193
0.001984
-0.00598488
0.00362192
-0.001161
0.00362486
0.00310016
0.00268103
0.00498591
0.00159358
0.00476243
0.000676641
0.00332291
-6.66394e-05
0.00151806
-0.000473354
0.00013788
-0.000632383
-0.000297486
-0.000747234
-0.000267582
-0.000868251
-0.000167091
-0.00100694
-0.000111484
-0.00117053
-0.000117786
-0.00136474
-0.000177316
-0.00159261
-0.000268053
-0.0018471
-0.000342807
-0.0020674
-0.000334366
-0.00215058
-0.000236441
-0.00213066
-0.000128607
-0.00208389
-6.50478e-05
-0.00203074
-3.64231e-05
-0.00198484
-3.73795e-05
-0.00195104
-5.71716e-05
-0.00192398
-8.30469e-05
-0.00189293
-0.000108168
-0.00185851
-0.000134373
-0.00182106
-0.000160642
-0.00177988
-0.000186622
-0.00173498
-0.000213014
-0.0016872
-0.000241147
-0.00163825
-0.000273286
-0.00159228
-0.000313569
-0.00155974
-0.000365805
-0.00155108
-0.00042306
-0.00156162
-0.000465003
-0.00155748
-0.000474991
-0.00144533
-0.000497304
-0.00115241
-0.00060735
-0.000735981
-0.000734
-0.00215442
0.00109573
-0.00701678
0.00267985
-0.00274469
0.00275681
0.00302361
0.00174726
0.00599585
0.000944063
0.00556597
0.000498338
0.00376897
0.00022728
0.00178945
-4.75965e-05
0.000413134
-0.000219556
-0.000125121
-0.000339479
-0.000147264
-0.000439258
-6.69261e-05
-0.000534532
-1.58221e-05
-0.000641834
-1.00836e-05
-0.000775117
-4.36193e-05
-0.000940002
-0.000102739
-0.00112326
-0.000159106
-0.00128054
-0.000176623
-0.00136866
-0.00014786
-0.00139098
-0.000105799
-0.00137947
-7.60684e-05
-0.00135275
-6.26477e-05
-0.00132378
-6.5845e-05
-0.00129889
-8.15517e-05
-0.00127775
-0.000103677
-0.00125737
-0.00012802
-0.00123702
-0.000154206
-0.00121566
-0.00018147
-0.00119208
-0.000209673
-0.00116523
-0.000239332
-0.00113434
-0.000271512
-0.00109902
-0.000308077
-0.00106005
-0.000352005
-0.00101933
-0.000405988
-0.000973861
-0.000467998
-0.000909357
-0.000528974
-0.000801362
-0.000582452
-0.000642616
-0.000655514
-0.000418412
-0.000831017
-2.20791e-05
-0.00112979
-0.00219447
-0.000848637
-0.00610092
0.000761617
-0.00435448
0.00153855
0.00224711
0.000115504
0.00741928
-0.000115242
0.00579704
4.41061e-05
0.00360996
0.000223359
0.00161055
0.000213622
0.000423296
0.000113941
-2.49576e-05
5.33926e-05
-8.62361e-05
3.67814e-05
-4.98575e-05
3.65816e-05
-1.51746e-05
2.67853e-05
1.63843e-07
-1.14606e-05
-4.91335e-06
-8.87253e-05
-2.50058e-05
-0.000195339
-5.2014e-05
-0.000299484
-7.19933e-05
-0.000371586
-7.5265e-05
-0.000407062
-6.98244e-05
-0.00041732
-6.53057e-05
-0.000413261
-6.61963e-05
-0.000403714
-7.48752e-05
-0.000394248
-9.04974e-05
-0.000386748
-0.000110653
-0.000381395
-0.000132845
-0.000378253
-0.000156817
-0.000376564
-0.000182626
-0.000375117
-0.000210585
-0.000372524
-0.000241388
-0.000367293
-0.000276204
-0.000357906
-0.000316925
-0.000342936
-0.000366435
-0.000320059
-0.000428325
-0.000281795
-0.000505721
-0.000208739
-0.000601489
-6.42475e-05
-0.000726402
0.000197586
-0.000916804
0.000589472
-0.00122236
0.000991815
-0.00153159
-0.00132636
-0.00606909
-0.0104519
-0.00524116
-0.00296316
-0.00275494
0.00493343
-0.00135721
0.00439962
-0.00039514
0.00264825
0.000225739
0.000990103
0.000457009
0.000192577
0.000542653
-0.000109959
0.000643579
-0.000186527
0.000760654
-0.000166338
0.000867982
-0.000121941
0.000949886
-8.11982e-05
0.00099692
-5.14152e-05
0.000996903
-2.4459e-05
0.000956391
-1.09729e-05
0.000898811
-1.38865e-05
0.000845316
-2.12433e-05
0.00080488
-2.88608e-05
0.000777008
-3.69063e-05
0.000758351
-4.70098e-05
0.000745151
-6.11439e-05
0.000733747
-7.85606e-05
0.000721888
-9.82594e-05
0.000707223
-0.000117645
0.000688849
-0.000137905
0.000666957
-0.000160196
0.000642266
-0.000185355
0.000615764
-0.000214345
0.000588608
-0.000248506
0.000562037
-0.000289812
0.000537343
-0.000341197
0.00051635
-0.000406788
0.000503205
-0.00049203
0.000506922
-0.00060466
0.000540488
-0.000759421
0.000618791
-0.000994559
0.000790366
-0.00139339
0.00118072
-0.00192141
-0.000291471
-0.0083431
0.00303124
-0.00521521
0.00180592
-0.00209486
0.00127964
3.84669e-05
0.000515348
0.00104903
-1.98154e-05
0.00149654
-0.000254179
0.00173518
-0.000347852
0.00189434
-0.000344974
0.0020201
-0.000291411
0.0021241
-0.000225289
0.00220599
-0.000162476
0.00226391
-0.000108723
0.00228655
-4.65194e-05
0.00227939
-3.2262e-06
0.00225102
1.50451e-05
0.00221044
1.98929e-05
0.00216591
1.62258e-05
0.00212255
7.00808e-06
0.0020825
-6.41227e-06
0.00204504
-2.314e-05
0.00200817
-4.11413e-05
0.00197051
-6.00517e-05
0.00192921
-7.58006e-05
0.00188369
-9.18467e-05
0.00183378
-0.000109742
0.00177941
-0.000130445
0.0017206
-0.000154984
0.00165728
-0.000184651
0.00158923
-0.000221212
0.00151571
-0.000267133
0.0014352
-0.000325737
0.00134493
-0.000401207
0.00123941
-0.000498592
0.00110483
-0.000624297
0.000898823
-0.000788002
0.000501061
-0.000995086
-0.000331929
-0.00108789
-0.000656019
-0.00019879
0.00319323
0.00240337
-0.000795764
0.00336364
0.000319865
0.00379737
8.21881e-05
0.00406402
-0.000285849
0.00417152
-0.000361025
0.00415109
-0.000326748
0.00406883
-0.000262039
0.00396507
-0.000186984
0.0038528
-0.000112367
0.00373947
-4.84956e-05
0.00363201
-6.33239e-07
0.00355149
3.46181e-05
0.00349679
5.20741e-05
0.00345363
5.88028e-05
0.00341752
5.65851e-05
0.00338466
4.9668e-05
0.00335191
4.03323e-05
0.00331578
3.02905e-05
0.00327273
2.04677e-05
0.00322201
1.01405e-05
0.00316283
-3.18276e-07
0.00309756
-9.98513e-06
0.00302675
-2.04871e-05
0.00294974
-3.21784e-05
0.00286545
-4.56099e-05
0.00277243
-6.14212e-05
0.00266875
-8.04319e-05
0.00255181
-0.000103731
0.00241797
-0.000132744
0.00226207
-0.000169291
0.00207704
-0.000215636
0.00185349
-0.000274493
0.00157905
-0.000349313
0.0012406
-0.000449007
0.000846441
-0.000600387
0.000383646
-0.000624562
-0.000306472
0.00460277
0.00519975
0.00833055
0.00746991
0.00772061
0.00772807
0.00736167
0.00691433
0.00649577
0.00613706
0.00584963
0.00563455
0.00548285
0.00538006
0.00531482
0.0052696
0.00523347
0.00519711
0.00515545
0.00510577
0.00504717
0.00497974
0.00490287
0.00481638
0.00472108
0.0046161
0.00450021
0.00437162
0.0042279
0.0040658
0.003881
0.00366773
0.00341843
0.00312329
0.00276976
0.0023419
0.0018149
0.00113724
0.000433974
)
;

boundaryField
{
    floor
    {
        type            calculated;
        value           nonuniform List<scalar> 
29
(
0
0
0
0
0
0
0
0
0
0
0
0
0
0
0
0
0
0
0
0
4.30288e-07
3.64949e-06
9.04015e-06
1.84805e-05
2.50043e-06
4.10853e-07
2.96931e-06
7.28022e-06
1.27778e-05
)
;
    }
    ceiling
    {
        type            calculated;
        value           nonuniform List<scalar> 
43
(
0.000197528
0.000150393
6.30242e-05
6.54594e-05
6.97617e-05
7.53552e-05
8.11668e-05
8.69371e-05
9.2428e-05
9.7287e-05
0.00010107
0.000103328
0.000103828
0.000102767
0.000100481
9.79041e-05
9.55347e-05
9.35492e-05
9.19314e-05
9.06034e-05
8.94791e-05
8.84869e-05
8.75836e-05
8.67397e-05
8.58838e-05
8.50531e-05
8.42664e-05
8.35308e-05
8.28464e-05
8.22099e-05
8.16172e-05
8.10642e-05
8.05456e-05
8.00542e-05
7.95779e-05
7.90917e-05
7.85327e-05
7.78122e-05
7.92407e-05
8.46404e-05
3.61571e-05
2.88026e-05
3.74487e-05
)
;
    }
    sWall
    {
        type            calculated;
        value           uniform -2.70557e-05;
    }
    nWall
    {
        type            calculated;
        value           nonuniform List<scalar> 6(1.5768e-05 1.70658e-05 1.85206e-05 3.31358e-05 3.46125e-05 4.33837e-05);
    }
    sideWalls
    {
        type            empty;
        value           nonuniform 0();
    }
    glass1
    {
        type            calculated;
        value           nonuniform List<scalar> 9(-3.99466e-05 -0.000104789 -0.000160823 -0.000179798 -6.42867e-05 -5.98335e-05 -6.33878e-05 -6.67708e-05 -6.75402e-05);
    }
    glass2
    {
        type            calculated;
        value           nonuniform List<scalar> 2(0.000124271 0.000146389);
    }
    sun
    {
        type            calculated;
        value           uniform 0;
    }
    heatsource1
    {
        type            calculated;
        value           nonuniform List<scalar> 3(1.96194e-07 1.96274e-07 1.96459e-07);
    }
    heatsource2
    {
        type            calculated;
        value           nonuniform List<scalar> 4(4.96344e-08 4.99192e-08 0 0);
    }
    Table_master
    {
        type            calculated;
        value           nonuniform List<scalar> 9(-1.50456e-07 -1.50377e-07 -1.50292e-07 -1.50209e-07 -1.50122e-07 -1.50029e-07 -1.49924e-07 -1.49789e-07 -1.49585e-07);
    }
    Table_slave
    {
        type            calculated;
        value           nonuniform List<scalar> 9(1.47836e-07 1.47831e-07 1.47828e-07 1.47833e-07 1.47844e-07 1.47862e-07 1.47891e-07 1.47934e-07 1.47975e-07);
    }
    inlet
    {
        type            calculated;
        value           uniform 0.00234938;
    }
    outlet
    {
        type            calculated;
        value           nonuniform List<scalar> 2(-0.00477263 -0.000746766);
    }
}


// ************************************************************************* //
