// -*- C++ -*-
// File generated by PyFoam - sorry for the ugliness

FoamFile
{
 version 2.0;
 format ascii;
 class volScalarField;
 location "1700";
 object T;
}

dimensions [ 0 0 0 1 0 0 0 ];

internalField nonuniform List<scalar> 459
(
  303.31
  303.044
  303.033
  303.032
  303.03
  303.028
  303.025
  303.021
  303.014
  303.005
  302.993
  302.981
  302.971
  302.963
  302.96
  302.995
  302.984
  302.983
  302.985
  302.985
  302.986
  302.985
  302.985
  302.983
  302.982
  302.98
  302.978
  302.976
  302.974
  302.971
  302.969
  302.966
  302.964
  302.976
  303.491
  303.087
  303.066
  303.071
  303.077
  303.081
  303.082
  303.079
  303.069
  303.05
  303.026
  303.002
  302.981
  302.964
  302.951
  302.937
  302.908
  302.994
  302.982
  302.982
  302.983
  302.985
  302.985
  302.982
  302.978
  302.974
  302.97
  302.965
  302.96
  302.955
  302.95
  302.946
  302.942
  302.939
  302.937
  302.96
  303.679
  303.138
  303.1
  303.113
  303.13
  303.144
  303.153
  303.154
  303.139
  303.109
  303.068
  303.028
  302.995
  302.972
  302.96
  302.952
  302.941
  302.983
  302.984
  302.988
  302.994
  302.999
  303.002
  302.997
  302.991
  302.986
  302.98
  302.974
  302.968
  302.961
  302.955
  302.949
  302.945
  302.939
  302.934
  302.955
  303.867
  303.201
  303.134
  303.152
  303.182
  303.212
  303.235
  303.242
  303.222
  303.174
  303.111
  303.051
  303.006
  302.977
  302.964
  302.96
  302.961
  302.969
  302.977
  302.99
  303.003
  303.014
  303.024
  303.031
  303.039
  303.046
  303.052
  303.059
  303.064
  303.067
  303.069
  303.07
  303.068
  303.026
  302.985
  302.954
  302.957
  304.05
  303.28
  303.174
  303.185
  303.223
  303.269
  303.313
  303.329
  303.298
  303.229
  303.141
  303.063
  303.008
  302.976
  302.963
  302.964
  302.971
  302.982
  302.997
  303.013
  303.03
  303.046
  303.059
  303.069
  303.08
  303.09
  303.098
  303.105
  303.11
  303.111
  303.109
  303.104
  303.094
  303.066
  303.023
  302.979
  302.961
  303.041
  303.082
  303.091
  304.213
  303.383
  303.243
  303.229
  303.263
  303.318
  303.382
  303.394
  303.342
  303.251
  303.148
  303.059
  302.998
  302.966
  302.958
  302.966
  302.982
  303.002
  303.023
  303.045
  303.065
  303.083
  303.097
  303.109
  303.12
  303.129
  303.137
  303.142
  303.144
  303.144
  303.138
  303.129
  303.115
  303.092
  303.054
  303.009
  302.98
  303.004
  303.019
  303.053
  304.362
  303.547
  303.406
  303.368
  303.378
  303.418
  303.461
  303.435
  303.348
  303.229
  303.111
  303.019
  302.963
  302.943
  302.949
  302.972
  303.001
  303.032
  303.061
  303.086
  303.107
  303.124
  303.137
  303.148
  303.156
  303.163
  303.168
  303.171
  303.171
  303.167
  303.16
  303.148
  303.132
  303.111
  303.081
  303.043
  303.014
  303.014
  303.02
  303.047
  304.58
  303.97
  303.815
  303.715
  303.659
  303.64
  303.569
  303.438
  303.276
  303.121
  303.001
  302.928
  302.903
  302.914
  302.947
  302.992
  303.037
  303.077
  303.109
  303.132
  303.149
  303.162
  303.172
  303.179
  303.185
  303.189
  303.19
  303.19
  303.187
  303.183
  303.176
  303.165
  303.15
  303.131
  303.11
  303.085
  303.072
  303.081
  303.095
  303.216
  304.893
  304.607
  304.347
  304.115
  303.917
  303.727
  303.454
  303.179
  302.963
  302.832
  302.78
  302.789
  302.839
  302.907
  302.976
  303.046
  303.099
  303.133
  303.156
  303.172
  303.184
  303.192
  303.199
  303.203
  303.205
  303.206
  303.205
  303.203
  303.201
  303.198
  303.195
  303.194
  303.195
  303.2
  303.212
  303.232
  303.262
  303.292
  303.313
  303.367
  296.602
  298.749
  299.998
  300.559
  301.064
  301.528
  301.931
  302.261
  302.519
  302.718
  302.886
  303.008
  303.082
  303.13
  303.161
  303.181
  303.195
  303.204
  303.21
  303.214
  303.217
  303.219
  303.219
  303.219
  303.219
  303.219
  303.219
  303.22
  303.221
  303.223
  303.227
  303.234
  303.246
  303.264
  303.286
  303.307
  303.324
  303.345
  297.256
  299.111
  300.37
  301.174
  301.7
  302.095
  302.409
  302.652
  302.833
  302.963
  303.054
  303.118
  303.16
  303.186
  303.203
  303.214
  303.221
  303.225
  303.228
  303.229
  303.23
  303.23
  303.231
  303.231
  303.232
  303.232
  303.233
  303.234
  303.236
  303.238
  303.241
  303.247
  303.255
  303.268
  303.283
  303.299
  303.297
  303.327
  301.428
  299.692
  299.52
  301.205
  301.997
  302.391
  302.632
  302.801
  302.926
  303.019
  303.089
  303.139
  303.174
  303.199
  303.215
  303.224
  303.23
  303.234
  303.236
  303.237
  303.237
  303.237
  303.238
  303.238
  303.238
  303.238
  303.239
  303.239
  303.24
  303.241
  303.242
  303.244
  303.246
  303.249
  303.253
  303.264
  303.272
  303.277
  303.279
  303.317
)
;

boundaryField
{
  floor
  {
    type wallHeatTransfer;
    Tinf uniform 305.2;
    alphaWall uniform 0.24;
    value nonuniform List<scalar> 29
(
  303.18
  303.427
  303.365
  303.339
  303.344
  303.355
  303.369
  303.385
  303.403
  303.42
  303.437
  303.453
  303.468
  303.482
  303.495
  303.508
  303.522
  303.536
  303.538
  303.571
  303.571
  303.446
  303.391
  303.363
  303.18
  303.427
  303.398
  303.231
  303.163
)
;
  }
  ceiling
  {
    type wallHeatTransfer;
    Tinf uniform 303.2;
    alphaWall uniform 0.24;
    value nonuniform List<scalar> 43
(
  301.545
  299.921
  299.756
  301.327
  302.074
  302.445
  302.672
  302.83
  302.947
  303.034
  303.099
  303.145
  303.177
  303.199
  303.212
  303.22
  303.225
  303.228
  303.229
  303.23
  303.23
  303.231
  303.231
  303.231
  303.232
  303.232
  303.233
  303.234
  303.235
  303.236
  303.237
  303.238
  303.24
  303.243
  303.248
  303.258
  303.265
  303.27
  303.271
  303.304
  304.815
  304.551
  297.627
)
;
  }
  sWall
  {
    type wallHeatTransfer;
    Tinf uniform 315.2;
    alphaWall uniform 0.36;
    value uniform 302.747;
  }
  nWall
  {
    type wallHeatTransfer;
    Tinf uniform 307.2;
    alphaWall uniform 0.36;
    value nonuniform List<scalar> 6
(
  303.833
  303.775
  303.69
  303.89
  303.868
  303.923
)
;
  }
  sideWalls
  {
    type empty;
  }
  glass1
  {
    type wallHeatTransfer;
    Tinf uniform 315.2;
    alphaWall uniform 4.3;
    value nonuniform List<scalar> 9
(
  311.474
  310.805
  310.385
  310.067
  309.803
  309.567
  309.391
  309.464
  309.695
)
;
  }
  glass2
  {
    type wallHeatTransfer;
    Tinf uniform 307.2;
    alphaWall uniform 4.3;
    value nonuniform List<scalar> 2
(
  305.64
  305.761
)
;
  }
  sun
  {
    type wallHeatTransfer;
    Tinf uniform 305.2;
    alphaWall uniform 0.24;
    value nonuniform List<scalar> 14
(
  303.512
  303.26
  303.248
  303.239
  303.231
  303.224
  303.216
  303.208
  303.198
  303.188
  303.178
  303.171
  303.168
  303.171
)
;
  }
  heatsource1
  {
    type fixedGradient;
    gradient uniform 0;
  }
  heatsource2
  {
    type fixedGradient;
    gradient uniform 0;
  }
  Table_master
  {
    type zeroGradient;
  }
  Table_slave
  {
    type zeroGradient;
  }
  inlet
  {
    type fixedValue;
    value uniform 293.15;
  }
  outlet
  {
    type zeroGradient;
  }
} 	// ************************************************************************* //

