/*--------------------------------*- C++ -*----------------------------------*\
  =========                 |
  \\      /  F ield         | OpenFOAM: The Open Source CFD Toolbox
   \\    /   O peration     | Website:  https://openfoam.org
    \\  /    A nd           | Version:  6
     \\/     M anipulation  |
\*---------------------------------------------------------------------------*/
FoamFile
{
    version     2.0;
    format      ascii;
    class       surfaceScalarField;
    location    "200";
    object      phi;
}
// * * * * * * * * * * * * * * * * * * * * * * * * * * * * * * * * * * * * * //

dimensions      [1 0 -1 0 0 0 0];

internalField   nonuniform List<scalar> 
852
(
-0.00292114
0.00297761
-0.00393483
0.00101369
-0.00471423
0.000779406
-0.00533404
0.000619803
-0.00576587
0.000431833
-0.00598866
0.000222802
-0.0059812
-7.46088e-06
-0.00572267
-0.000258529
-0.00521526
-0.000507409
-0.00449859
-0.000716669
-0.00364289
-0.000855696
-0.00273206
-0.000910825
-0.00183609
-0.000895961
-0.000965169
-0.000870924
-0.000963733
-0.000633909
0.00063666
-0.000264837
-0.00036907
0.000345713
-0.000610549
0.000798577
-0.000452864
0.00108964
-0.000291059
0.00126511
-0.000175467
0.00135789
-9.27881e-05
0.00140343
-4.5537e-05
0.00142834
-2.49036e-05
0.00144246
-1.41196e-05
0.00144893
-6.47012e-06
0.0014486
3.27322e-07
0.00143936
9.24436e-06
0.00141259
2.67708e-05
0.00134581
6.67835e-05
0.00120164
0.000144178
0.000967835
0.000233806
0.000691053
0.000276788
0.000694813
-0.00208268
0.00521219
-0.00307204
0.00200306
-0.00387104
0.0015784
-0.00447726
0.00122603
-0.00489788
0.000852457
-0.005122
0.000446925
-0.00512534
-4.11973e-06
-0.00488838
-0.000495486
-0.00442279
-0.000972992
-0.003779
-0.00136046
-0.00303143
-0.00160326
-0.00226085
-0.00168141
-0.00154115
-0.00161566
-0.000971218
-0.00144086
-0.000780065
-0.00115488
-0.000172733
-0.000607382
-0.000172782
0.000461838
0.000182561
0.000868612
-0.000775843
0.00109372
-0.000835653
0.0012877
-0.000646846
0.00142889
-0.000432241
0.00150706
-0.000253639
0.00151706
-0.000102788
0.00151962
-4.8094e-05
0.00152296
-2.82502e-05
0.00152579
-1.69424e-05
0.00152762
-8.30387e-06
0.00152829
-3.36098e-07
0.00152685
1.06856e-05
0.00151972
3.39015e-05
0.00147796
0.000108545
0.00130159
0.000320551
0.000998161
0.000537238
0.000619587
0.000655368
0.00132393
-0.00145868
0.006903
-0.00231351
0.00285789
-0.00301694
0.00228184
-0.0035295
0.00173859
-0.00389185
0.00121481
-0.00409049
0.000645572
-0.0040842
-1.04142e-05
-0.00384015
-0.000739524
-0.00338664
-0.0014265
-0.00279147
-0.00195562
-0.00213108
-0.00226365
-0.00147648
-0.002336
-0.000882859
-0.00220928
-0.000412122
-0.00191159
-9.48978e-05
-0.0014721
0.000153752
-0.00085603
-1.90283e-05
0.00144939
-0.00125883
0.00165945
-0.000985904
0.00164093
-0.000817127
0.0016434
-0.000649321
0.00166461
-0.000453446
0.00166653
-0.000255558
0.0015639
0.00151596
0.00148786
0.00147107
0.00146292
0.00146274
0.00147358
0.00150764
0.00161634
0.00133341
0.000603478
0.00098903
0.000881624
0.000549659
0.00109474
0.00188804
-0.00102109
0.00822438
-0.00170177
0.00353857
-0.00215974
0.00273982
-0.0024883
0.00206714
-0.00272434
0.00145086
-0.00284474
0.000765976
-0.00277973
-7.54278e-05
-0.00249044
-0.0010288
-0.00204049
-0.00187645
-0.00151506
-0.00248104
-0.00098071
-0.00279799
-0.000486195
-0.00283051
-5.27413e-05
-0.00264273
0.000310078
-0.00227441
0.000625858
-0.00178788
0.000999794
-0.00122996
0.00170432
-0.000723553
0.00232508
-0.000613395
0.00189943
-0.000833174
0.001787
-0.000873468
0.0016982
-0.000728328
0.00162447
-0.000575589
0.00159223
-0.000421199
0.001597
-0.000260333
0.00171031
-0.00011346
0.0017913
-8.11425e-05
0.00186216
-7.10049e-05
0.00192104
-5.90284e-05
0.00195267
-3.17816e-05
0.00193377
1.87477e-05
0.00183797
9.56398e-05
0.00163241
0.000205409
0.00126284
0.000369424
0.00113082
0.000735495
0.00083731
0.00117514
0.000382637
0.00154942
0.00228959
-0.000718105
0.00930057
-0.00123899
0.00405946
-0.0013261
0.00282693
-0.00138105
0.0021221
-0.00141577
0.00148558
-0.00137595
0.000726162
-0.00116689
-0.000284489
-0.000802266
-0.00139342
-0.000382867
-0.00229585
1.67416e-05
-0.00288065
0.000355355
-0.0031366
0.000621889
-0.00309704
0.000822545
-0.00284338
0.000984108
-0.00243597
0.00113774
-0.00194151
0.00133361
-0.00142583
0.00159938
-0.000989324
0.00175533
-0.000769343
0.00166161
-0.00073945
0.0014964
-0.000708256
0.00136574
-0.000597668
0.00126466
-0.000474506
0.00120275
-0.000359284
0.00119259
-0.000250166
0.00124879
-0.000169661
0.00131083
-0.000143176
0.00137852
-0.000138699
0.00144712
-0.000127622
0.00150483
-8.94937e-05
0.00153074
-7.15661e-06
0.00150279
0.000123586
0.00140898
0.000299223
0.00125091
0.000527496
0.00111154
0.000874871
0.000960291
0.00132639
0.000625373
0.00188434
0.000524824
0.00239015
-0.000985559
0.00151019
-0.00144492
0.000459173
-0.00139758
-0.00062924
0.0103366
-0.000992249
0.00442247
-0.000573074
0.00240776
-0.000222959
0.00177199
3.91332e-05
0.00122349
0.000348826
0.000416471
0.000780791
-0.000716452
0.00119529
-0.00180792
0.0015057
-0.00260625
0.00168872
-0.00306367
0.00175544
-0.00320332
0.00173831
-0.0030799
0.00166219
-0.00276726
0.00156116
-0.00233493
0.00146873
-0.00184908
0.00141277
-0.00136987
0.00139091
-0.00096746
0.00133363
-0.000712052
0.00119013
-0.000595948
0.00100407
-0.000522192
0.000846593
-0.000440191
0.000733364
-0.000361273
0.000668743
-0.000294659
0.000658477
-0.000239896
0.000696343
-0.000207523
0.000758126
-0.000204955
0.000833801
-0.00021437
0.000918556
-0.000212373
0.00100616
-0.000177095
0.00108516
-8.6156e-05
0.00113624
7.25075e-05
0.00115338
0.00028209
0.00114664
0.000534236
0.0011657
0.000855811
0.00125935
0.00123274
0.00143973
0.00170396
0.00187461
0.00195528
0.00213129
0.00125352
0.00174376
0.000846717
0.000403171
-0.000693302
0.0114807
-0.000586461
0.00431563
0.000522172
0.00129913
0.00126764
0.00102652
0.00185171
0.000639429
0.00247353
-0.000205347
0.00304594
-0.00128887
0.00338683
-0.0021488
0.00348122
-0.00270064
0.00336591
-0.00294835
0.00309424
-0.00293164
0.0027264
-0.00271205
0.00231512
-0.00235598
0.00190657
-0.00192638
0.00153752
-0.00148003
0.00122831
-0.00106066
0.00098026
-0.000719406
0.000766343
-0.000498131
0.000555857
-0.000385458
0.000361663
-0.000327994
0.000209495
-0.000288018
0.000107407
-0.00025918
5.38219e-05
-0.000241069
4.65177e-05
-0.000232586
7.64015e-05
-0.000237402
0.00012815
-0.000256698
0.000193117
-0.000279332
0.000270834
-0.000290085
0.000365634
-0.000271891
0.000482321
-0.00020284
0.000609889
-5.50564e-05
0.000736335
0.000155647
0.000870815
0.000399758
0.00105377
0.00067286
0.001336
0.000950515
0.00177948
0.00126048
0.00244515
0.00128961
0.00298521
0.000713469
0.00301048
0.000821461
0.00347533
0.00256614
0.0094189
0.00325207
0.00362971
0.00360405
0.000947145
0.00415776
0.00047281
0.00485733
-6.01388e-05
0.00553045
-0.000878464
0.00584249
-0.00160091
0.00578027
-0.00208657
0.00540604
-0.00232641
0.0048052
-0.00234751
0.00406882
-0.00219526
0.00328182
-0.00192505
0.00250938
-0.00158354
0.0018001
-0.0012171
0.00118906
-0.000868977
0.000688292
-0.000559888
0.000303819
-0.000334929
1.82192e-05
-0.000212527
-0.000198387
-0.000168847
-0.000361727
-0.000164648
-0.000479356
-0.000170382
-0.00055755
-0.00018098
-0.000602951
-0.000195662
-0.000621138
-0.000214393
-0.000619836
-0.000238697
-0.000608835
-0.000267693
-0.000593133
-0.000295029
-0.000571177
-0.000312036
-0.000534252
-0.000308811
-0.000463193
-0.000273894
-0.000326834
-0.000191412
-0.000140664
-3.05204e-05
7.77389e-05
0.000181359
0.0003517
0.000398902
0.000693915
0.000608303
0.00114489
0.000809514
0.00163383
0.000800663
0.00183693
0.000510375
0.00108937
0.00156903
0.00481613
0.009972
0.0135936
0.0124101
0.00213071
0.0116582
0.00122465
0.0110263
0.000571801
0.0102275
-7.96801e-05
0.00915832
-0.000531695
0.00791697
-0.000845227
0.00659717
-0.0010066
0.00527005
-0.00102039
0.0039988
-0.000924002
0.00283757
-0.000763824
0.00181336
-0.000559316
0.000944257
-0.000348
0.000242949
-0.000167666
-0.000275021
-4.19134e-05
-0.000613647
3.70189e-06
-0.000826079
-8.86792e-08
-0.000971623
-2.32968e-05
-0.00108338
-5.28869e-05
-0.00117143
-8.23236e-05
-0.00124178
-0.000110622
-0.00129997
-0.000137465
-0.00135143
-0.000162924
-0.00140235
-0.000187771
-0.00146042
-0.000209619
-0.00153259
-0.000222847
-0.00162551
-0.000219109
-0.00174722
-0.000187093
-0.00190811
-0.000113002
-0.00211486
1.53456e-05
-0.00235276
0.000207385
-0.0026469
0.000475504
-0.00308357
0.000835571
-0.00375872
0.00128347
-0.00473813
0.00178893
-0.00613771
0.00220025
-0.00783296
0.00220564
-0.00734889
0.00108496
-0.00225422
0.00470684
0.00358158
0.00393706
0.00199444
0.00441886
9.00054e-05
0.00446255
-0.000123363
0.00409105
-0.000160196
0.00348951
-0.000243692
0.00275613
-0.000273211
0.00195925
-0.000223509
0.00115045
-0.000115204
0.000364524
2.21072e-05
-0.000333343
0.000138554
-0.000867654
0.000186315
-0.00122288
0.000187563
-0.00143379
0.000169
-0.00155951
0.000129432
-0.00164379
8.41959e-05
-0.00171065
4.35765e-05
-0.001774
1.04735e-05
-0.00183899
-1.73316e-05
-0.00190729
-4.23127e-05
-0.00198046
-6.42887e-05
-0.00206134
-8.20302e-05
-0.00215158
-9.75238e-05
-0.00225316
-0.000108036
-0.00236685
-0.000109149
-0.00249127
-9.46824e-05
-0.0026218
-5.65532e-05
-0.00275028
1.54845e-05
-0.00286423
0.000129299
-0.00295887
0.000302038
-0.00304348
0.000560116
-0.00312459
0.000916687
-0.00319969
0.00135858
-0.00322374
0.00181298
-0.00314319
0.00211971
-0.0027785
0.00184096
-0.00151731
-0.000176222
-0.00369867
-0.000577013
0.00422121
0.000310429
0.001107
4.91685e-05
0.000351266
-0.000211497
0.000137301
-0.00045246
8.07666e-05
-0.000767147
7.09958e-05
-0.00113432
9.39653e-05
-0.00149419
0.000136363
-0.0017917
0.000182305
-0.00198907
0.000219489
-0.00209102
0.000240507
-0.00213875
0.00023405
-0.00215581
0.000204626
-0.00215555
0.000168752
-0.00215813
0.000132018
-0.00217271
9.87891e-05
-0.00219985
7.07231e-05
-0.00223682
4.74496e-05
-0.00228318
2.90424e-05
-0.00233905
1.35621e-05
-0.0024028
-5.32567e-07
-0.00247255
-1.22683e-05
-0.00254787
-2.21964e-05
-0.00262641
-2.94828e-05
-0.00270352
-3.20367e-05
-0.00277159
-2.65974e-05
-0.00281917
-8.96524e-06
-0.00283267
2.89898e-05
-0.00280231
9.89474e-05
-0.00270669
0.000206428
-0.00251356
0.000366993
-0.0021963
0.000599437
-0.00173778
0.000900067
-0.00111248
0.00118769
-0.00014839
0.00115562
0.0011476
0.000544971
0.00157401
-0.000602616
-0.00204479
-0.00727851
-0.0101618
-0.00589764
-0.00476982
-0.0044063
-0.004261
-0.00417498
-0.00410077
-0.00400522
-0.00386863
-0.00368728
-0.00346984
-0.00323242
-0.00300246
-0.00280281
-0.00263976
-0.002514
-0.0024219
-0.00235817
-0.00231794
-0.00229627
-0.00229019
-0.00229825
-0.00231805
-0.00234774
-0.00238465
-0.002424
-0.00245778
-0.00247376
-0.00245158
-0.00235922
-0.00215915
-0.00179829
-0.00120475
-0.000310389
0.000871757
0.00202179
0.00256097
0.00195223
)
;

boundaryField
{
    floor
    {
        type            calculated;
        value           nonuniform List<scalar> 
29
(
0
0
0
0
0
0
0
0
0
0
0
0
0
0
0
0
0
0
0
0
-3.75114e-06
-9.51801e-06
-1.44437e-05
-1.89077e-05
-1.43375e-06
-2.74953e-06
-7.73613e-06
-7.99829e-06
-7.36593e-06
)
;
    }
    ceiling
    {
        type            calculated;
        value           nonuniform List<scalar> 
43
(
-4.56002e-05
-4.4266e-05
-4.29458e-05
-2.08214e-05
-1.22519e-05
-7.9908e-06
-5.2543e-06
-3.21004e-06
-1.58115e-06
-2.22644e-07
9.64515e-07
2.05395e-06
3.09431e-06
4.09159e-06
4.98148e-06
5.70939e-06
6.27123e-06
6.69279e-06
7.00391e-06
7.22894e-06
7.38579e-06
7.48743e-06
7.53881e-06
7.54017e-06
7.50452e-06
7.43344e-06
7.32843e-06
7.191e-06
7.0221e-06
6.82054e-06
6.59765e-06
6.36696e-06
6.13521e-06
5.91145e-06
5.71237e-06
5.55422e-06
5.5971e-06
5.80174e-06
6.13214e-06
7.27733e-06
1.11237e-05
8.05718e-06
-6.26204e-05
)
;
    }
    sWall
    {
        type            calculated;
        value           uniform -0.000274368;
    }
    nWall
    {
        type            calculated;
        value           nonuniform List<scalar> 6(-4.75398e-05 -5.6978e-05 -6.16719e-05 -7.28595e-05 -7.98583e-05 -9.98285e-05);
    }
    sideWalls
    {
        type            empty;
        value           nonuniform 0();
    }
    glass1
    {
        type            calculated;
        value           nonuniform List<scalar> 9(-5.64654e-05 -0.000151904 -0.000232124 -0.000300291 -0.000358084 -0.000406799 -0.000450823 -0.000504297 -0.000564213);
    }
    glass2
    {
        type            calculated;
        value           nonuniform List<scalar> 2(-0.000251421 -0.000278527);
    }
    sun
    {
        type            calculated;
        value           uniform 0;
    }
    heatsource1
    {
        type            calculated;
        value           nonuniform List<scalar> 3(2.04016e-07 2.03968e-07 2.03983e-07);
    }
    heatsource2
    {
        type            calculated;
        value           nonuniform List<scalar> 4(5.10784e-08 5.12106e-08 0 0);
    }
    Table_master
    {
        type            calculated;
        value           nonuniform List<scalar> 9(-1.53009e-07 -1.53082e-07 -1.53108e-07 -1.53125e-07 -1.53137e-07 -1.53145e-07 -1.53146e-07 -1.53139e-07 -1.53105e-07);
    }
    Table_slave
    {
        type            calculated;
        value           nonuniform List<scalar> 9(1.52896e-07 1.52916e-07 1.52895e-07 1.52876e-07 1.52867e-07 1.52871e-07 1.52883e-07 1.52923e-07 1.53002e-07);
    }
    inlet
    {
        type            calculated;
        value           uniform -0.00615771;
    }
    outlet
    {
        type            calculated;
        value           nonuniform List<scalar> 2(0.00759848 0.00292756);
    }
}


// ************************************************************************* //
