// -*- C++ -*-
// File generated by PyFoam - sorry for the ugliness

FoamFile
{
 version 2.0;
 format ascii;
 class volVectorField;
 location "330";
 object U;
}

dimensions [ 0 1 -1 0 0 0 0 ];

internalField nonuniform List<vector> 459
(
  (0.0149671 0.0694203 0)
  (-0.136177 0.0231483 0)
  (-0.161971 0.0146531 0)
  (-0.188051 0.00817789 0)
  (-0.204611 0.00123334 0)
  (-0.2101 -0.00622431 0)
  (-0.20234 -0.0142775 0)
  (-0.181596 -0.0227839 0)
  (-0.149191 -0.0302337 0)
  (-0.109094 -0.0350667 0)
  (-0.0669352 -0.0361883 0)
  (-0.0287532 -0.0326868 0)
  (0.00601552 -0.0191312 0)
  (0.0178199 -0.00297247 0)
  (0.0515087 0.0173055 0)
  (-0.11075 0.00743307 0)
  (0.0336052 -0.0023241 0)
  (0.0105735 -0.00898679 0)
  (0.0246431 -0.0127309 0)
  (0.0403977 -0.0120161 0)
  (0.0539112 -0.00932252 0)
  (0.06297 -0.00543586 0)
  (0.0676963 -0.00317554 0)
  (0.0694994 -0.0023468 0)
  (0.0700818 -0.00204448 0)
  (0.0702781 -0.001836 0)
  (0.0701761 -0.00159709 0)
  (0.0696049 -0.00122182 0)
  (0.0681911 -0.00047595 0)
  (0.0650901 0.00117858 0)
  (0.0586032 0.00465043 0)
  (0.0477461 0.00988405 0)
  (0.00106488 0.020125 0)
  (0.0919763 0.000190507 0)
  (0.143628 0.142029 0)
  (-0.124783 0.0612935 0)
  (-0.131818 0.0463495 0)
  (-0.158676 0.0333749 0)
  (-0.175508 0.0185136 0)
  (-0.181776 0.00141728 0)
  (-0.175132 -0.0179816 0)
  (-0.156313 -0.0374558 0)
  (-0.12726 -0.0532379 0)
  (-0.0922489 -0.0620613 0)
  (-0.0564527 -0.0623683 0)
  (-0.0244707 -0.0538781 0)
  (0.00268312 -0.0352067 0)
  (0.0204467 -0.0133331 0)
  (0.0383948 0.0109804 0)
  (0.0401386 0.0192195 0)
  (0.0288118 0.0274866 0)
  (-0.120927 0.0017098 0)
  (0.0292381 -0.0211274 0)
  (0.0289697 -0.0236751 0)
  (0.0405359 -0.0244621 0)
  (0.0526249 -0.0214304 0)
  (0.0623031 -0.0159636 0)
  (0.0672733 -0.00673489 0)
  (0.0684237 -0.00116484 0)
  (0.0683385 0.000987729 0)
  (0.0684371 0.00181896 0)
  (0.0687188 0.00233872 0)
  (0.0689252 0.00282832 0)
  (0.0689539 0.00351892 0)
  (0.0687598 0.00490815 0)
  (0.0677552 0.00814314 0)
  (0.0632534 0.016474 0)
  (0.0546803 0.0256005 0)
  (0.00846847 0.0373871 0)
  (0.139235 0.0232039 0)
  (0.263341 0.212665 0)
  (-0.133019 0.0959422 0)
  (-0.100633 0.0742211 0)
  (-0.126623 0.052076 0)
  (-0.142471 0.02763 0)
  (-0.148892 -0.000291204 0)
  (-0.142061 -0.0313262 0)
  (-0.123604 -0.0617134 0)
  (-0.0967283 -0.0847878 0)
  (-0.066158 -0.0958799 0)
  (-0.036517 -0.0937729 0)
  (-0.0107438 -0.0794539 0)
  (0.0109443 -0.0544602 0)
  (0.0263749 -0.0274663 0)
  (0.0379537 -0.00029627 0)
  (0.0420696 0.0217908 0)
  (0.0369629 0.0532686 0)
  (-0.0565247 -0.0189644 0)
  (0.0390809 -0.0363718 0)
  (0.051567 -0.0392349 0)
  (0.0576358 -0.0359809 0)
  (0.0639496 -0.0305622 0)
  (0.0696057 -0.0255521 0)
  (0.0715432 -0.0190409 0)
  (0.066026 -0.0123609 0)
  (0.0616074 -0.00886054 0)
  (0.0599991 -0.00695622 0)
  (0.0597093 -0.00574089 0)
  (0.0598449 -0.00483163 0)
  (0.0604583 -0.00390781 0)
  (0.0622717 -0.00245969 0)
  (0.0670101 0.00195238 0)
  (0.0676475 0.0217013 0)
  (0.0618889 0.0371586 0)
  (0.0140466 0.0540196 0)
  (0.16649 0.0534153 0)
  (0.374613 0.26972 0)
  (-0.155421 0.125569 0)
  (-0.0671516 0.0985523 0)
  (-0.0914342 0.0692116 0)
  (-0.104236 0.0374848 0)
  (-0.109035 -0.000405141 0)
  (-0.0991276 -0.0437019 0)
  (-0.0798653 -0.084678 0)
  (-0.0557713 -0.11348 0)
  (-0.0309899 -0.125245 0)
  (-0.00889749 -0.120133 0)
  (0.0102829 -0.100245 0)
  (0.0254621 -0.0722774 0)
  (0.0384155 -0.0413022 0)
  (0.0503153 -0.0106824 0)
  (0.0626367 0.0174101 0)
  (0.0785042 0.0449856 0)
  (0.106031 -0.0117597 0)
  (0.101462 -0.0234642 0)
  (0.0915852 -0.0350339 0)
  (0.0807075 -0.0387368 0)
  (0.0733132 -0.0360887 0)
  (0.0689648 -0.0308014 0)
  (0.0653981 -0.0239158 0)
  (0.0659922 -0.0143667 0)
  (0.0732594 -0.00977839 0)
  (0.0791429 -0.00733442 0)
  (0.082674 -0.0059049 0)
  (0.0850101 -0.00480122 0)
  (0.0864773 -0.00360677 0)
  (0.086182 -0.00190006 0)
  (0.0825555 0.000864381 0)
  (0.0731777 0.00531255 0)
  (0.0646183 0.0265942 0)
  (0.0652798 0.0453296 0)
  (0.024877 0.0664215 0)
  (0.182814 0.0983403 0)
  (0.475133 0.313526 0)
  (-0.186483 0.148284 0)
  (-0.032672 0.113402 0)
  (-0.0532273 0.079998 0)
  (-0.0606058 0.0441793 0)
  (-0.0595414 -0.00161423 0)
  (-0.0429804 -0.0572864 0)
  (-0.0235634 -0.105885 0)
  (-0.00477142 -0.13653 0)
  (0.0116696 -0.145966 0)
  (0.0239843 -0.136745 0)
  (0.0337617 -0.114412 0)
  (0.0418257 -0.0843542 0)
  (0.0491951 -0.0520975 0)
  (0.0572746 -0.0217389 0)
  (0.0679914 0.00341419 0)
  (0.0827601 0.0170484 0)
  (0.0947571 -0.000305026 0)
  (0.0934554 -0.0143498 0)
  (0.0841235 -0.0242707 0)
  (0.0740943 -0.0284668 0)
  (0.0655312 -0.0280332 0)
  (0.0587908 -0.0247274 0)
  (0.0538694 -0.0190509 0)
  (0.0524595 -0.0104806 0)
  (0.0544779 -0.00574216 0)
  (0.0569143 -0.00391807 0)
  (0.0590544 -0.00314643 0)
  (0.0612044 -0.002309 0)
  (0.0633385 -0.000632147 0)
  (0.0652048 0.00258854 0)
  (0.0657872 0.00787369 0)
  (0.0646595 0.0159592 0)
  (0.0638068 0.0302896 0)
  (0.0711606 0.0458921 0)
  (0.0584623 0.0611398 0)
  (0.133562 0.0959844 0)
  (0.125051 0.0769116 0)
  (0.109971 0.0562819 0)
  (-0.134506 0.058086 0)
  (0.55322 0.349187 0)
  (-0.220346 0.161978 0)
  (-0.00415905 0.112217 0)
  (-0.013399 0.0828865 0)
  (-0.0132619 0.047735 0)
  (0.00324318 -0.00974278 0)
  (0.026291 -0.0755581 0)
  (0.0422926 -0.12363 0)
  (0.052456 -0.150016 0)
  (0.0574638 -0.155397 0)
  (0.0586023 -0.143288 0)
  (0.0574585 -0.118837 0)
  (0.0555281 -0.0879367 0)
  (0.0542034 -0.0560334 0)
  (0.0548714 -0.0276093 0)
  (0.0588439 -0.0063136 0)
  (0.0664267 0.00417333 0)
  (0.0707908 -0.00121445 0)
  (0.068386 -0.0103784 0)
  (0.0612578 -0.0170618 0)
  (0.0529047 -0.0203108 0)
  (0.0449392 -0.0205782 0)
  (0.038103 -0.0186278 0)
  (0.0329963 -0.0149046 0)
  (0.0305272 -0.0100768 0)
  (0.0306738 -0.0073062 0)
  (0.0320958 -0.00641142 0)
  (0.0341405 -0.00618356 0)
  (0.0367066 -0.00571044 0)
  (0.0397549 -0.00422799 0)
  (0.0433093 -0.000803246 0)
  (0.0474433 0.00534768 0)
  (0.051194 0.0142465 0)
  (0.0555652 0.0259964 0)
  (0.0643966 0.0379507 0)
  (0.0648815 0.0441388 0)
  (0.0902886 0.0606743 0)
  (0.0885679 0.0495378 0)
  (0.104767 0.0490081 0)
  (-0.138103 0.086107 0)
  (0.602949 0.380389 0)
  (-0.240635 0.148503 0)
  (0.0206297 0.0743754 0)
  (0.0355275 0.064661 0)
  (0.0476488 0.03222 0)
  (0.0806293 -0.0336831 0)
  (0.103397 -0.0940755 0)
  (0.113022 -0.13439 0)
  (0.112113 -0.153261 0)
  (0.103561 -0.152856 0)
  (0.0904587 -0.137133 0)
  (0.075572 -0.111111 0)
  (0.0612945 -0.0805683 0)
  (0.049478 -0.0504894 0)
  (0.041537 -0.0251405 0)
  (0.0381824 -0.00736141 0)
  (0.0387731 0.00119 0)
  (0.0389638 -0.000201976 0)
  (0.0364092 -0.00558807 0)
  (0.0309693 -0.0102834 0)
  (0.0242321 -0.0129771 0)
  (0.0173574 -0.0137117 0)
  (0.0111951 -0.0129332 0)
  (0.00651486 -0.0111367 0)
  (0.00405465 -0.00905302 0)
  (0.00378519 -0.00812654 0)
  (0.00486544 -0.00828898 0)
  (0.00671116 -0.00878666 0)
  (0.00913683 -0.0089607 0)
  (0.0122005 -0.00821698 0)
  (0.016175 -0.00575716 0)
  (0.022023 -0.000445446 0)
  (0.0296237 0.00807117 0)
  (0.0376721 0.0181918 0)
  (0.0475026 0.0279708 0)
  (0.0533868 0.0338376 0)
  (0.0660696 0.0459353 0)
  (0.0712058 0.0525491 0)
  (0.115232 0.0707778 0)
  (-0.110767 0.1393 0)
  (0.694472 0.380894 0)
  (-0.0617511 0.120992 0)
  (0.0848759 0.00229788 0)
  (0.134224 -0.0229908 0)
  (0.157818 -0.051486 0)
  (0.185522 -0.0851791 0)
  (0.195637 -0.115346 0)
  (0.188588 -0.134947 0)
  (0.16853 -0.140786 0)
  (0.140491 -0.133133 0)
  (0.109421 -0.114568 0)
  (0.0789187 -0.0887376 0)
  (0.0518848 -0.0607828 0)
  (0.030307 -0.0348971 0)
  (0.0157164 -0.0149134 0)
  (0.00789215 -0.00235632 0)
  (0.00511809 0.00292857 0)
  (0.00393228 0.00193033 0)
  (0.00169387 -0.00158297 0)
  (-0.00260099 -0.00479764 0)
  (-0.00801336 -0.00681323 0)
  (-0.013658 -0.00774356 0)
  (-0.0187289 -0.00798633 0)
  (-0.0225438 -0.0079825 0)
  (-0.0246618 -0.0081424 0)
  (-0.0252574 -0.00888085 0)
  (-0.0249118 -0.0100463 0)
  (-0.0240779 -0.0112373 0)
  (-0.0229778 -0.0121001 0)
  (-0.0216196 -0.0123648 0)
  (-0.019715 -0.0117413 0)
  (-0.0164658 -0.009714 0)
  (-0.00976187 -0.00529295 0)
  (0.0019074 0.0017445 0)
  (0.012345 0.00840573 0)
  (0.0196805 0.0118451 0)
  (0.02947 0.0178068 0)
  (0.0376098 0.0220674 0)
  (0.113888 0.0754535 0)
  (-0.359608 0.20542 0)
  (0.818106 0.369935 0)
  (0.392922 0.257352 0)
  (0.400986 0.185724 0)
  (0.40888 0.112666 0)
  (0.39029 0.0526122 0)
  (0.350388 -0.00609739 0)
  (0.303586 -0.0538916 0)
  (0.252991 -0.0832298 0)
  (0.199296 -0.0934959 0)
  (0.145843 -0.0884913 0)
  (0.0966319 -0.0732023 0)
  (0.0534851 -0.0517698 0)
  (0.018782 -0.0299705 0)
  (-0.00682944 -0.0112604 0)
  (-0.0209985 -0.000152592 0)
  (-0.0279454 0.00513461 0)
  (-0.0301197 0.00645382 0)
  (-0.0314584 0.00524131 0)
  (-0.0335934 0.00310974 0)
  (-0.0366092 0.00113041 0)
  (-0.0404465 -0.000359779 0)
  (-0.0445846 -0.00146917 0)
  (-0.048387 -0.00247523 0)
  (-0.0514608 -0.00357 0)
  (-0.0536517 -0.00483483 0)
  (-0.0551902 -0.00632263 0)
  (-0.0564467 -0.00790996 0)
  (-0.0577526 -0.00938363 0)
  (-0.0594536 -0.0105352 0)
  (-0.0620161 -0.0111266 0)
  (-0.0660619 -0.0106818 0)
  (-0.0722352 -0.00817732 0)
  (-0.0811502 -0.00177459 0)
  (-0.0919034 0.00905837 0)
  (-0.105598 0.0242275 0)
  (-0.128398 0.0450168 0)
  (-0.159604 0.0728582 0)
  (-0.199411 0.104761 0)
  (-0.263953 0.133841 0)
  (-0.519507 0.149243 0)
  (0.13032 0.0227502 0)
  (0.205031 0.0281677 0)
  (0.223141 -0.00803889 0)
  (0.20604 -0.0365429 0)
  (0.179589 -0.0509537 0)
  (0.145418 -0.0553665 0)
  (0.103909 -0.0517821 0)
  (0.0604635 -0.0422154 0)
  (0.0201309 -0.0282162 0)
  (-0.0164948 -0.0102521 0)
  (-0.0394098 0.00174664 0)
  (-0.0531106 0.00872692 0)
  (-0.0593588 0.0119371 0)
  (-0.06168 0.0131321 0)
  (-0.0624079 0.0132064 0)
  (-0.0630213 0.0125978 0)
  (-0.0642017 0.0117536 0)
  (-0.065972 0.0110388 0)
  (-0.068101 0.0105334 0)
  (-0.0703047 0.0100785 0)
  (-0.0725997 0.00952538 0)
  (-0.0750815 0.00862877 0)
  (-0.0778192 0.0079004 0)
  (-0.08095 0.00759676 0)
  (-0.0845615 0.00800957 0)
  (-0.0886356 0.00950586 0)
  (-0.0930885 0.0124034 0)
  (-0.0978547 0.0167187 0)
  (-0.103053 0.021868 0)
  (-0.108906 0.026092 0)
  (-0.114505 0.0306448 0)
  (-0.119462 0.0373434 0)
  (-0.123586 0.0482416 0)
  (-0.12649 0.0647406 0)
  (-0.125664 0.0856691 0)
  (-0.117254 0.0981132 0)
  (-0.104484 0.0616477 0)
  (-0.16567 -0.16599 0)
  (0.0217104 0.130464 0)
  (0.0528466 0.0551013 0)
  (0.0468075 -0.0120763 0)
  (0.0417576 -0.0468021 0)
  (0.0304539 -0.0555925 0)
  (0.0085282 -0.0564425 0)
  (-0.018167 -0.0559304 0)
  (-0.042495 -0.0552604 0)
  (-0.0628628 -0.0541831 0)
  (-0.0761233 -0.0550161 0)
  (-0.0824928 -0.0574647 0)
  (-0.085282 -0.0598747 0)
  (-0.0858729 -0.0623764 0)
  (-0.0853042 -0.0646249 0)
  (-0.0842948 -0.0667814 0)
  (-0.0833399 -0.0691762 0)
  (-0.0827258 -0.0718635 0)
  (-0.0825166 -0.0746855 0)
  (-0.0826631 -0.0775202 0)
  (-0.0831235 -0.0803513 0)
  (-0.0839346 -0.0831618 0)
  (-0.0852706 -0.0858686 0)
  (-0.0873766 -0.0889064 0)
  (-0.0903534 -0.0923939 0)
  (-0.0942708 -0.0964835 0)
  (-0.099076 -0.100934 0)
  (-0.104465 -0.105061 0)
  (-0.109828 -0.10786 0)
  (-0.114375 -0.107611 0)
  (-0.117493 -0.101685 0)
  (-0.11848 -0.0898179 0)
  (-0.11566 -0.0716106 0)
  (-0.106664 -0.0475224 0)
  (-0.0889841 -0.0193329 0)
  (-0.061793 0.00791881 0)
  (-0.0278517 0.019031 0)
  (0.0818416 -0.080039 0)
  (-0.120838 -0.138483 0)
  (-0.0300379 -0.248062 0)
  (-0.301429 -0.0472849 0)
  (-0.218231 0.175342 0)
  (-0.167576 0.164565 0)
  (-0.129514 0.174199 0)
  (-0.116942 0.189914 0)
  (-0.1168 0.191579 0)
  (-0.122603 0.192659 0)
  (-0.12823 0.197293 0)
  (-0.130581 0.20406 0)
  (-0.129256 0.212063 0)
  (-0.125524 0.222086 0)
  (-0.120528 0.23112 0)
  (-0.115409 0.238044 0)
  (-0.110702 0.2433 0)
  (-0.106635 0.247293 0)
  (-0.103215 0.250616 0)
  (-0.100452 0.253747 0)
  (-0.0983887 0.256819 0)
  (-0.0970379 0.259766 0)
  (-0.0963848 0.262529 0)
  (-0.0964198 0.265133 0)
  (-0.0971207 0.26763 0)
  (-0.0983815 0.270098 0)
  (-0.100088 0.27315 0)
  (-0.102105 0.277103 0)
  (-0.104252 0.282393 0)
  (-0.106297 0.288913 0)
  (-0.10795 0.296007 0)
  (-0.108893 0.302752 0)
  (-0.108694 0.307538 0)
  (-0.106512 0.308281 0)
  (-0.101045 0.305305 0)
  (-0.0905569 0.299185 0)
  (-0.0734049 0.291769 0)
  (-0.049788 0.286347 0)
  (-0.0221064 0.287347 0)
  (0.0169854 0.295717 0)
  (0.122331 0.355367 0)
  (-0.276263 0.360735 0)
)
;

boundaryField
{
  floor
  {
    type noSlip;
  }
  ceiling
  {
    type noSlip;
  }
  sWall
  {
    type noSlip;
  }
  nWall
  {
    type noSlip;
  }
  sideWalls
  {
    type empty;
  }
  glass1
  {
    type noSlip;
  }
  glass2
  {
    type noSlip;
  }
  sun
  {
    type noSlip;
  }
  heatsource1
  {
    type noSlip;
  }
  heatsource2
  {
    type noSlip;
  }
  Table_master
  {
    type noSlip;
  }
  Table_slave
  {
    type noSlip;
  }
  inlet
  {
    type fixedValue;
    value uniform (0.277164 -0.114805 0);
  }
  outlet
  {
    type zeroGradient;
  }
} 	// ************************************************************************* //

