/*--------------------------------*- C++ -*----------------------------------*\
  =========                 |
  \\      /  F ield         | OpenFOAM: The Open Source CFD Toolbox
   \\    /   O peration     | Website:  https://openfoam.org
    \\  /    A nd           | Version:  6
     \\/     M anipulation  |
\*---------------------------------------------------------------------------*/
FoamFile
{
    version     2.0;
    format      ascii;
    class       volScalarField;
    location    "1300";
    object      nut;
}
// * * * * * * * * * * * * * * * * * * * * * * * * * * * * * * * * * * * * * //

dimensions      [0 2 -1 0 0 0 0];

internalField   nonuniform List<scalar> 
459
(
0.002406
0.00235432
0.00228347
0.00221667
0.00215908
0.00210861
0.00206339
0.00202137
0.00198041
0.00193852
0.00189356
0.00184274
0.0017815
0.00170019
0.0015912
0.000328928
0.000387205
0.000392677
0.00036756
0.000331558
0.00029927
0.000255124
0.000203276
0.0001723
0.000152786
0.000139292
0.000132226
0.000134902
0.000141452
0.000152419
0.000248705
0.000323039
0.000338015
0.000298266
0.00270997
0.00302621
0.00306518
0.00297862
0.00292457
0.00291145
0.00292195
0.00292254
0.00289828
0.00284648
0.00276543
0.00265162
0.00249312
0.00225258
0.00191583
0.00151847
0.00133797
0.000480802
0.000861216
0.001011
0.0011068
0.00103523
0.000782431
0.000509362
0.000376078
0.000338152
0.000333171
0.000332814
0.000331205
0.000311162
0.000251896
0.000200893
0.000445497
0.000749498
0.00086917
0.000392537
0.00287516
0.00335784
0.00309778
0.00280127
0.002708
0.00273863
0.00282717
0.00292531
0.00300398
0.00304296
0.00302841
0.0029507
0.00280021
0.00255376
0.00223157
0.00192667
0.00134793
0.000633027
0.00174138
0.0016041
0.00136826
0.00108808
0.000813641
0.000307241
0.000243201
0.000216516
0.000200986
0.000190194
0.000181353
0.000173455
0.000166424
0.000220682
0.000837357
0.00112581
0.000909668
0.000448607
0.00298775
0.00360001
0.00275213
0.00228301
0.00236393
0.00265024
0.00296833
0.00318403
0.00328976
0.00329986
0.00324301
0.00313295
0.00296593
0.00271745
0.00240825
0.00211486
0.00163471
0.00099286
0.00173418
0.00159689
0.00138525
0.00116727
0.000987729
0.000842934
0.000703738
0.00073871
0.000775061
0.000811501
0.00084721
0.000880661
0.00091061
0.000917915
0.000904597
0.00126096
0.00145326
0.00163085
0.000735222
0.00308004
0.00364409
0.00212198
0.00199637
0.00300393
0.00389723
0.00445996
0.00457341
0.00423453
0.00382946
0.00350372
0.00325538
0.00302998
0.00276179
0.00245664
0.0021719
0.00177146
0.00140793
0.00204959
0.00247299
0.00258106
0.00269889
0.00284648
0.00297738
0.00312077
0.00329846
0.00347443
0.0036378
0.00377087
0.00385043
0.00386286
0.00378511
0.00363482
0.00347283
0.00311861
0.0026793
0.00196302
0.000854214
0.000768441
0.000845068
0.00317019
0.0034869
0.00156677
0.00271696
0.0044564
0.00495677
0.00515195
0.00509452
0.00450354
0.00392795
0.00350829
0.00321321
0.00296377
0.00269117
0.00240703
0.00214551
0.00186065
0.00176366
0.00254247
0.00316061
0.00340611
0.00360841
0.00380514
0.00397685
0.00413273
0.00427948
0.00441398
0.00452481
0.00458792
0.00457336
0.00446605
0.00428332
0.00407706
0.00391423
0.00382515
0.00363438
0.00327299
0.00256718
0.0019455
0.000939483
0.003276
0.00318266
0.00149004
0.00253267
0.00426386
0.00448296
0.00444117
0.00429943
0.00400287
0.00363383
0.00331016
0.0030495
0.00281552
0.00257113
0.0023291
0.00212011
0.00195858
0.00210938
0.00296746
0.00360746
0.00389171
0.00411561
0.00431201
0.00447018
0.00460545
0.00472789
0.00483994
0.00492855
0.004959
0.00488409
0.00467518
0.00436047
0.00403131
0.00379881
0.00372977
0.00375536
0.00365485
0.00316415
0.00273357
0.00110116
0.00342941
0.00321579
0.00182961
0.00168778
0.00331701
0.00358636
0.00354705
0.00349489
0.0034031
0.00323294
0.00303988
0.00285194
0.00266559
0.00247052
0.00228068
0.00213525
0.00208778
0.00245769
0.0033397
0.00391206
0.0042086
0.00444624
0.00464002
0.00479268
0.00492926
0.0050653
0.00521007
0.00534939
0.00543337
0.00538186
0.00512302
0.00465495
0.00406961
0.00349294
0.00299938
0.00259358
0.00224624
0.00196417
0.00174239
0.00112702
0.00370518
0.00412029
0.00314181
0.00161365
0.00239229
0.00297674
0.00301663
0.00301873
0.00299835
0.00293824
0.00284485
0.00273323
0.00260701
0.00246501
0.00231977
0.00221956
0.00225489
0.00280086
0.00362901
0.00416585
0.00450992
0.00473216
0.00489167
0.0050107
0.00511572
0.00524361
0.00543011
0.00567692
0.00593656
0.00610508
0.00605578
0.00571818
0.00514828
0.00449006
0.0038361
0.00325744
0.00280928
0.00254009
0.00242028
0.00147165
0.00490614
0.00218102
0.00246741
0.00278643
0.00287285
0.00292352
0.00293984
0.00292362
0.00288967
0.00283858
0.00276611
0.00266593
0.00254356
0.00245509
0.00253892
0.00314013
0.00382679
0.00445032
0.00482555
0.00504266
0.00516417
0.00522178
0.00524643
0.00527565
0.00535678
0.00554108
0.00586357
0.00630158
0.00674408
0.00703075
0.00710735
0.00699564
0.00676977
0.00644055
0.00593671
0.00525496
0.00460951
0.0015231
0.00272569
0.0023029
0.00281972
0.00265557
0.00266163
0.00269859
0.00272579
0.00272425
0.00274287
0.00276508
0.00277406
0.00274953
0.00267666
0.00260383
0.00258982
0.00276704
0.00324783
0.00386493
0.00439187
0.00477287
0.00500462
0.00511758
0.0051562
0.00516735
0.00519558
0.00528111
0.00545507
0.00572352
0.00602781
0.00630205
0.00648799
0.00653421
0.00642145
0.00613679
0.00558655
0.00469533
0.00424475
0.0014258
0.00157333
0.00153378
0.00166733
0.00112255
0.0011462
0.00115975
0.00117552
0.0011888
0.00120102
0.0012132
0.00122425
0.00123445
0.0012429
0.00124764
0.00124486
0.00122151
0.00116964
0.0011204
0.00109178
0.00107724
0.0010824
0.00110137
0.00112519
0.00114689
0.00116308
0.00117361
0.00118052
0.00118701
0.00119653
0.00121177
0.00123747
0.00127329
0.00131383
0.00135256
0.00137972
0.00137739
0.00133782
0.00127848
0.00123991
0.0011126
)
;

boundaryField
{
    floor
    {
        type            nutkWallFunction;
        Cmu             0.09;
        kappa           0.41;
        E               9.8;
        value           nonuniform List<scalar> 
29
(
0.000188444
3.72884e-05
4.50644e-05
4.57886e-05
4.24691e-05
3.7655e-05
3.3278e-05
2.7195e-05
1.98566e-05
1.53472e-05
1.24483e-05
1.04117e-05
9.33101e-06
9.73474e-06
1.07313e-05
1.2381e-05
2.62586e-05
3.64808e-05
3.85104e-05
3.313e-05
3.31299e-05
4.5768e-05
5.30925e-05
8.9022e-05
0.000188445
3.72883e-05
5.72438e-05
7.64606e-05
0.000119897
)
;
    }
    ceiling
    {
        type            nutkWallFunction;
        Cmu             0.09;
        kappa           0.41;
        E               9.8;
        value           nonuniform List<scalar> 
43
(
0.000186492
0.000182037
0.000196917
0.000135077
0.000137823
0.000139394
0.000141219
0.000142754
0.000144164
0.000145568
0.000146841
0.000148013
0.000148984
0.000149528
0.000149207
0.00014652
0.000140532
0.00013482
0.000131487
0.00012979
0.000130389
0.000132599
0.000135368
0.000137884
0.000139758
0.000140976
0.000141775
0.000142525
0.000143624
0.000145381
0.000148338
0.000152446
0.000157081
0.000161494
0.000164585
0.000164326
0.000159824
0.000153046
0.00014862
0.000133905
0.000413065
0.000455279
0.000311328
)
;
    }
    sWall
    {
        type            nutkWallFunction;
        Cmu             0.09;
        kappa           0.41;
        E               9.8;
        value           uniform 0.000186533;
    }
    nWall
    {
        type            nutkWallFunction;
        Cmu             0.09;
        kappa           0.41;
        E               9.8;
        value           nonuniform List<scalar> 6(0.000102314 0.00011356 0.000132566 0.000180762 0.000169808 0.000133913);
    }
    sideWalls
    {
        type            empty;
    }
    glass1
    {
        type            nutkWallFunction;
        Cmu             0.09;
        kappa           0.41;
        E               9.8;
        value           nonuniform List<scalar> 9(0.000277738 0.000310083 0.000327496 0.000339303 0.000348946 0.000358336 0.00036932 0.000385184 0.000413524);
    }
    glass2
    {
        type            nutkWallFunction;
        Cmu             0.09;
        kappa           0.41;
        E               9.8;
        value           nonuniform List<scalar> 2(0.000135571 0.000174999);
    }
    sun
    {
        type            nutkWallFunction;
        Cmu             0.09;
        kappa           0.41;
        E               9.8;
        value           nonuniform List<scalar> 
14
(
0.000277434
0.000271891
0.000264279
0.000257081
0.000250858
0.00024539
0.000240479
0.000235905
0.000231437
0.000226857
0.00022193
0.000216344
0.000209593
0.000200589
)
;
    }
    heatsource1
    {
        type            nutkWallFunction;
        Cmu             0.09;
        kappa           0.41;
        E               9.8;
        value           nonuniform List<scalar> 3(0.000103385 9.3049e-05 0.000102312);
    }
    heatsource2
    {
        type            nutkWallFunction;
        Cmu             0.09;
        kappa           0.41;
        E               9.8;
        value           nonuniform List<scalar> 4(0.000180289 0.000159861 0.000159861 0.000160996);
    }
    Table_master
    {
        type            nutkWallFunction;
        Cmu             0.09;
        kappa           0.41;
        E               9.8;
        value           nonuniform List<scalar> 9(3.43699e-05 2.55259e-05 2.17528e-05 1.95282e-05 1.79686e-05 1.66821e-05 1.55255e-05 1.44895e-05 2.22948e-05);
    }
    Table_slave
    {
        type            nutkWallFunction;
        Cmu             0.09;
        kappa           0.41;
        E               9.8;
        value           nonuniform List<scalar> 9(8.51812e-05 8.94574e-05 9.38777e-05 9.82849e-05 0.000102582 0.000106588 0.000110162 0.000111028 0.000109439);
    }
    inlet
    {
        type            calculated;
        value           uniform 3.3541e-05;
    }
    outlet
    {
        type            calculated;
        value           nonuniform List<scalar> 2(0.00157333 0.00153378);
    }
}


// ************************************************************************* //
