/*--------------------------------*- C++ -*----------------------------------*\
  =========                 |
  \\      /  F ield         | OpenFOAM: The Open Source CFD Toolbox
   \\    /   O peration     | Website:  https://openfoam.org
    \\  /    A nd           | Version:  6
     \\/     M anipulation  |
\*---------------------------------------------------------------------------*/
FoamFile
{
    version     2.0;
    format      ascii;
    class       surfaceScalarField;
    location    "1300";
    object      phi;
}
// * * * * * * * * * * * * * * * * * * * * * * * * * * * * * * * * * * * * * //

dimensions      [1 0 -1 0 0 0 0];

internalField   nonuniform List<scalar> 
852
(
0.00459731
-0.00456458
0.00918226
-0.00458484
0.0116911
-0.0025087
0.0129996
-0.00130841
0.0137686
-0.000768928
0.0141805
-0.000411708
0.0142765
-9.59449e-05
0.0140905
0.000186172
0.0136395
0.000451098
0.0129142
0.000725377
0.011879
0.00103536
0.0104589
0.00142016
0.00848963
0.00196936
0.00551241
0.00297731
0.00551204
-0.000255619
0.000258099
-8.09791e-05
-0.000174602
0.000148684
-0.000229628
0.000262461
-0.000113749
0.000248511
1.39757e-05
0.000105256
0.000143279
-0.000120559
0.00022582
-0.000283112
0.000162533
-0.000376862
9.3726e-05
-0.000437627
6.07378e-05
-0.000477129
3.9474e-05
-0.000477845
7.01917e-07
-0.000411284
-6.65561e-05
-0.000250545
-0.000160721
1.83623e-05
-0.00026888
0.000231758
-0.000213329
0.000464619
-0.000232805
0.000557839
-9.31701e-05
0.000560906
0.00541957
-0.00989107
0.00817543
-0.00734058
0.00965234
-0.00398549
0.0105604
-0.0022163
0.0111413
-0.00134975
0.0114701
-0.000740405
0.0115767
-0.000202442
0.0114616
0.00030139
0.0111191
0.000793719
0.0105374
0.00130718
0.00970252
0.00187037
0.00861054
0.00251226
0.00730968
0.00327031
0.00613096
0.00415612
0.00655787
0.0050852
0.00260631
0.00395157
0.00260634
0.000673515
-0.000409762
0.000559378
-6.04266e-05
0.00029179
3.79935e-05
0.000163172
1.489e-05
0.000134331
4.28288e-05
6.93618e-05
0.000208261
1.01301e-05
0.000285064
1.5331e-05
0.000157338
2.48806e-05
8.41798e-05
3.38212e-05
5.18003e-05
4.24343e-05
3.08636e-05
4.33962e-05
-2.56136e-07
3.3556e-05
-5.67085e-05
3.10013e-05
-0.000158153
7.66875e-05
-0.000314532
0.000186568
-0.000323108
0.000360251
-0.000406427
0.000322176
-5.50449e-05
0.000890782
0.00396816
-0.0137082
0.00564987
-0.00902217
0.00651857
-0.00485407
0.00712665
-0.00282425
0.00756077
-0.00178376
0.0078367
-0.0010162
0.00799074
-0.000356367
0.00801425
0.000277996
0.00787836
0.000929732
0.00755924
0.00162641
0.0070491
0.00238062
0.00636634
0.00319512
0.00557849
0.00405826
0.00479741
0.00493728
0.00402764
0.00585505
0.00236535
0.00561392
0.00497177
-0.000450103
4.79395e-05
-0.000588522
7.802e-05
-0.000615168
6.4659e-05
-0.000599198
-1.07201e-06
-0.000488947
-6.74202e-05
-0.000130994
-0.000149688
0.000154241
0.000311757
0.000396116
0.000448096
0.000479141
0.000479067
0.000422539
0.000264565
-4.97462e-05
-7.75406e-05
-0.000295203
-0.000644871
0.000160959
-0.000975651
0.000275788
-7.32893e-05
0.00236207
-0.0158618
0.00326906
-0.00992903
0.00383338
-0.00541827
0.00409854
-0.00308929
0.00432883
-0.00201393
0.00451992
-0.00120717
0.00468547
-0.000521802
0.00479177
0.000171813
0.00479386
0.000927761
0.00466383
0.00175654
0.00438927
0.0026553
0.00397473
0.00360975
0.00343747
0.00459561
0.00279146
0.00558337
0.00210121
0.00654537
0.00128107
0.00643413
0.000663457
0.00558947
-0.00127493
0.00194102
-0.00144121
0.000214262
-0.00153415
0.000171001
-0.00162072
0.000151265
-0.0017114
8.96601e-05
-0.00178467
5.9018e-06
-0.00186873
-6.55762e-05
-0.00176854
-0.00010029
-0.00161122
-0.000157411
-0.00138104
-0.00023027
-0.00106914
-0.000311999
-0.00066555
-0.000403682
-0.000167986
-0.000497661
0.000384856
-0.00055294
0.00091463
-0.000529874
0.00135647
-0.000441943
0.00131451
-0.000253201
0.00127893
0.000196586
0.00101273
0.000542038
0.000949521
0.00105586
-0.0166517
0.00146427
-0.0103373
0.00174111
-0.00569498
0.00151082
-0.00285887
0.00157541
-0.0020784
0.00174104
-0.00137269
0.00192672
-0.000707378
0.00206205
3.65988e-05
0.00210954
0.000880384
0.00206304
0.00180315
0.00191267
0.00280578
0.00165456
0.00386796
0.00128898
0.00496128
0.000835844
0.00603658
0.000398398
0.00698288
-0.000107485
0.00694009
-0.000461026
0.0059431
-0.000936755
0.00241678
-0.00140995
0.000687498
-0.00159994
0.000361044
-0.00169452
0.000245903
-0.00174927
0.000144471
-0.00177877
3.54653e-05
-0.00177547
-6.88184e-05
-0.00170791
-0.000167775
-0.00158811
-0.000277149
-0.0014167
-0.000401607
-0.00118847
-0.000540169
-0.000904584
-0.000687499
-0.000574104
-0.000828079
-0.000199602
-0.000927383
0.000214522
-0.00094394
0.000623449
-0.000850815
0.000981275
-0.000610974
0.00133589
-0.000157971
0.00156871
0.000309268
0.00193063
0.000587669
0.00111777
0.000812717
-0.000307084
0.00142471
-0.000268082
-7.60792e-06
-0.0163202
3.82686e-05
-0.010383
-0.000172216
-0.00548437
-0.00074538
-0.00228558
-0.00075126
-0.00207241
-0.000612771
-0.00151107
-0.000472097
-0.000847942
-0.000377455
-5.79345e-05
-0.000334905
0.000837945
-0.000343983
0.00181233
-0.000407102
0.002869
-0.000529304
0.00399026
-0.000710918
0.00514298
-0.000927251
0.00625299
-0.00107818
0.00713389
-0.00121753
0.0070795
-0.0011214
0.00584705
-0.00115739
0.00245278
-0.00138269
0.000912856
-0.00151203
0.000490438
-0.00157421
0.000308152
-0.00160225
0.000172571
-0.0016102
4.34909e-05
-0.00159681
-8.21338e-05
-0.00155753
-0.000206979
-0.00149347
-0.000341135
-0.00140399
-0.000491015
-0.00128732
-0.000656756
-0.00114469
-0.00083006
-0.00098096
-0.00099174
-0.000796536
-0.00111174
-0.000581719
-0.00115869
-0.000321517
-0.00111095
2.45404e-05
-0.000956963
0.000557546
-0.000690905
0.00126554
-0.000398644
0.00189618
-4.28749e-05
0.00224239
0.000466581
0.00239013
0.00127704
0.00216688
-0.00105343
-0.0148855
-0.00181595
-0.00962039
-0.00241634
-0.00488385
-0.00304939
-0.00165241
-0.0030994
-0.00202228
-0.0029932
-0.00161715
-0.0028691
-0.000971931
-0.00276567
-0.000161251
-0.00268241
0.000754801
-0.0026143
0.00174434
-0.00255191
0.00280672
-0.00249304
0.00393149
-0.00243281
0.00508284
-0.00234661
0.00616689
-0.00216392
0.00695128
-0.0019166
0.00683226
-0.00148837
0.00541888
-0.00132454
0.00228896
-0.00133718
0.000925551
-0.00134471
0.000498031
-0.00133341
0.000296925
-0.00131292
0.000152155
-0.00129087
2.15149e-05
-0.0012723
-0.000100626
-0.00126158
-0.000217625
-0.00126077
-0.000341858
-0.00127002
-0.000481681
-0.00128982
-0.000636871
-0.00132197
-0.000797821
-0.00136778
-0.000945856
-0.0014216
-0.00105784
-0.00146639
-0.00111383
-0.00147659
-0.00110068
-0.00142098
-0.00101249
-0.00124871
-0.000863078
-0.000900379
-0.000746863
-0.000109074
-0.000834037
0.00117223
-0.00081458
0.00180163
0.000647722
0.00401539
-0.00387794
-0.010571
-0.00614509
-0.00735308
-0.00608067
-0.00494813
-0.00610691
-0.00162605
-0.00568946
-0.0024396
-0.00535552
-0.00195095
-0.00513607
-0.00119126
-0.00496898
-0.000328218
-0.00481201
0.000597958
-0.0046341
0.00156654
-0.00440776
0.0025805
-0.00411938
0.00364322
-0.00376046
0.00472402
-0.00331854
0.00572506
-0.00277236
0.00640519
-0.00218126
0.00624124
-0.00155345
0.00479111
-0.0012488
0.00198434
-0.00112241
0.000799227
-0.00102126
0.000396941
-0.000922521
0.000198261
-0.000830326
6.0032e-05
-0.00075963
-4.91073e-05
-0.000725634
-0.000134543
-0.000733837
-0.000209339
-0.000785934
-0.000289672
-0.00088443
-0.000383092
-0.00103503
-0.00048617
-0.00124596
-0.00058679
-0.00152586
-0.000665867
-0.0018776
-0.000706005
-0.00229249
-0.000698841
-0.00275395
-0.000639122
-0.00323933
-0.000527007
-0.00372082
-0.000381481
-0.0042227
-0.000244844
-0.0048725
-0.000184068
-0.00543924
-0.000247661
-0.00439627
-0.000395058
-0.000149567
-0.0100971
-0.0174598
-0.0121333
-0.0102745
-0.00863503
-0.00512413
-0.00753803
-0.00353647
-0.00708086
-0.00240798
-0.00688281
-0.00138917
-0.00673979
-0.000471101
-0.00654855
0.000406851
-0.00626067
0.00127879
-0.00585165
0.00217162
-0.00530431
0.003096
-0.00461308
0.00403291
-0.00378755
0.00489963
-0.00286445
0.00548218
-0.00196335
0.00534021
-0.00119694
0.00402473
-0.000777215
0.00156466
-0.000579416
0.000601496
-0.000413655
0.000231253
-0.000242114
2.67947e-05
-8.76745e-05
-9.43306e-05
1.53387e-05
-0.000152044
5.90527e-05
-0.000178179
4.65493e-05
-0.000196754
-2.3039e-05
-0.000219995
-0.000155099
-0.000250935
-0.000358147
-0.000283015
-0.000644569
-0.000300252
-0.00102937
-0.000280942
-0.00152437
-0.000210877
-0.00211711
-0.000105978
-0.00276368
7.56808e-06
-0.0034118
0.000121254
-0.00402265
0.000229512
-0.00458369
0.000316353
-0.00517712
0.000409541
-0.00563822
0.000213633
-0.00461599
-0.00141708
-0.00453881
-0.0103642
0.000215785
-0.00808305
-0.00740515
-0.00775597
-0.0038634
-0.0078611
-0.0023027
-0.00795013
-0.00129999
-0.00792426
-0.000496829
-0.00774163
0.000224376
-0.00738016
0.000917462
-0.00680913
0.00160072
-0.0060119
0.0022989
-0.00498985
0.00301098
-0.00377688
0.00368678
-0.00245869
0.0041641
-0.00123904
0.00412064
-0.000127863
0.00291362
0.000342559
0.00109431
0.000546601
0.000397536
0.000720559
5.7381e-05
0.000864228
-0.000116784
0.000955819
-0.000185833
0.00100088
-0.00019702
0.00100985
-0.000187066
0.00098728
-0.0001741
0.000932162
-0.000164791
0.00084069
-0.000159371
0.000710741
-0.000152964
0.000546863
-0.000136259
0.000364726
-9.86746e-05
0.000185584
-3.15898e-05
2.55125e-05
5.42535e-05
-0.000118497
0.000151734
-0.000242165
0.000245075
-0.000327325
0.000314829
-0.00031548
0.00030467
2.72328e-05
6.69954e-05
0.00079076
-0.00054972
0.0011638
-0.00178993
-0.00332519
-0.000626915
0.000825838
-0.00503194
-0.00299997
-0.00694522
-0.00194998
-0.0080045
-0.00124326
-0.00857459
-0.00072975
-0.00876232
-0.000308946
-0.00861841
8.06286e-05
-0.00818545
0.000484646
-0.00745692
0.000872348
-0.00641915
0.00126127
-0.00507007
0.00166205
-0.00345764
0.00207448
-0.00169522
0.00240181
0.000117635
0.00230789
0.00161333
0.00141802
0.0021363
0.000571448
0.00233371
0.000200235
0.00237707
1.41345e-05
0.00232479
-6.4397e-05
0.00223713
-9.80604e-05
0.00214724
-0.000107032
0.00206487
-0.0001046
0.00198887
-9.80106e-05
0.00191319
-8.90142e-05
0.00183088
-7.69742e-05
0.00173857
-6.05544e-05
0.00164107
-3.86478e-05
0.00155352
-1.0999e-05
0.00149771
2.43577e-05
0.00148334
6.87799e-05
0.00151726
0.000117969
0.00160233
0.00016017
0.00174385
0.000173481
0.00194485
0.000103856
0.00212886
-0.000116823
0.00203839
-0.000459061
0.00124624
-0.000997573
-0.00202116
0.00467736
-0.00225589
-0.00145935
-0.00449852
-0.00648703
-0.00776845
-0.00853598
-0.00888241
-0.00883903
-0.00839138
-0.00755575
-0.00633089
-0.00470488
-0.00266599
-0.000299166
0.00197556
0.00336209
0.00390247
0.00407191
0.00405556
0.00396143
0.00383463
0.00369993
0.00356861
0.00344469
0.00333046
0.00322887
0.00314432
0.00308235
0.00304885
0.00305172
0.00310022
0.00319916
0.00334149
0.00349811
0.00358567
0.00345265
0.00297724
0.00196337
)
;

boundaryField
{
    floor
    {
        type            calculated;
        value           nonuniform List<scalar> 
29
(
0
0
0
0
0
0
0
0
0
0
0
0
0
0
0
0
0
0
0
0
-3.02434e-06
-7.65811e-06
-1.15293e-05
-1.00247e-05
4.4344e-07
-2.44013e-06
-5.61388e-06
-7.56447e-06
-2.58377e-06
)
;
    }
    ceiling
    {
        type            calculated;
        value           nonuniform List<scalar> 
43
(
5.58529e-05
4.77188e-05
2.94486e-05
3.93445e-05
3.86752e-05
3.83176e-05
3.79332e-05
3.76418e-05
3.7401e-05
3.71538e-05
3.68838e-05
3.65687e-05
3.61955e-05
3.57412e-05
3.51383e-05
3.3283e-05
3.16148e-05
3.12035e-05
3.0937e-05
3.06131e-05
2.98697e-05
2.88583e-05
2.77988e-05
2.68349e-05
2.60167e-05
2.53278e-05
2.47139e-05
2.41035e-05
2.34228e-05
2.26165e-05
2.16034e-05
2.04122e-05
1.9166e-05
1.79932e-05
1.70325e-05
1.64817e-05
1.63973e-05
1.65543e-05
1.65118e-05
1.78478e-05
1.21054e-05
9.80193e-06
1.70068e-05
)
;
    }
    sWall
    {
        type            calculated;
        value           uniform -0.000153452;
    }
    nWall
    {
        type            calculated;
        value           nonuniform List<scalar> 6(-3.9131e-05 -4.47615e-05 -4.68038e-05 -4.96101e-05 -5.75892e-05 -7.54196e-05);
    }
    sideWalls
    {
        type            empty;
        value           nonuniform 0();
    }
    glass1
    {
        type            calculated;
        value           nonuniform List<scalar> 9(-3.26282e-05 -9.29603e-05 -0.000150951 -0.000208335 -0.000265828 -0.000323721 -0.000381152 -0.000436392 -0.00048591);
    }
    glass2
    {
        type            calculated;
        value           nonuniform List<scalar> 2(-0.000231149 -0.000226511);
    }
    sun
    {
        type            calculated;
        value           uniform 0;
    }
    heatsource1
    {
        type            calculated;
        value           nonuniform List<scalar> 3(2.03041e-07 2.03304e-07 2.03763e-07);
    }
    heatsource2
    {
        type            calculated;
        value           nonuniform List<scalar> 4(4.95773e-08 5.0026e-08 0 0);
    }
    Table_master
    {
        type            calculated;
        value           nonuniform List<scalar> 9(-1.53027e-07 -1.53076e-07 -1.53079e-07 -1.53086e-07 -1.53098e-07 -1.53118e-07 -1.53137e-07 -1.53174e-07 -1.53199e-07);
    }
    Table_slave
    {
        type            calculated;
        value           nonuniform List<scalar> 9(1.52206e-07 1.52231e-07 1.52273e-07 1.52341e-07 1.52436e-07 1.52565e-07 1.52603e-07 1.5249e-07 1.5235e-07);
    }
    inlet
    {
        type            calculated;
        value           uniform -0.000125932;
    }
    outlet
    {
        type            calculated;
        value           nonuniform List<scalar> 2(-0.00457952 0.00688578);
    }
}


// ************************************************************************* //
