/*--------------------------------*- C++ -*----------------------------------*\
  =========                 |
  \\      /  F ield         | OpenFOAM: The Open Source CFD Toolbox
   \\    /   O peration     | Website:  https://openfoam.org
    \\  /    A nd           | Version:  6
     \\/     M anipulation  |
\*---------------------------------------------------------------------------*/
FoamFile
{
    version     2.0;
    format      ascii;
    class       volScalarField;
    location    "190";
    object      nut;
}
// * * * * * * * * * * * * * * * * * * * * * * * * * * * * * * * * * * * * * //

dimensions      [0 2 -1 0 0 0 0];

internalField   nonuniform List<scalar> 
459
(
0.00135864
0.00167112
0.00167331
0.00159689
0.0015136
0.00143747
0.00136881
0.00130775
0.00125147
0.0011979
0.0011451
0.0010909
0.00103223
0.000963265
0.000883346
0.000609985
0.000788408
0.000852231
0.000866146
0.000835892
0.000799089
0.000750811
0.00070273
0.00065969
0.000621964
0.000588876
0.000559668
0.000533495
0.000509877
0.000487678
0.000465396
0.000441423
0.000405072
0.000380431
0.00156381
0.004817
0.00410371
0.00369544
0.00343016
0.00326474
0.00315618
0.00303666
0.00290077
0.00273993
0.00254255
0.0022966
0.00199408
0.00163215
0.00124556
0.000859784
0.000762243
0.000914767
0.00270334
0.00233105
0.00241984
0.00257672
0.00256109
0.00198018
0.0016874
0.00148532
0.00133427
0.00121711
0.00112428
0.00105109
0.000976776
0.000890918
0.000807919
0.000782135
0.00069556
0.000462026
0.00160444
0.00538997
0.00396421
0.00358235
0.00342423
0.00343914
0.00353644
0.00360814
0.00360586
0.00350724
0.00330542
0.00300355
0.0026148
0.00216222
0.00169058
0.00125258
0.000773468
0.000962683
0.00275456
0.00240792
0.00266762
0.0030416
0.00303843
0.000981031
0.000870425
0.000777461
0.000700257
0.000636059
0.000582384
0.000537369
0.000501175
0.000474952
0.000529906
0.000683943
0.000835663
0.000524201
0.0015841
0.00490025
0.00346077
0.00351403
0.0035322
0.00376536
0.00401905
0.00413527
0.00412272
0.00399192
0.00375385
0.00342204
0.00301458
0.00255592
0.00207475
0.00160651
0.00109432
0.000781555
0.00139547
0.00188681
0.00267559
0.00348926
0.00406736
0.00395245
0.00106516
0.000979173
0.000910714
0.000852423
0.000798605
0.000745849
0.00069182
0.000634409
0.000569189
0.000525236
0.000638556
0.000993523
0.000604813
0.00158075
0.0040374
0.00313177
0.00376119
0.00401654
0.0044495
0.00458829
0.00456437
0.00447171
0.00430397
0.00406052
0.003747
0.00337601
0.00297328
0.00256164
0.00218073
0.00186061
0.00192011
0.00256864
0.00353735
0.00447985
0.00519083
0.00559865
0.0056294
0.00487734
0.00440976
0.00399175
0.00356382
0.0031218
0.00266571
0.00219445
0.00170769
0.00120351
0.000804589
0.000713211
0.00100675
0.000851132
0.000675625
0.00074566
0.00113413
0.0015618
0.00335355
0.00289438
0.00384341
0.00431292
0.00486175
0.00501813
0.00495838
0.00484914
0.00470144
0.00451043
0.00427117
0.00398893
0.00370891
0.00346308
0.00333189
0.00340409
0.00404095
0.00497795
0.00581345
0.00642279
0.00676812
0.00686941
0.00675721
0.00641536
0.00596061
0.00539928
0.00477733
0.00411926
0.00344174
0.00275615
0.00207919
0.00144745
0.0010159
0.000891069
0.00101178
0.000997007
0.00107037
0.00155571
0.00150253
0.00153147
0.00281962
0.00262926
0.00407082
0.00460088
0.00503017
0.00527085
0.00527247
0.00522448
0.00515857
0.00507612
0.00498074
0.00488437
0.00481262
0.00482924
0.00502615
0.00548709
0.00628103
0.00697776
0.00743244
0.0076429
0.00763008
0.00744289
0.0071351
0.00669997
0.00616393
0.00555803
0.00489762
0.00420533
0.00351017
0.00284755
0.00226071
0.00179617
0.00151335
0.00138508
0.00131856
0.00116847
0.00147592
0.00279846
0.00204942
0.00147919
0.00224412
0.0021979
0.00433529
0.00517053
0.005306
0.00536108
0.00534444
0.00535095
0.00537416
0.00540992
0.00546505
0.00555405
0.0057026
0.0059528
0.00636182
0.00691172
0.00749405
0.00785178
0.00795284
0.00782148
0.00750082
0.00702549
0.00648637
0.00595714
0.00543599
0.00490627
0.00436591
0.00383828
0.00336159
0.00297458
0.00270099
0.00253495
0.00243381
0.00230397
0.00209793
0.00166157
0.001985
0.00522554
0.00285573
0.00137414
0.00135855
0.00150976
0.00435898
0.00589805
0.00596696
0.00590694
0.00588856
0.00591991
0.00597054
0.00603582
0.0061255
0.00625144
0.00642867
0.00667591
0.00699597
0.00733617
0.00758382
0.00762011
0.0074189
0.00701594
0.00649927
0.00597282
0.00549389
0.0050859
0.0047441
0.00445551
0.00421999
0.00405038
0.00396035
0.00395226
0.00400828
0.00408386
0.00410449
0.00398053
0.00365899
0.00306305
0.00329422
0.00727808
0.00324546
0.00100701
0.00392984
0.00657709
0.00698961
0.00710829
0.00718802
0.00725704
0.00731106
0.00735268
0.00739316
0.00743699
0.00748512
0.00754188
0.00759656
0.00761793
0.00756201
0.00740429
0.00716265
0.00687655
0.0065866
0.00632155
0.00609609
0.0059156
0.00578175
0.00569773
0.0056698
0.00570441
0.0058031
0.0059566
0.0061386
0.00629947
0.00636359
0.00623646
0.00585702
0.00524745
0.00532208
0.00781391
0.00278122
0.00241958
0.00701738
0.00795807
0.00819201
0.00827878
0.00837035
0.00844559
0.00849023
0.00850531
0.00849807
0.00847352
0.00843548
0.00838912
0.00833739
0.00827877
0.00820565
0.00810841
0.00798638
0.00785004
0.00771291
0.00758439
0.00747011
0.00737558
0.00730788
0.00727544
0.00728686
0.00734902
0.00746458
0.00762818
0.00782036
0.00799714
0.00807636
0.00793469
0.00749386
0.00682856
0.00634934
0.0060519
0.0023357
0.0012771
0.00133994
0.0017167
0.00192017
0.00195848
0.00197382
0.00198866
0.00199662
0.00200046
0.00200155
0.00200103
0.00199962
0.00199817
0.00199752
0.00199782
0.00199855
0.00199833
0.00199558
0.00198969
0.00198132
0.00197177
0.00196224
0.00195368
0.00194681
0.00194224
0.00194052
0.00194215
0.00194752
0.00195674
0.00196937
0.001984
0.00199766
0.0020051
0.00199941
0.00197971
0.00196334
0.0019909
0.00207774
0.00214603
0.00194245
)
;

boundaryField
{
    floor
    {
        type            nutkWallFunction;
        Cmu             0.09;
        kappa           0.41;
        E               9.8;
        value           nonuniform List<scalar> 
29
(
0.000106899
7.36001e-05
9.54938e-05
0.000103176
0.000104842
0.000101216
9.67837e-05
9.09332e-05
8.50622e-05
7.97662e-05
7.509e-05
7.09606e-05
6.72919e-05
6.39847e-05
6.09831e-05
5.81462e-05
5.52825e-05
5.21823e-05
4.74407e-05
4.41968e-05
4.41967e-05
5.48476e-05
6.28053e-05
7.29535e-05
0.000106899
7.36001e-05
0.000110642
0.000116321
9.46672e-05
)
;
    }
    ceiling
    {
        type            nutkWallFunction;
        Cmu             0.09;
        kappa           0.41;
        E               9.8;
        value           nonuniform List<scalar> 
43
(
0.000152875
0.000160048
0.000202352
0.000224766
0.000228959
0.000230636
0.000232256
0.000233125
0.000233544
0.000233662
0.000233606
0.000233453
0.000233295
0.000233225
0.000233258
0.000233338
0.000233315
0.000233015
0.000232372
0.000231459
0.000230416
0.000229375
0.000228439
0.000227688
0.000227188
0.000226999
0.000227176
0.000227763
0.00022877
0.000230149
0.000231746
0.000233236
0.000234047
0.000233426
0.000231277
0.00022949
0.000232496
0.000241945
0.000249348
0.000227204
0.000163881
0.000162111
0.00027873
)
;
    }
    sWall
    {
        type            nutkWallFunction;
        Cmu             0.09;
        kappa           0.41;
        E               9.8;
        value           uniform 0.000152876;
    }
    nWall
    {
        type            nutkWallFunction;
        Cmu             0.09;
        kappa           0.41;
        E               9.8;
        value           nonuniform List<scalar> 6(0.000136404 0.00017845 0.000238865 0.000317104 0.000269772 0.0002272);
    }
    sideWalls
    {
        type            empty;
    }
    glass1
    {
        type            nutkWallFunction;
        Cmu             0.09;
        kappa           0.41;
        E               9.8;
        value           nonuniform List<scalar> 9(0.00016211 0.000185229 0.000189767 0.000187496 0.000187122 0.000185002 0.000181605 0.000175733 0.000163862);
    }
    glass2
    {
        type            nutkWallFunction;
        Cmu             0.09;
        kappa           0.41;
        E               9.8;
        value           nonuniform List<scalar> 2(0.000324767 0.000365405);
    }
    sun
    {
        type            nutkWallFunction;
        Cmu             0.09;
        kappa           0.41;
        E               9.8;
        value           nonuniform List<scalar> 
14
(
0.000162136
0.000197226
0.000197471
0.000188964
0.00017964
0.000171069
0.000163296
0.000156345
0.000149908
0.00014375
0.00013765
0.000131355
0.000124501
0.000116386
)
;
    }
    heatsource1
    {
        type            nutkWallFunction;
        Cmu             0.09;
        kappa           0.41;
        E               9.8;
        value           nonuniform List<scalar> 3(8.17292e-05 9.03112e-05 0.000136416);
    }
    heatsource2
    {
        type            nutkWallFunction;
        Cmu             0.09;
        kappa           0.41;
        E               9.8;
        value           nonuniform List<scalar> 4(0.000104086 9.23267e-05 9.23267e-05 9.36884e-05);
    }
    Table_master
    {
        type            nutkWallFunction;
        Cmu             0.09;
        kappa           0.41;
        E               9.8;
        value           nonuniform List<scalar> 9(0.000118489 0.000105357 9.41677e-05 8.47554e-05 7.6834e-05 7.01366e-05 6.44617e-05 5.98563e-05 5.6494e-05);
    }
    Table_slave
    {
        type            nutkWallFunction;
        Cmu             0.09;
        kappa           0.41;
        E               9.8;
        value           nonuniform List<scalar> 9(0.000128364 0.000118271 0.000110162 0.000103202 9.67259e-05 9.03275e-05 8.37185e-05 7.66274e-05 6.84765e-05);
    }
    inlet
    {
        type            calculated;
        value           uniform 0.000100623;
    }
    outlet
    {
        type            calculated;
        value           nonuniform List<scalar> 2(0.0012771 0.00133994);
    }
}


// ************************************************************************* //
