/*--------------------------------*- C++ -*----------------------------------*\
  =========                 |
  \\      /  F ield         | OpenFOAM: The Open Source CFD Toolbox
   \\    /   O peration     | Website:  https://openfoam.org
    \\  /    A nd           | Version:  6
     \\/     M anipulation  |
\*---------------------------------------------------------------------------*/
FoamFile
{
    version     2.0;
    format      ascii;
    class       volScalarField;
    location    "700";
    object      nut;
}
// * * * * * * * * * * * * * * * * * * * * * * * * * * * * * * * * * * * * * //

dimensions      [0 2 -1 0 0 0 0];

internalField   nonuniform List<scalar> 
459
(
0.00108012
0.00118019
0.00120218
0.00126
0.00131354
0.00136365
0.00141278
0.00146076
0.00149458
0.00150877
0.00149827
0.00145999
0.00139379
0.00130527
0.0012082
0.000474354
0.000580278
0.00065244
0.000647855
0.000625187
0.000595615
0.000558772
0.000522356
0.000489325
0.00046
0.000434031
0.000410954
0.000390429
0.000371997
0.000355001
0.000338585
0.000321489
0.000309191
0.00028151
0.00147194
0.00360067
0.00344978
0.00401705
0.0045738
0.00513002
0.00562004
0.00598804
0.00631979
0.00658836
0.00675614
0.00678036
0.00659564
0.00603781
0.00451292
0.00123199
0.000726699
0.000513224
0.00107615
0.00148455
0.00177555
0.00192872
0.00192081
0.00154608
0.00133468
0.00118325
0.00106688
0.000974221
0.000898742
0.000833613
0.000772808
0.00071375
0.000661199
0.000615405
0.000719701
0.000367552
0.00179786
0.00491815
0.00428417
0.00537966
0.00592592
0.00632981
0.00664196
0.00688927
0.0071565
0.00743467
0.00769072
0.00787751
0.00794261
0.00780903
0.00727222
0.00560844
0.00122506
0.00102421
0.00146931
0.00187951
0.00224295
0.00248715
0.00241603
0.000800181
0.000706557
0.000631373
0.000570722
0.000521317
0.000480643
0.000446893
0.000418915
0.000396229
0.000427123
0.000494135
0.000808756
0.000424821
0.00211056
0.00628375
0.00429726
0.00569951
0.00618399
0.00634764
0.00645107
0.00657511
0.00678607
0.00707022
0.00739287
0.00769518
0.00792253
0.00801404
0.00789802
0.00732483
0.00536701
0.00146663
0.00181788
0.00234414
0.00284862
0.00324414
0.00348192
0.00325648
0.00090282
0.000821765
0.000763636
0.000719284
0.000681629
0.000647198
0.000614186
0.000579626
0.000539639
0.00050631
0.000517861
0.000922578
0.000469171
0.00242939
0.00803675
0.00472288
0.00548749
0.00613216
0.00617793
0.00612164
0.00618449
0.00636997
0.00665865
0.00702082
0.00737569
0.00764773
0.00777599
0.00773877
0.00749446
0.00687634
0.00568786
0.00527993
0.00514439
0.00509705
0.00506658
0.00501009
0.00481407
0.00406046
0.00369825
0.00348714
0.00332404
0.00315277
0.00290709
0.00257651
0.00217555
0.00173007
0.00128094
0.000944261
0.000947283
0.00062928
0.000578177
0.000700323
0.00078603
0.00276735
0.00994622
0.00649676
0.00545935
0.00594587
0.00616523
0.00602526
0.00607802
0.00621769
0.0064761
0.00684143
0.00723029
0.00752997
0.00765321
0.00757938
0.00735518
0.00705813
0.00675134
0.00658053
0.00645591
0.00631532
0.00615408
0.00597122
0.00573958
0.00539646
0.00508854
0.00481524
0.00455394
0.00428919
0.00400279
0.00364416
0.00319929
0.00266782
0.00207969
0.0015595
0.0011668
0.000878633
0.00074599
0.00106354
0.000820092
0.00307472
0.0112829
0.009098
0.0070325
0.00665763
0.006575
0.00635223
0.00621027
0.0062531
0.00650537
0.00691083
0.00734499
0.00766106
0.00775632
0.00761979
0.0073481
0.0071134
0.00703336
0.00704651
0.00698879
0.00681134
0.00654595
0.00622337
0.00586179
0.00548014
0.00512606
0.0048024
0.00450199
0.00422516
0.00397821
0.00376089
0.00346444
0.00304966
0.00254392
0.00205769
0.00162223
0.0013023
0.00120307
0.00122631
0.000933959
0.00313414
0.0100384
0.00892126
0.00824143
0.00763475
0.00693462
0.00638846
0.00617196
0.00630558
0.00671406
0.00725639
0.00775272
0.00803523
0.00802373
0.00775737
0.00740273
0.00718853
0.00718986
0.007206
0.00699587
0.00661642
0.00614239
0.00563722
0.00515559
0.00473388
0.0043802
0.00408135
0.00382985
0.00362849
0.00348473
0.0034056
0.00336564
0.00315659
0.00283177
0.00254598
0.00239935
0.00248996
0.00286699
0.00352197
0.0014588
0.0030508
0.00361719
0.00401465
0.00411219
0.00419602
0.00442904
0.00489896
0.00561398
0.00649042
0.00737614
0.00810756
0.00853009
0.00854268
0.00819454
0.00767107
0.0073075
0.00710853
0.0069411
0.00665288
0.00618341
0.00560129
0.00499848
0.00445215
0.00400108
0.00364504
0.00336238
0.00313107
0.00293776
0.00277389
0.00263099
0.00250011
0.00238007
0.00228521
0.00221539
0.00218898
0.00219873
0.00218671
0.0020998
0.00196317
0.00137247
0.00148062
0.00305366
0.00497775
0.00658336
0.00783946
0.00879967
0.0094071
0.00964909
0.00956029
0.00913137
0.00845701
0.00762113
0.00691293
0.0064744
0.00612232
0.00568844
0.00515353
0.00457905
0.00403281
0.00356144
0.00318923
0.00290279
0.00267987
0.00250318
0.0023628
0.00225383
0.00217393
0.00212197
0.00209967
0.00210459
0.00212298
0.00215095
0.0021808
0.00218857
0.00213564
0.00200951
0.00181956
0.00114173
0.00198339
0.00512622
0.00766504
0.0086469
0.00914257
0.00930052
0.00909651
0.00859211
0.00789169
0.00709757
0.00634723
0.00568153
0.00514646
0.00469092
0.00423039
0.00377563
0.00337178
0.00304309
0.00278866
0.00259383
0.00243574
0.00230227
0.00218819
0.00209654
0.00202959
0.00198671
0.0019665
0.00196714
0.00199361
0.0020431
0.00211212
0.0021933
0.00227041
0.00232372
0.00230618
0.00233219
0.00236789
0.00116414
0.00177536
0.00188123
0.00195619
0.00210725
0.0020389
0.00195636
0.00190255
0.00182586
0.00171548
0.00157817
0.00142356
0.00126277
0.00110669
0.000972822
0.000871765
0.00079997
0.000749018
0.000712174
0.000685351
0.000666215
0.000653305
0.000645721
0.000642883
0.000644983
0.000652463
0.000664995
0.000682424
0.000705097
0.000733581
0.000768656
0.000809412
0.000855916
0.000908679
0.000968154
0.00103387
0.00111189
0.0011374
0.00110835
0.00104135
0.000970395
)
;

boundaryField
{
    floor
    {
        type            nutkWallFunction;
        Cmu             0.09;
        kappa           0.41;
        E               9.8;
        value           nonuniform List<scalar> 
29
(
0.000144953
5.64193e-05
6.98739e-05
7.88652e-05
7.82976e-05
7.54844e-05
7.17956e-05
6.71686e-05
6.25582e-05
5.83419e-05
5.4569e-05
5.12026e-05
4.81899e-05
4.54921e-05
4.3054e-05
4.0792e-05
3.8594e-05
3.62902e-05
3.46228e-05
3.08374e-05
3.08373e-05
4.24632e-05
5.00021e-05
5.57514e-05
0.000144953
5.64193e-05
6.13957e-05
0.00012357
0.000174387
)
;
    }
    ceiling
    {
        type            nutkWallFunction;
        Cmu             0.09;
        kappa           0.41;
        E               9.8;
        value           nonuniform List<scalar> 
43
(
0.000208668
0.0002203
0.000228495
0.000245006
0.00023763
0.000228655
0.00022278
0.000214366
0.000202185
0.000186906
0.000169525
0.000151225
0.000133206
0.000117523
0.000105518
9.68917e-05
9.07146e-05
8.62169e-05
8.29252e-05
8.05675e-05
7.89722e-05
7.80333e-05
7.76817e-05
7.79419e-05
7.8868e-05
8.04168e-05
8.25651e-05
8.53499e-05
8.88334e-05
9.31011e-05
9.80312e-05
0.000103621
0.000109921
0.000116972
0.000124705
0.000133813
0.000136775
0.000133401
0.000125582
0.000117237
0.000345434
0.000403977
0.000231333
)
;
    }
    sWall
    {
        type            nutkWallFunction;
        Cmu             0.09;
        kappa           0.41;
        E               9.8;
        value           uniform 0.000208726;
    }
    nWall
    {
        type            nutkWallFunction;
        Cmu             0.09;
        kappa           0.41;
        E               9.8;
        value           nonuniform List<scalar> 6(9.52066e-05 9.93193e-05 0.000112928 0.000137287 0.000139883 0.000117242);
    }
    sideWalls
    {
        type            empty;
    }
    glass1
    {
        type            nutkWallFunction;
        Cmu             0.09;
        kappa           0.41;
        E               9.8;
        value           nonuniform List<scalar> 9(0.000130216 0.000175206 0.000211595 0.000245831 0.000280183 0.000316078 0.000348329 0.000354533 0.000345858);
    }
    glass2
    {
        type            nutkWallFunction;
        Cmu             0.09;
        kappa           0.41;
        E               9.8;
        value           nonuniform List<scalar> 2(0.000173576 0.000163802);
    }
    sun
    {
        type            nutkWallFunction;
        Cmu             0.09;
        kappa           0.41;
        E               9.8;
        value           nonuniform List<scalar> 
14
(
0.000130115
0.000141725
0.000144261
0.000150906
0.000157029
0.000162734
0.000168306
0.000173726
0.000177535
0.000179129
0.000177949
0.000173638
0.000166154
0.000156084
)
;
    }
    heatsource1
    {
        type            nutkWallFunction;
        Cmu             0.09;
        kappa           0.41;
        E               9.8;
        value           nonuniform List<scalar> 3(6.96119e-05 8.47648e-05 9.52064e-05);
    }
    heatsource2
    {
        type            nutkWallFunction;
        Cmu             0.09;
        kappa           0.41;
        E               9.8;
        value           nonuniform List<scalar> 4(0.000147686 8.79942e-05 8.79942e-05 0.000146889);
    }
    Table_master
    {
        type            nutkWallFunction;
        Cmu             0.09;
        kappa           0.41;
        E               9.8;
        value           nonuniform List<scalar> 9(9.6917e-05 8.55298e-05 7.62553e-05 6.86764e-05 6.24303e-05 5.72331e-05 5.28792e-05 4.92387e-05 4.62641e-05);
    }
    Table_slave
    {
        type            nutkWallFunction;
        Cmu             0.09;
        kappa           0.41;
        E               9.8;
        value           nonuniform List<scalar> 9(0.000109222 9.95192e-05 9.24919e-05 8.70876e-05 8.24682e-05 7.82175e-05 7.41164e-05 6.97942e-05 6.47539e-05);
    }
    inlet
    {
        type            calculated;
        value           uniform 0.000100623;
    }
    outlet
    {
        type            calculated;
        value           nonuniform List<scalar> 2(0.00177536 0.00188123);
    }
}


// ************************************************************************* //
