// -*- C++ -*-
// File generated by PyFoam - sorry for the ugliness

FoamFile
{
 version 2.0;
 format ascii;
 class volScalarField;
 location "200";
 object T;
}

dimensions [ 0 0 0 1 0 0 0 ];

internalField nonuniform List<scalar> 459
(
  309.878
  309.784
  309.737
  309.706
  309.682
  309.664
  309.65
  309.637
  309.624
  309.611
  309.597
  309.583
  309.568
  309.549
  309.52
  306.175
  306.18
  306.194
  306.204
  306.216
  306.229
  306.243
  306.258
  306.272
  306.286
  306.3
  306.314
  306.331
  306.356
  306.387
  306.412
  306.395
  306.385
  306.401
  309.853
  309.692
  309.601
  309.543
  309.502
  309.475
  309.459
  309.45
  309.445
  309.445
  309.448
  309.455
  309.465
  309.478
  309.487
  309.466
  309.416
  306.214
  306.221
  306.238
  306.251
  306.265
  306.279
  306.296
  306.315
  306.338
  306.362
  306.388
  306.416
  306.446
  306.477
  306.509
  306.536
  306.526
  306.513
  306.523
  309.828
  309.59
  309.441
  309.34
  309.27
  309.225
  309.202
  309.2
  309.212
  309.236
  309.27
  309.311
  309.355
  309.399
  309.434
  309.433
  309.377
  306.279
  306.299
  306.309
  306.322
  306.331
  306.336
  306.334
  306.366
  306.405
  306.446
  306.487
  306.527
  306.564
  306.605
  306.652
  306.701
  306.699
  306.687
  306.657
  309.805
  309.503
  309.286
  309.133
  309.033
  308.977
  308.949
  308.953
  308.988
  309.044
  309.114
  309.191
  309.268
  309.338
  309.393
  309.386
  308.881
  306.621
  306.438
  306.49
  306.533
  306.58
  306.628
  306.673
  306.708
  306.728
  306.745
  306.761
  306.775
  306.788
  306.8
  306.81
  306.818
  306.82
  306.828
  306.831
  306.824
  309.782
  309.442
  309.156
  308.956
  308.87
  308.837
  308.82
  308.82
  308.862
  308.935
  309.027
  309.126
  309.223
  309.308
  309.349
  309.194
  308.378
  306.694
  306.565
  306.597
  306.635
  306.673
  306.707
  306.737
  306.762
  306.782
  306.799
  306.815
  306.83
  306.843
  306.856
  306.868
  306.88
  306.889
  306.901
  306.912
  306.925
  306.94
  306.956
  306.97
  309.756
  309.412
  309.074
  308.862
  308.839
  308.831
  308.818
  308.809
  308.847
  308.923
  309.019
  309.121
  309.213
  309.273
  309.233
  308.891
  307.925
  306.746
  306.654
  306.679
  306.714
  306.747
  306.777
  306.803
  306.824
  306.843
  306.858
  306.872
  306.884
  306.896
  306.907
  306.918
  306.927
  306.936
  306.944
  306.952
  306.961
  306.975
  306.992
  307.011
  309.727
  309.416
  309.092
  308.876
  308.868
  308.874
  308.879
  308.887
  308.915
  308.973
  309.05
  309.129
  309.189
  309.191
  309.042
  308.55
  307.589
  306.808
  306.747
  306.776
  306.813
  306.847
  306.875
  306.898
  306.916
  306.929
  306.939
  306.948
  306.956
  306.964
  306.971
  306.977
  306.982
  306.986
  306.988
  306.99
  306.993
  307.001
  307.016
  307.035
  309.712
  309.479
  309.227
  308.92
  308.898
  308.916
  308.94
  308.961
  308.984
  309.021
  309.069
  309.112
  309.124
  309.058
  308.817
  308.254
  307.396
  306.895
  306.866
  306.908
  306.955
  306.995
  307.021
  307.034
  307.041
  307.045
  307.048
  307.05
  307.051
  307.053
  307.053
  307.053
  307.053
  307.05
  307.046
  307.04
  307.034
  307.031
  307.038
  307.052
  309.738
  309.676
  309.688
  309.065
  308.889
  308.908
  308.944
  308.976
  309
  309.022
  309.042
  309.05
  309.02
  308.905
  308.624
  308.071
  307.354
  307.03
  307.026
  307.084
  307.144
  307.178
  307.192
  307.195
  307.193
  307.188
  307.182
  307.175
  307.169
  307.162
  307.154
  307.146
  307.138
  307.128
  307.117
  307.103
  307.088
  307.074
  307.065
  307.064
  310.549
  309.344
  308.861
  308.855
  308.89
  308.923
  308.948
  308.961
  308.965
  308.95
  308.898
  308.773
  308.516
  308.051
  307.462
  307.291
  307.273
  307.314
  307.348
  307.366
  307.37
  307.366
  307.356
  307.343
  307.329
  307.314
  307.298
  307.281
  307.265
  307.247
  307.23
  307.211
  307.191
  307.169
  307.146
  307.12
  307.097
  307.077
  310.366
  309.778
  308.837
  308.791
  308.814
  308.835
  308.85
  308.859
  308.854
  308.833
  308.782
  308.683
  308.488
  308.103
  307.809
  307.685
  307.633
  307.605
  307.588
  307.574
  307.559
  307.541
  307.521
  307.499
  307.475
  307.45
  307.424
  307.397
  307.37
  307.342
  307.315
  307.286
  307.257
  307.226
  307.194
  307.158
  307.121
  307.087
  312.334
  312.296
  311.576
  310.725
  308.8
  308.718
  308.724
  308.73
  308.736
  308.741
  308.738
  308.724
  308.696
  308.645
  308.469
  308.285
  308.163
  308.087
  308.032
  307.983
  307.932
  307.881
  307.832
  307.785
  307.74
  307.696
  307.653
  307.611
  307.569
  307.528
  307.487
  307.446
  307.405
  307.364
  307.322
  307.278
  307.231
  307.178
  307.113
  307.022
)
;

boundaryField
{
  floor
  {
    type wallHeatTransfer;
    Tinf uniform 305.2;
    alphaWall uniform 0.24;
    value nonuniform List<scalar> 29
(
  309.165
  305.918
  305.899
  305.843
  305.837
  305.855
  305.874
  305.894
  305.914
  305.934
  305.953
  305.971
  305.989
  306.011
  306.043
  306.083
  306.122
  306.129
  306.148
  306.155
  306.155
  306.3
  306.44
  306.575
  309.165
  305.918
  305.991
  306.069
  306.387
)
;
  }
  ceiling
  {
    type wallHeatTransfer;
    Tinf uniform 303.2;
    alphaWall uniform 0.24;
    value nonuniform List<scalar> 43
(
  311.397
  311.364
  311.057
  310.186
  308.312
  308.214
  308.209
  308.208
  308.21
  308.216
  308.213
  308.202
  308.177
  308.131
  307.969
  307.799
  307.693
  307.635
  307.6
  307.575
  307.55
  307.521
  307.487
  307.449
  307.409
  307.368
  307.326
  307.285
  307.244
  307.204
  307.164
  307.125
  307.086
  307.047
  307.006
  306.964
  306.917
  306.863
  306.795
  306.677
  309.532
  309.496
  310.114
)
;
  }
  sWall
  {
    type wallHeatTransfer;
    Tinf uniform 315.2;
    alphaWall uniform 0.36;
    value uniform 312.754;
  }
  nWall
  {
    type wallHeatTransfer;
    Tinf uniform 307.2;
    alphaWall uniform 0.36;
    value nonuniform List<scalar> 6
(
  307.017
  307.044
  307.061
  307.091
  307.098
  307.045
)
;
  }
  sideWalls
  {
    type empty;
  }
  glass1
  {
    type wallHeatTransfer;
    Tinf uniform 315.2;
    alphaWall uniform 4.3;
    value nonuniform List<scalar> 9
(
  312.574
  312.416
  312.309
  312.224
  312.145
  312.065
  311.975
  311.874
  311.756
)
;
  }
  glass2
  {
    type wallHeatTransfer;
    Tinf uniform 307.2;
    alphaWall uniform 4.3;
    value nonuniform List<scalar> 2
(
  307.151
  307.151
)
;
  }
  sun
  {
    type wallHeatTransfer;
    Tinf uniform 305.2;
    alphaWall uniform 0.24;
    value nonuniform List<scalar> 14
(
  309.626
  309.527
  309.472
  309.434
  309.405
  309.381
  309.362
  309.344
  309.325
  309.307
  309.287
  309.266
  309.242
  309.212
)
;
  }
  heatsource1
  {
    type fixedGradient;
    gradient uniform 0;
  }
  heatsource2
  {
    type fixedGradient;
    gradient uniform 0;
  }
  Table_master
  {
    type zeroGradient;
  }
  Table_slave
  {
    type zeroGradient;
  }
  inlet
  {
    type fixedValue;
    value uniform 290.15;
  }
  outlet
  {
    type zeroGradient;
  }
} 	// ************************************************************************* //

