// -*- C++ -*-
// File generated by PyFoam - sorry for the ugliness

FoamFile
{
 version 2.0;
 format ascii;
 class volVectorField;
 location "200";
 object U;
}

dimensions [ 0 1 -1 0 0 0 0 ];

internalField nonuniform List<vector> 459
(
  (0.302849 -0.195154 0)
  (0.295641 -0.150575 0)
  (0.416896 -0.0987136 0)
  (0.505943 -0.0659089 0)
  (0.547406 -0.0467909 0)
  (0.563418 -0.0340109 0)
  (0.568461 -0.0241239 0)
  (0.564162 -0.0153874 0)
  (0.55014 -0.00705185 0)
  (0.525689 0.00151575 0)
  (0.489774 0.0110225 0)
  (0.440518 0.0225633 0)
  (0.37421 0.0387329 0)
  (0.279071 0.068696 0)
  (0.207223 0.146264 0)
  (-0.0819265 -0.00579157 0)
  (0.0339182 0.00069211 0)
  (0.00787279 -0.000573274 0)
  (0.00393741 -7.12401e-05 0)
  (0.00360462 -5.60013e-05 0)
  (0.00315766 -0.000593487 0)
  (0.00366416 -0.00131595 0)
  (0.00520829 -0.00158688 0)
  (0.00721053 -0.00162921 0)
  (0.00903852 -0.00152395 0)
  (0.0104159 -0.00127272 0)
  (0.0111962 -0.000798268 0)
  (0.0109819 0.00015865 0)
  (0.00948475 0.00156474 0)
  (0.00719963 0.00256963 0)
  (0.00425368 0.00326398 0)
  (-0.00814273 0.00433816 0)
  (-0.0221749 0.00219618 0)
  (0.0612487 -0.00670183 0)
  (0.337728 -0.343831 0)
  (0.213478 -0.233091 0)
  (0.321056 -0.123641 0)
  (0.393439 -0.0616341 0)
  (0.423112 -0.0298417 0)
  (0.435567 -0.00942917 0)
  (0.442134 0.00758291 0)
  (0.442307 0.0225961 0)
  (0.433761 0.036581 0)
  (0.415778 0.0508539 0)
  (0.387704 0.066621 0)
  (0.349139 0.0852131 0)
  (0.301323 0.108781 0)
  (0.24707 0.141771 0)
  (0.217465 0.198506 0)
  (0.186114 0.171662 0)
  (0.0773222 0.110256 0)
  (-0.118985 -0.00298975 0)
  (0.036219 -0.00130896 0)
  (-0.00547354 0.0022659 0)
  (-0.00643169 0.00298318 0)
  (-0.00802986 0.00318424 0)
  (-0.0091273 0.0025021 0)
  (-0.00906952 0.000326964 0)
  (-0.00869686 -0.000485435 0)
  (-0.00819412 -0.000430846 0)
  (-0.0080436 0.000136518 0)
  (-0.00817443 0.00118066 0)
  (-0.0086386 0.00259989 0)
  (-0.00940804 0.00388733 0)
  (-0.00954147 0.00473315 0)
  (-0.00826778 0.00480727 0)
  (-0.00578596 0.00462012 0)
  (-0.00513374 0.00579555 0)
  (-0.0261022 0.00434069 0)
  (0.0996702 -0.00577541 0)
  (0.343918 -0.501732 0)
  (0.105506 -0.325833 0)
  (0.215318 -0.176503 0)
  (0.266711 -0.0998639 0)
  (0.281102 -0.0623531 0)
  (0.28995 -0.03707 0)
  (0.297912 -0.014939 0)
  (0.303504 0.00748441 0)
  (0.302086 0.0314136 0)
  (0.292964 0.0574148 0)
  (0.275533 0.0858038 0)
  (0.249677 0.116725 0)
  (0.216799 0.15025 0)
  (0.177469 0.185931 0)
  (0.146752 0.222517 0)
  (0.107426 0.182062 0)
  (0.0428094 0.125495 0)
  (-0.108749 0.00876316 0)
  (-0.00111425 0.000192633 0)
  (-0.0210499 0.00359378 0)
  (-0.0217282 0.00373128 0)
  (-0.0220907 0.00300487 0)
  (-0.0224217 0.000144833 0)
  (-0.0217527 -0.00754169 0)
  (-0.0248436 -0.00877465 0)
  (-0.0273404 -0.00840198 0)
  (-0.0293707 -0.00784156 0)
  (-0.0306363 -0.00719187 0)
  (-0.0308936 -0.00650207 0)
  (-0.0300341 -0.00590072 0)
  (-0.028214 -0.00589452 0)
  (-0.0245093 -0.00682917 0)
  (-0.0210273 -0.00541855 0)
  (-0.0135848 -0.00366676 0)
  (-0.0247079 -0.00371249 0)
  (0.116679 -0.00503513 0)
  (0.337093 -0.604517 0)
  (0.0118459 -0.378407 0)
  (0.133656 -0.197809 0)
  (0.157169 -0.110295 0)
  (0.152962 -0.0703981 0)
  (0.16041 -0.0418784 0)
  (0.16983 -0.0159621 0)
  (0.178915 0.0106962 0)
  (0.182015 0.0393573 0)
  (0.178683 0.0710734 0)
  (0.168324 0.105936 0)
  (0.15054 0.143327 0)
  (0.125806 0.181944 0)
  (0.0924074 0.219627 0)
  (0.0619306 0.253315 0)
  (0.0280437 0.228674 0)
  (-0.0186042 0.149927 0)
  (-0.0670753 -0.0288568 0)
  (-0.055034 0.0100114 0)
  (-0.0489394 0.00462022 0)
  (-0.0581649 0.0065518 0)
  (-0.0623222 0.00620193 0)
  (-0.0661911 0.00458992 0)
  (-0.0700678 0.0017417 0)
  (-0.072955 -0.00123425 0)
  (-0.0739282 -0.00204942 0)
  (-0.0737612 -0.00300952 0)
  (-0.0725112 -0.00386297 0)
  (-0.0703501 -0.00475778 0)
  (-0.0672343 -0.00580375 0)
  (-0.0627853 -0.00711688 0)
  (-0.0562928 -0.00888061 0)
  (-0.0475692 -0.0112948 0)
  (-0.0394846 -0.0137232 0)
  (-0.0347146 -0.0175536 0)
  (-0.0325061 -0.0184825 0)
  (0.107911 -0.00762115 0)
  (0.312023 -0.664962 0)
  (-0.0567785 -0.411568 0)
  (0.073942 -0.201579 0)
  (0.0643869 -0.104394 0)
  (0.0422732 -0.0765079 0)
  (0.0560017 -0.0521829 0)
  (0.0670512 -0.0265485 0)
  (0.0769773 0.0031385 0)
  (0.0803686 0.0375206 0)
  (0.0784606 0.0759574 0)
  (0.0710082 0.117799 0)
  (0.0573433 0.161942 0)
  (0.0376126 0.206864 0)
  (0.00955918 0.250711 0)
  (-0.0143149 0.286021 0)
  (-0.0348875 0.261732 0)
  (-0.0538252 0.174467 0)
  (-0.0660057 0.0299422 0)
  (-0.0627683 0.0148441 0)
  (-0.0676514 0.0105595 0)
  (-0.0714317 0.0104968 0)
  (-0.0728358 0.00956724 0)
  (-0.0733892 0.00782564 0)
  (-0.0735803 0.00546424 0)
  (-0.0734117 0.00303303 0)
  (-0.0727568 0.00100294 0)
  (-0.0716886 -0.00057295 0)
  (-0.0703078 -0.00184602 0)
  (-0.06866 -0.0030299 0)
  (-0.0667809 -0.00433444 0)
  (-0.0646221 -0.00598465 0)
  (-0.0620811 -0.00832684 0)
  (-0.0594159 -0.0118539 0)
  (-0.0579711 -0.0165728 0)
  (-0.0603741 -0.0205284 0)
  (-0.0656865 -0.020538 0)
  (-0.0638223 -0.013056 0)
  (-0.0555105 -0.0126952 0)
  (-0.0403406 -0.0197917 0)
  (-0.0721236 -0.0259735 0)
  (0.260727 -0.682407 0)
  (-0.0998522 -0.424855 0)
  (0.0201468 -0.181281 0)
  (-0.0150907 -0.0789832 0)
  (-0.0479341 -0.0808733 0)
  (-0.0315243 -0.0625862 0)
  (-0.0236323 -0.0368041 0)
  (-0.0171763 -0.00384121 0)
  (-0.0139382 0.0363266 0)
  (-0.015527 0.0804345 0)
  (-0.0204932 0.128153 0)
  (-0.0298396 0.178242 0)
  (-0.043314 0.228741 0)
  (-0.0607903 0.274994 0)
  (-0.0714323 0.303179 0)
  (-0.0761658 0.272163 0)
  (-0.0746871 0.173059 0)
  (-0.0714682 0.0420379 0)
  (-0.0713839 0.018514 0)
  (-0.0736117 0.0131421 0)
  (-0.0738219 0.0110836 0)
  (-0.072459 0.00885807 0)
  (-0.0703545 0.00624129 0)
  (-0.0680327 0.00343999 0)
  (-0.0657768 0.000860832 0)
  (-0.0635857 -0.00125897 0)
  (-0.061596 -0.00290557 0)
  (-0.0596832 -0.00424097 0)
  (-0.0578189 -0.00544772 0)
  (-0.0560053 -0.0066876 0)
  (-0.0542675 -0.00811574 0)
  (-0.0526777 -0.0099385 0)
  (-0.0514891 -0.0124157 0)
  (-0.0512746 -0.0155109 0)
  (-0.0526068 -0.0181791 0)
  (-0.0544532 -0.0186674 0)
  (-0.0525798 -0.0160864 0)
  (-0.0423541 -0.0180784 0)
  (-0.0295153 -0.0300452 0)
  (-0.0644899 -0.0497429 0)
  (0.169285 -0.631391 0)
  (-0.134819 -0.394103 0)
  (-0.0673507 -0.154976 0)
  (-0.0890212 -0.0463495 0)
  (-0.140909 -0.0779845 0)
  (-0.125546 -0.067649 0)
  (-0.118439 -0.0412443 0)
  (-0.112284 -0.00507677 0)
  (-0.106861 0.0370569 0)
  (-0.105014 0.0836136 0)
  (-0.104514 0.133908 0)
  (-0.105753 0.186632 0)
  (-0.108245 0.238927 0)
  (-0.110885 0.28356 0)
  (-0.106829 0.30324 0)
  (-0.0967228 0.26326 0)
  (-0.0813899 0.156678 0)
  (-0.0703479 0.0437206 0)
  (-0.0704445 0.0193151 0)
  (-0.0697262 0.012414 0)
  (-0.0668144 0.00870404 0)
  (-0.0625404 0.00540972 0)
  (-0.0578209 0.0023596 0)
  (-0.0531622 -0.00030559 0)
  (-0.0492857 -0.00243573 0)
  (-0.0462534 -0.00408946 0)
  (-0.0437423 -0.00542627 0)
  (-0.0415628 -0.00658479 0)
  (-0.039589 -0.00768264 0)
  (-0.0377611 -0.00882584 0)
  (-0.0360772 -0.0101177 0)
  (-0.0345986 -0.0116747 0)
  (-0.0334812 -0.0135983 0)
  (-0.0329605 -0.0158091 0)
  (-0.0331612 -0.0178138 0)
  (-0.0335673 -0.0188613 0)
  (-0.0323152 -0.0193858 0)
  (-0.0260038 -0.0239341 0)
  (-0.0184625 -0.0406499 0)
  (-0.0640991 -0.0765138 0)
  (0.0286547 -0.494284 0)
  (-0.269418 -0.311003 0)
  (-0.268527 -0.135795 0)
  (-0.188631 -0.0101324 0)
  (-0.255372 -0.0900156 0)
  (-0.222481 -0.0820556 0)
  (-0.208343 -0.0518241 0)
  (-0.198354 -0.0117607 0)
  (-0.188951 0.033303 0)
  (-0.181781 0.0810084 0)
  (-0.173626 0.131492 0)
  (-0.163913 0.183734 0)
  (-0.152134 0.234407 0)
  (-0.137863 0.275119 0)
  (-0.118628 0.287746 0)
  (-0.0959649 0.24207 0)
  (-0.0717937 0.135589 0)
  (-0.0568022 0.0412974 0)
  (-0.0564915 0.0169946 0)
  (-0.0529894 0.00827771 0)
  (-0.0465455 0.00301202 0)
  (-0.0386728 -0.000818653 0)
  (-0.0317168 -0.00325484 0)
  (-0.0264645 -0.0046875 0)
  (-0.0225762 -0.00563731 0)
  (-0.0197272 -0.00643461 0)
  (-0.0175405 -0.0072159 0)
  (-0.0157548 -0.00802283 0)
  (-0.0142104 -0.00887921 0)
  (-0.0128294 -0.00981628 0)
  (-0.011593 -0.0108803 0)
  (-0.0105305 -0.0121311 0)
  (-0.00971617 -0.0136065 0)
  (-0.0092368 -0.0152248 0)
  (-0.00910464 -0.0166791 0)
  (-0.00914375 -0.0175265 0)
  (-0.00870773 -0.0180051 0)
  (-0.00624764 -0.0213234 0)
  (-0.00593663 -0.0382642 0)
  (-0.0677512 -0.0871157 0)
  (-0.195028 -0.339458 0)
  (-0.623372 -0.288881 0)
  (-0.852013 -0.257197 0)
  (-0.232479 -0.131431 0)
  (-0.347734 -0.137462 0)
  (-0.289718 -0.105499 0)
  (-0.270817 -0.0648696 0)
  (-0.260101 -0.0230497 0)
  (-0.25039 0.0214501 0)
  (-0.238673 0.0691361 0)
  (-0.222373 0.117752 0)
  (-0.200609 0.166712 0)
  (-0.173231 0.213189 0)
  (-0.141307 0.249355 0)
  (-0.106558 0.258406 0)
  (-0.0725413 0.213511 0)
  (-0.0399848 0.115008 0)
  (-0.020831 0.0376326 0)
  (-0.0213769 0.0152854 0)
  (-0.0155817 0.00575303 0)
  (-0.00537842 9.68882e-05 0)
  (0.00230857 -0.00276109 0)
  (0.00775048 -0.0036834 0)
  (0.0113789 -0.00388263 0)
  (0.0137187 -0.00399434 0)
  (0.015224 -0.00425339 0)
  (0.0162408 -0.00469282 0)
  (0.016968 -0.00527213 0)
  (0.0174997 -0.00595583 0)
  (0.0178689 -0.00673998 0)
  (0.0180779 -0.00765336 0)
  (0.0181147 -0.00874562 0)
  (0.017964 -0.0100546 0)
  (0.0176286 -0.0115416 0)
  (0.0171685 -0.0130149 0)
  (0.0167124 -0.0141181 0)
  (0.0164086 -0.0146563 0)
  (0.0157702 -0.0164192 0)
  (0.0105166 -0.0297029 0)
  (-0.0313953 -0.0817741 0)
  (-1.99758 -0.282793 0)
  (-0.0776768 -0.268775 0)
  (-0.323161 -0.189347 0)
  (-0.300575 -0.123624 0)
  (-0.299409 -0.0609646 0)
  (-0.295645 -0.00476613 0)
  (-0.286281 0.0399676 0)
  (-0.271536 0.0724953 0)
  (-0.248916 0.106804 0)
  (-0.216407 0.143008 0)
  (-0.174192 0.178821 0)
  (-0.124878 0.207813 0)
  (-0.0735391 0.215989 0)
  (-0.0248862 0.179368 0)
  (0.0257585 0.0894225 0)
  (0.0457264 0.0420653 0)
  (0.0476092 0.0232093 0)
  (0.0525423 0.00897156 0)
  (0.0557206 0.000293061 0)
  (0.0568365 -0.00274049 0)
  (0.056876 -0.00320141 0)
  (0.0565137 -0.00304531 0)
  (0.0560319 -0.00308168 0)
  (0.05551 -0.00348081 0)
  (0.0549291 -0.00416555 0)
  (0.0542254 -0.00502614 0)
  (0.0533332 -0.00601279 0)
  (0.0522059 -0.00715262 0)
  (0.0508199 -0.00853236 0)
  (0.0491698 -0.0102686 0)
  (0.0472663 -0.0124672 0)
  (0.0451493 -0.0151643 0)
  (0.0429265 -0.0182468 0)
  (0.0408259 -0.0213703 0)
  (0.0390929 -0.0240217 0)
  (0.0368184 -0.0267343 0)
  (0.0301802 -0.0372565 0)
  (0.0180537 -0.0878281 0)
  (-0.457988 0.052364 0)
  (0.0737909 -0.244918 0)
  (-0.202303 -0.197468 0)
  (-0.251196 -0.183836 0)
  (-0.292925 -0.171245 0)
  (-0.315165 -0.151021 0)
  (-0.317304 -0.115663 0)
  (-0.301206 -0.0608146 0)
  (-0.271323 -0.0130581 0)
  (-0.226898 0.0303258 0)
  (-0.168862 0.0709642 0)
  (-0.100772 0.104887 0)
  (-0.0257746 0.115967 0)
  (0.055198 0.0643186 0)
  (0.112397 -0.015588 0)
  (0.137023 -0.0731325 0)
  (0.141087 -0.109516 0)
  (0.135146 -0.126355 0)
  (0.125518 -0.126048 0)
  (0.116082 -0.118891 0)
  (0.108853 -0.110613 0)
  (0.103951 -0.103656 0)
  (0.100637 -0.0986533 0)
  (0.098102 -0.0954419 0)
  (0.0957387 -0.0935997 0)
  (0.0931684 -0.092678 0)
  (0.0901969 -0.0922923 0)
  (0.0867547 -0.0921509 0)
  (0.0828405 -0.0920601 0)
  (0.0784787 -0.0919154 0)
  (0.0736989 -0.0916828 0)
  (0.0685483 -0.0913746 0)
  (0.0631587 -0.0910262 0)
  (0.0578988 -0.0906714 0)
  (0.0535966 -0.0903104 0)
  (0.0510124 -0.0903331 0)
  (0.054719 -0.0968615 0)
  (0.0366316 -0.160913 0)
  (0.454567 0.20269 0)
  (0.229386 -0.0819909 0)
  (0.0125057 0.244431 0)
  (0.0842659 0.180328 0)
  (-0.116796 0.228525 0)
  (-0.193753 0.292987 0)
  (-0.246539 0.322575 0)
  (-0.278906 0.332753 0)
  (-0.292186 0.325815 0)
  (-0.284763 0.302643 0)
  (-0.254748 0.291988 0)
  (-0.20379 0.290787 0)
  (-0.13638 0.297224 0)
  (-0.0634831 0.309942 0)
  (0.0537844 0.313425 0)
  (0.128566 0.304337 0)
  (0.1841 0.308227 0)
  (0.211614 0.321304 0)
  (0.218679 0.333736 0)
  (0.215698 0.336946 0)
  (0.209006 0.326361 0)
  (0.201796 0.31051 0)
  (0.194408 0.295347 0)
  (0.186684 0.2836 0)
  (0.178618 0.275905 0)
  (0.170317 0.271854 0)
  (0.161905 0.270611 0)
  (0.153481 0.271241 0)
  (0.145094 0.27289 0)
  (0.136727 0.27488 0)
  (0.128291 0.276755 0)
  (0.119622 0.27828 0)
  (0.110483 0.27941 0)
  (0.100571 0.280248 0)
  (0.0895229 0.28103 0)
  (0.076898 0.282137 0)
  (0.0621506 0.284056 0)
  (0.0448456 0.287788 0)
  (0.0326841 0.304614 0)
  (-0.0473937 0.443444 0)
)
;

boundaryField
{
  floor
  {
    type noSlip;
  }
  ceiling
  {
    type noSlip;
  }
  sWall
  {
    type noSlip;
  }
  nWall
  {
    type noSlip;
  }
  sideWalls
  {
    type empty;
  }
  glass1
  {
    type noSlip;
  }
  glass2
  {
    type noSlip;
  }
  sun
  {
    type noSlip;
  }
  heatsource1
  {
    type noSlip;
  }
  heatsource2
  {
    type noSlip;
  }
  Table_master
  {
    type noSlip;
  }
  Table_slave
  {
    type noSlip;
  }
  inlet
  {
    type fixedValue;
    value uniform (0.1 0 0);
  }
  outlet
  {
    type zeroGradient;
  }
} 	// ************************************************************************* //

