// -*- C++ -*-
// File generated by PyFoam - sorry for the ugliness

FoamFile
{
 version 2.0;
 format ascii;
 class volScalarField;
 location "200";
 object T;
}

dimensions [ 0 0 0 1 0 0 0 ];

internalField nonuniform List<scalar> 459
(
  307.738
  307.607
  307.555
  307.527
  307.509
  307.495
  307.486
  307.479
  307.471
  307.464
  307.457
  307.449
  307.441
  307.432
  307.418
  305.093
  305.081
  305.068
  305.059
  305.052
  305.047
  305.043
  305.042
  305.044
  305.047
  305.052
  305.058
  305.065
  305.081
  305.108
  305.145
  305.158
  305.15
  305.153
  307.669
  307.477
  307.394
  307.35
  307.324
  307.307
  307.3
  307.298
  307.3
  307.305
  307.314
  307.327
  307.343
  307.364
  307.384
  307.375
  307.355
  305.102
  305.091
  305.078
  305.066
  305.056
  305.046
  305.04
  305.046
  305.059
  305.075
  305.092
  305.112
  305.141
  305.168
  305.2
  305.238
  305.246
  305.241
  305.224
  307.613
  307.338
  307.23
  307.176
  307.143
  307.124
  307.116
  307.119
  307.132
  307.153
  307.181
  307.215
  307.253
  307.295
  307.335
  307.347
  307.34
  305.146
  305.141
  305.14
  305.141
  305.142
  305.143
  305.056
  305.076
  305.112
  305.151
  305.188
  305.221
  305.252
  305.29
  305.338
  305.394
  305.394
  305.38
  305.337
  307.56
  307.216
  307.104
  307.051
  307.02
  307.002
  306.992
  306.994
  307.012
  307.043
  307.084
  307.134
  307.189
  307.246
  307.299
  307.325
  307.291
  305.942
  305.307
  305.3
  305.329
  305.363
  305.393
  305.417
  305.44
  305.452
  305.464
  305.476
  305.487
  305.499
  305.51
  305.519
  305.526
  305.524
  305.531
  305.534
  305.5
  307.505
  307.127
  307.033
  306.987
  306.967
  306.955
  306.944
  306.94
  306.955
  306.987
  307.034
  307.092
  307.155
  307.221
  307.281
  307.299
  307.116
  305.806
  305.399
  305.381
  305.403
  305.428
  305.45
  305.468
  305.483
  305.496
  305.508
  305.52
  305.532
  305.546
  305.559
  305.574
  305.587
  305.599
  305.613
  305.626
  305.634
  305.647
  305.632
  305.623
  307.444
  307.077
  307.006
  306.969
  306.966
  306.959
  306.947
  306.937
  306.947
  306.979
  307.028
  307.088
  307.153
  307.216
  307.26
  307.214
  306.858
  305.721
  305.446
  305.434
  305.454
  305.476
  305.495
  305.512
  305.525
  305.536
  305.546
  305.556
  305.566
  305.578
  305.592
  305.608
  305.625
  305.642
  305.658
  305.671
  305.68
  305.682
  305.654
  305.627
  307.371
  307.065
  307.011
  306.981
  306.985
  306.984
  306.98
  306.978
  306.987
  307.014
  307.055
  307.106
  307.16
  307.204
  307.205
  307.068
  306.596
  305.677
  305.492
  305.489
  305.511
  305.535
  305.555
  305.571
  305.582
  305.589
  305.594
  305.598
  305.603
  305.61
  305.619
  305.633
  305.649
  305.666
  305.683
  305.696
  305.704
  305.703
  305.687
  305.633
  307.301
  307.065
  307.031
  306.997
  307.006
  307.016
  307.023
  307.029
  307.039
  307.058
  307.087
  307.122
  307.153
  307.163
  307.109
  306.894
  306.38
  305.677
  305.555
  305.562
  305.591
  305.62
  305.643
  305.657
  305.662
  305.664
  305.662
  305.659
  305.655
  305.653
  305.653
  305.657
  305.666
  305.68
  305.696
  305.713
  305.729
  305.743
  305.756
  305.776
  307.243
  307.084
  307.082
  306.987
  307.002
  307.024
  307.041
  307.056
  307.067
  307.079
  307.095
  307.11
  307.115
  307.089
  306.992
  306.742
  306.256
  305.732
  305.651
  305.669
  305.709
  305.744
  305.762
  305.768
  305.767
  305.762
  305.755
  305.745
  305.733
  305.721
  305.71
  305.702
  305.698
  305.698
  305.702
  305.709
  305.716
  305.723
  305.732
  305.77
  307.203
  306.962
  306.972
  306.997
  307.019
  307.036
  307.049
  307.057
  307.062
  307.061
  307.045
  306.999
  306.889
  306.658
  306.25
  305.878
  305.82
  305.831
  305.863
  305.883
  305.891
  305.891
  305.885
  305.875
  305.862
  305.847
  305.83
  305.812
  305.794
  305.776
  305.76
  305.748
  305.741
  305.738
  305.737
  305.736
  305.735
  305.74
  307.096
  306.936
  306.933
  306.952
  306.968
  306.98
  306.989
  306.993
  306.991
  306.981
  306.958
  306.911
  306.821
  306.639
  306.322
  306.155
  306.09
  306.065
  306.05
  306.041
  306.031
  306.019
  306.004
  305.988
  305.97
  305.949
  305.928
  305.905
  305.881
  305.858
  305.836
  305.816
  305.799
  305.786
  305.775
  305.763
  305.75
  305.744
  309.949
  309.765
  307.469
  306.93
  306.886
  306.889
  306.893
  306.896
  306.898
  306.901
  306.898
  306.89
  306.874
  306.846
  306.798
  306.631
  306.496
  306.422
  306.375
  306.337
  306.3
  306.263
  306.227
  306.193
  306.16
  306.128
  306.097
  306.067
  306.036
  306.006
  305.976
  305.946
  305.917
  305.888
  305.861
  305.835
  305.809
  305.782
  305.747
  305.7
)
;

boundaryField
{
  floor
  {
    type wallHeatTransfer;
    Tinf uniform 305.2;
    alphaWall uniform 0.24;
    value nonuniform List<scalar> 29
(
  307.238
  305.13
  305.123
  305.118
  305.114
  305.112
  305.111
  305.108
  305.107
  305.107
  305.107
  305.108
  305.109
  305.112
  305.12
  305.136
  305.16
  305.169
  305.164
  305.166
  305.166
  305.218
  305.311
  305.457
  307.238
  305.13
  305.132
  305.159
  305.845
)
;
  }
  ceiling
  {
    type wallHeatTransfer;
    Tinf uniform 303.2;
    alphaWall uniform 0.24;
    value nonuniform List<scalar> 43
(
  309.339
  309.166
  307.176
  306.568
  306.522
  306.52
  306.523
  306.526
  306.529
  306.534
  306.533
  306.527
  306.514
  306.491
  306.448
  306.294
  306.167
  306.101
  306.063
  306.038
  306.017
  305.995
  305.971
  305.944
  305.917
  305.888
  305.858
  305.829
  305.8
  305.771
  305.742
  305.714
  305.686
  305.659
  305.632
  305.606
  305.579
  305.548
  305.509
  305.463
  307.098
  306.959
  306.917
)
;
  }
  sWall
  {
    type wallHeatTransfer;
    Tinf uniform 315.2;
    alphaWall uniform 0.36;
    value uniform 310.631;
  }
  nWall
  {
    type wallHeatTransfer;
    Tinf uniform 307.2;
    alphaWall uniform 0.36;
    value nonuniform List<scalar> 6
(
  305.929
  305.923
  305.92
  305.906
  305.902
  305.904
)
;
  }
  sideWalls
  {
    type empty;
  }
  glass1
  {
    type wallHeatTransfer;
    Tinf uniform 315.2;
    alphaWall uniform 4.3;
    value nonuniform List<scalar> 9
(
  311.598
  311.359
  311.214
  311.105
  311.005
  310.902
  310.784
  310.64
  310.443
)
;
  }
  glass2
  {
    type wallHeatTransfer;
    Tinf uniform 307.2;
    alphaWall uniform 4.3;
    value nonuniform List<scalar> 2
(
  306.672
  306.644
)
;
  }
  sun
  {
    type wallHeatTransfer;
    Tinf uniform 305.2;
    alphaWall uniform 0.24;
    value nonuniform List<scalar> 14
(
  307.596
  307.469
  307.416
  307.386
  307.365
  307.349
  307.338
  307.328
  307.318
  307.308
  307.298
  307.287
  307.275
  307.261
)
;
  }
  heatsource1
  {
    type fixedGradient;
    gradient uniform 0;
  }
  heatsource2
  {
    type fixedGradient;
    gradient uniform 0;
  }
  Table_master
  {
    type zeroGradient;
  }
  Table_slave
  {
    type zeroGradient;
  }
  inlet
  {
    type fixedValue;
    value uniform 290.15;
  }
  outlet
  {
    type zeroGradient;
  }
} 	// ************************************************************************* //

