/*--------------------------------*- C++ -*----------------------------------*\
  =========                 |
  \\      /  F ield         | OpenFOAM: The Open Source CFD Toolbox
   \\    /   O peration     | Website:  https://openfoam.org
    \\  /    A nd           | Version:  6
     \\/     M anipulation  |
\*---------------------------------------------------------------------------*/
FoamFile
{
    version     2.0;
    format      ascii;
    class       volScalarField;
    location    "800";
    object      epsilon;
}
// * * * * * * * * * * * * * * * * * * * * * * * * * * * * * * * * * * * * * //

dimensions      [0 2 -3 0 0 0 0];

internalField   nonuniform List<scalar> 
459
(
0.000441263
0.00057511
0.000607351
0.000698952
0.000791461
0.000884944
0.000983181
0.00108731
0.00116605
0.00120217
0.00118082
0.00109671
0.000958755
0.000792606
0.000634362
3.75957e-05
6.93862e-05
9.81734e-05
9.54806e-05
8.55441e-05
7.38359e-05
6.0996e-05
4.99017e-05
4.10819e-05
3.4175e-05
2.87408e-05
2.44197e-05
2.09587e-05
1.81407e-05
1.57741e-05
1.36903e-05
1.1721e-05
1.04152e-05
7.84885e-06
0.00111898
0.00160948
0.000544893
0.000528512
0.000553713
0.000594005
0.000652548
0.000731145
0.000807283
0.000858051
0.000863805
0.00081681
0.000722841
0.000604803
0.000525663
0.000669001
0.000142752
4.82142e-05
0.000118996
0.000123174
0.000110349
9.28821e-05
7.70135e-05
6.85233e-05
5.54561e-05
4.40205e-05
3.49639e-05
2.79704e-05
2.25899e-05
1.8455e-05
1.5285e-05
1.29604e-05
1.15647e-05
1.09694e-05
2.47481e-05
1.74644e-05
0.00204212
0.00394599
0.00068117
0.000506464
0.00052982
0.000593505
0.000687218
0.000806098
0.000918544
0.000991591
0.00100614
0.000960525
0.000864527
0.000738906
0.000630138
0.000569289
0.000644245
0.00038932
0.000270494
0.000200809
0.000153283
0.000119605
9.95898e-05
0.000178842
0.000123335
8.81594e-05
6.52243e-05
4.9786e-05
3.90722e-05
3.14447e-05
2.5929e-05
2.19601e-05
1.66528e-05
1.38343e-05
4.37002e-05
2.69042e-05
0.0033084
0.00818682
0.00109414
0.000520048
0.000522633
0.000613525
0.000758705
0.000941544
0.00109088
0.00117097
0.00117592
0.00111519
0.00100146
0.000852188
0.000714907
0.000613877
0.000585328
0.00112105
0.000617619
0.000368153
0.000245161
0.000175639
0.000132986
0.000113086
0.000256312
0.00019345
0.000155341
0.000129899
0.000110623
9.47662e-05
8.10599e-05
6.8198e-05
5.51009e-05
3.24553e-05
2.10735e-05
6.74043e-05
3.61871e-05
0.00505186
0.0145668
0.0021894
0.000642532
0.00055316
0.000672728
0.000930937
0.00120762
0.00137045
0.00142658
0.00139823
0.00130342
0.00115404
0.000969066
0.000778648
0.000608765
0.000479462
0.000416654
0.000333544
0.000259679
0.000201248
0.000157182
0.00012503
0.000104227
0.000100471
9.31591e-05
8.58372e-05
7.86964e-05
7.13358e-05
6.3692e-05
5.61963e-05
4.91468e-05
4.2691e-05
3.3891e-05
2.57366e-05
5.01978e-05
3.97968e-05
6.77342e-05
0.000120635
0.000170438
0.00747427
0.0215882
0.00493166
0.00129465
0.00088105
0.00101141
0.00149081
0.00175087
0.00182766
0.00180209
0.00171287
0.00156645
0.00136386
0.00112041
0.000867271
0.000639411
0.000465004
0.000353495
0.000280739
0.000224769
0.000178667
0.000142586
0.000116297
9.93406e-05
9.12843e-05
8.75909e-05
8.51082e-05
8.21538e-05
7.77194e-05
7.0988e-05
6.20341e-05
5.27865e-05
4.43311e-05
3.67597e-05
3.16774e-05
3.97652e-05
4.12112e-05
5.16063e-05
0.000222087
0.000193207
0.0102614
0.0257775
0.0100861
0.00421502
0.00290609
0.00281585
0.00285897
0.0027361
0.00254982
0.00235594
0.00215436
0.00191938
0.00163272
0.0013059
0.000975521
0.000684827
0.000469373
0.000333601
0.000251831
0.000196881
0.000155841
0.000126171
0.000106725
9.61848e-05
9.28774e-05
9.37482e-05
9.59897e-05
9.81762e-05
9.92799e-05
9.77943e-05
9.07098e-05
8.01221e-05
6.96169e-05
6.06033e-05
5.68318e-05
6.261e-05
7.86756e-05
0.000124687
0.000290202
0.000282995
0.0108722
0.0279419
0.0156312
0.0107377
0.00812337
0.0063264
0.00499051
0.00408191
0.00348368
0.00306936
0.00272459
0.0023636
0.00194667
0.00149507
0.00105978
0.000691287
0.000437508
0.000289563
0.000206305
0.00015981
0.000129381
0.00011007
9.95786e-05
9.60904e-05
9.79108e-05
0.000103285
0.000111001
0.000120785
0.000132768
0.000146873
0.000162103
0.000171118
0.000179404
0.000197318
0.000235115
0.000349554
0.00064035
0.00121137
0.00361144
0.00108502
0.0100288
0.0167268
0.0133242
0.0101165
0.00780495
0.00626279
0.00527036
0.00464621
0.00422252
0.00384648
0.00340994
0.00286042
0.00220872
0.00155803
0.000992507
0.000546417
0.00032015
0.000214039
0.000158749
0.000127234
0.000108318
9.79297e-05
9.38833e-05
9.46982e-05
9.9351e-05
0.000107237
0.000118334
0.000133321
0.000153489
0.00018068
0.000217341
0.000267173
0.000335896
0.000440168
0.000594609
0.000806539
0.00105296
0.00127274
0.00144204
0.000907135
0.00366644
0.00565505
0.00653331
0.00663958
0.00646427
0.00609428
0.00549097
0.00467005
0.00370907
0.00265999
0.00158328
0.000897261
0.000504251
0.000290941
0.000190238
0.000141343
0.000115624
0.000101018
9.264e-05
8.84189e-05
8.70655e-05
8.79083e-05
9.07351e-05
9.57493e-05
0.000103473
0.00011483
0.000131216
0.000154661
0.000188092
0.000235727
0.000302519
0.00039526
0.000517753
0.000660143
0.000786963
0.000848529
0.000813804
0.00052385
0.00276831
0.00636423
0.00710263
0.0059157
0.0053055
0.00462762
0.0037172
0.00276116
0.001919
0.00125826
0.000758889
0.000448724
0.000279413
0.000194919
0.000156359
0.000139076
0.000131139
0.000127088
0.00012451
0.000122447
0.000120659
0.000119289
0.000118864
0.000120175
0.00012388
0.000130812
0.000142189
0.000159813
0.000186339
0.000225104
0.000280526
0.000357155
0.00045571
0.000568396
0.000654372
0.000747932
0.000753399
0.000555794
0.00198013
0.00235667
0.00265038
0.00331093
0.00299931
0.00264242
0.00242881
0.00215149
0.00179127
0.00140053
0.00103197
0.000722758
0.000488105
0.00033135
0.000237575
0.000182997
0.000150036
0.000129033
0.000115141
0.000105894
9.99374e-05
9.64946e-05
9.5199e-05
9.6096e-05
9.9429e-05
0.000105088
0.000113355
0.000124784
0.00014024
0.000160983
0.000187546
0.000221262
0.000264175
0.000318868
0.000387647
0.000480829
0.000515878
0.000478081
0.000396546
0.000321457
)
;

boundaryField
{
    floor
    {
        Cmu             0.09;
        kappa           0.41;
        E               9.8;
        type            epsilonWallFunction;
        value           nonuniform List<scalar> 
29
(
0.000634362
3.75957e-05
6.93862e-05
9.81734e-05
9.54806e-05
8.55441e-05
7.38359e-05
6.0996e-05
4.99017e-05
4.10819e-05
3.4175e-05
2.87408e-05
2.44197e-05
2.09587e-05
1.81407e-05
1.57741e-05
1.36903e-05
1.1721e-05
1.04152e-05
7.84885e-06
7.84885e-06
1.74644e-05
2.69042e-05
3.61871e-05
0.000634362
3.75957e-05
4.82142e-05
0.00038932
0.00112105
)
;
    }
    ceiling
    {
        Cmu             0.09;
        kappa           0.41;
        E               9.8;
        type            epsilonWallFunction;
        value           nonuniform List<scalar> 
43
(
0.00198013
0.00235667
0.00265038
0.00331093
0.00299931
0.00264242
0.00242881
0.00215149
0.00179127
0.00140053
0.00103197
0.000722758
0.000488105
0.00033135
0.000237575
0.000182997
0.000150036
0.000129033
0.000115141
0.000105894
9.99374e-05
9.64946e-05
9.5199e-05
9.6096e-05
9.9429e-05
0.000105088
0.000113355
0.000124784
0.00014024
0.000160983
0.000187546
0.000221262
0.000264175
0.000318868
0.000387647
0.000480829
0.000515878
0.000478081
0.000396546
0.000321457
0.0100288
0.0167268
0.00276831
)
;
    }
    sWall
    {
        Cmu             0.09;
        kappa           0.41;
        E               9.8;
        type            epsilonWallFunction;
        value           uniform 0.00198013;
    }
    nWall
    {
        Cmu             0.09;
        kappa           0.41;
        E               9.8;
        type            epsilonWallFunction;
        value           nonuniform List<scalar> 6(0.000170438 0.000193207 0.000282995 0.00052385 0.000555794 0.000321457);
    }
    sideWalls
    {
        type            empty;
    }
    glass1
    {
        Cmu             0.09;
        kappa           0.41;
        E               9.8;
        type            epsilonWallFunction;
        value           nonuniform List<scalar> 9(0.000441263 0.00111898 0.00204212 0.0033084 0.00505186 0.00747427 0.0102614 0.0108722 0.0100288);
    }
    glass2
    {
        Cmu             0.09;
        kappa           0.41;
        E               9.8;
        type            epsilonWallFunction;
        value           nonuniform List<scalar> 2(0.00108502 0.000907135);
    }
    sun
    {
        Cmu             0.09;
        kappa           0.41;
        E               9.8;
        type            epsilonWallFunction;
        value           nonuniform List<scalar> 
14
(
0.000441263
0.00057511
0.000607351
0.000698952
0.000791461
0.000884944
0.000983181
0.00108731
0.00116605
0.00120217
0.00118082
0.00109671
0.000958755
0.000792606
)
;
    }
    heatsource1
    {
        Cmu             0.09;
        kappa           0.41;
        E               9.8;
        type            epsilonWallFunction;
        value           nonuniform List<scalar> 3(6.77342e-05 0.000120635 0.000170438);
    }
    heatsource2
    {
        Cmu             0.09;
        kappa           0.41;
        E               9.8;
        type            epsilonWallFunction;
        value           nonuniform List<scalar> 4(0.000669001 0.000142752 0.000142752 0.000644245);
    }
    Table_master
    {
        Cmu             0.09;
        kappa           0.41;
        E               9.8;
        type            epsilonWallFunction;
        value           nonuniform List<scalar> 9(0.000178842 0.000123335 8.81594e-05 6.52243e-05 4.9786e-05 3.90722e-05 3.14447e-05 2.5929e-05 2.19601e-05);
    }
    Table_slave
    {
        Cmu             0.09;
        kappa           0.41;
        E               9.8;
        type            epsilonWallFunction;
        value           nonuniform List<scalar> 9(0.000256312 0.00019345 0.000155341 0.000129899 0.000110623 9.47662e-05 8.10599e-05 6.8198e-05 5.51009e-05);
    }
    inlet
    {
        type            turbulentMixingLengthDissipationRateInlet;
        mixingLength    0.01;
        phi             phi;
        k               k;
        value           uniform 0.000101881;
    }
    outlet
    {
        type            zeroGradient;
    }
}


// ************************************************************************* //
