/*--------------------------------*- C++ -*----------------------------------*\
  =========                 |
  \\      /  F ield         | OpenFOAM: The Open Source CFD Toolbox
   \\    /   O peration     | Website:  https://openfoam.org
    \\  /    A nd           | Version:  6
     \\/     M anipulation  |
\*---------------------------------------------------------------------------*/
FoamFile
{
    version     2.0;
    format      ascii;
    class       volScalarField;
    location    "1000";
    object      epsilon;
}
// * * * * * * * * * * * * * * * * * * * * * * * * * * * * * * * * * * * * * //

dimensions      [0 2 -3 0 0 0 0];

internalField   nonuniform List<scalar> 
459
(
0.000180831
0.000219771
0.000121646
9.91397e-05
8.76481e-05
7.97711e-05
7.50404e-05
7.3279e-05
7.39239e-05
7.63309e-05
7.98999e-05
8.4071e-05
8.82606e-05
9.17871e-05
9.34879e-05
1.75015e-05
1.43439e-05
7.62732e-06
4.24177e-06
3.25585e-06
3.10345e-06
3.29329e-06
3.76273e-06
4.31048e-06
4.8177e-06
5.13835e-06
5.19621e-06
5.40691e-06
6.22553e-06
8.21478e-06
1.2295e-05
1.81627e-05
3.86746e-05
3.09677e-05
0.000929055
0.00155032
0.000382141
0.000179788
0.000116791
8.55171e-05
6.7521e-05
5.76369e-05
5.33465e-05
5.3027e-05
5.5656e-05
6.09349e-05
6.90147e-05
8.02367e-05
9.61061e-05
0.00013329
2.93248e-05
4.04912e-05
4.37676e-05
1.56711e-05
8.42946e-06
7.26902e-06
7.36013e-06
7.72452e-06
9.22042e-06
1.0917e-05
1.25054e-05
1.40711e-05
1.60672e-05
1.90906e-05
2.42958e-05
3.26275e-05
4.28288e-05
6.63687e-05
0.000168149
9.12434e-05
0.00230954
0.004861
0.00147644
0.000652513
0.000358381
0.000225208
0.00015112
0.000106824
8.20491e-05
7.08025e-05
6.77182e-05
6.9975e-05
7.62294e-05
8.58538e-05
9.87671e-05
0.000118872
0.000167198
7.07744e-05
4.65088e-05
1.6984e-05
1.19689e-05
1.11145e-05
1.08951e-05
8.64936e-06
1.03864e-05
1.27219e-05
1.57631e-05
2.00206e-05
2.64515e-05
3.70149e-05
5.63538e-05
9.68415e-05
7.7201e-05
0.000123447
0.000340448
0.000181156
0.00425053
0.00998537
0.00405244
0.00192608
0.00103309
0.000610945
0.000379598
0.000242767
0.000161822
0.000116172
9.60512e-05
9.02541e-05
9.2405e-05
9.94326e-05
0.0001088
0.000118051
0.000127854
0.000154338
5.71329e-05
3.40735e-05
2.56776e-05
2.71914e-05
3.20905e-05
4.07393e-05
5.65184e-05
5.74282e-05
5.9085e-05
6.15774e-05
6.54504e-05
7.15122e-05
8.12734e-05
9.82746e-05
0.000132697
8.53765e-05
0.000134252
0.000326277
0.000205387
0.00652148
0.015281
0.00784151
0.00417703
0.00240673
0.00143304
0.000870232
0.000533651
0.000329676
0.000207797
0.000150943
0.000124609
0.000117405
0.000120808
0.000128567
0.000134344
0.000129597
0.000106418
7.25367e-05
5.21639e-05
4.55024e-05
4.44249e-05
4.55448e-05
4.71311e-05
4.83893e-05
4.86385e-05
4.90753e-05
4.98874e-05
5.12762e-05
5.35131e-05
5.69725e-05
6.21926e-05
6.96183e-05
7.75867e-05
9.44676e-05
0.000122059
0.000153998
0.000121274
0.000129375
0.000118489
0.00936837
0.0168621
0.0121807
0.00742143
0.00443516
0.00264714
0.00158833
0.000959263
0.000585146
0.000366233
0.000244104
0.000179729
0.000149952
0.000145291
0.000151501
0.000159656
0.000159016
0.000141793
0.000116612
9.7339e-05
8.64767e-05
8.05833e-05
7.78963e-05
7.69288e-05
7.6488e-05
7.61235e-05
7.60496e-05
7.635e-05
7.71367e-05
7.85984e-05
8.09873e-05
8.46486e-05
8.99753e-05
9.69429e-05
0.000105242
0.00011471
0.000127608
0.000159578
0.000248409
0.00023203
0.00938824
0.0155729
0.0174556
0.0119632
0.00713113
0.00416149
0.00242881
0.00143319
0.000861499
0.00053359
0.000347092
0.000244526
0.000194008
0.00017385
0.000175712
0.000188899
0.000197977
0.000193374
0.000178408
0.000162438
0.000149923
0.000141066
0.000135574
0.000132529
0.000130844
0.000129918
0.00012959
0.000129759
0.000130457
0.000131895
0.000134407
0.0001384
0.000144163
0.000151145
0.000157466
0.000162562
0.000174874
0.000227015
0.000400713
0.000373346
0.00815472
0.0133474
0.0305962
0.0197765
0.0108789
0.00577005
0.00312589
0.00176683
0.00104869
0.000654492
0.000432062
0.00030679
0.000240679
0.000213249
0.00021139
0.000227264
0.00024888
0.000263489
0.00026652
0.000262114
0.000255146
0.000248288
0.000242986
0.00023956
0.000237693
0.000237074
0.000237465
0.000238462
0.000239958
0.000242219
0.000245713
0.00025093
0.000258031
0.000265964
0.000271504
0.000271103
0.00027125
0.000317858
0.000557801
0.000555892
0.00691824
0.0160967
0.0911289
0.0398406
0.0133872
0.00551264
0.00283503
0.00165419
0.00104506
0.000703506
0.000505832
0.000393672
0.000336595
0.000317543
0.00032595
0.000351973
0.000385881
0.000422685
0.000450983
0.000468657
0.000478051
0.000482079
0.000483498
0.000484277
0.000485562
0.00048799
0.000491627
0.000495464
0.000499289
0.000503631
0.000509257
0.000516778
0.000526131
0.00053564
0.00054092
0.000535548
0.000518814
0.000524179
0.000660693
0.000781015
0.152281
0.0822954
0.0151212
0.00491864
0.00246747
0.00159514
0.00115311
0.000906444
0.000772177
0.000711833
0.000703752
0.000733255
0.000788552
0.000858785
0.000933562
0.00100067
0.00105708
0.00110224
0.00113602
0.00115889
0.00117404
0.00118494
0.00119446
0.00120464
0.00121602
0.0012253
0.00123247
0.00123905
0.00124667
0.00125627
0.00126761
0.00127824
0.00128204
0.00126766
0.00121939
0.00113547
0.00114303
0.00133106
0.0847131
0.0286148
0.0104565
0.00530007
0.00297241
0.00215649
0.00182528
0.00169721
0.00169371
0.0017791
0.00192869
0.00211996
0.0023306
0.00253896
0.00272587
0.00287901
0.00299285
0.00306949
0.0031173
0.00314697
0.00316709
0.00318403
0.00320219
0.00322442
0.00325085
0.00327195
0.00328759
0.00330155
0.00331733
0.0033365
0.00335789
0.00337631
0.00338086
0.00335568
0.00329173
0.00321068
0.00324956
0.00272301
0.00074215
0.00126099
0.0235244
0.0119096
0.00488635
0.00264381
0.00232815
0.00209667
0.00192983
0.00181386
0.00174029
0.00170312
0.00169505
0.00170906
0.00173872
0.00177806
0.00182136
0.00186292
0.00189853
0.00192591
0.00194459
0.00195557
0.0019609
0.00196262
0.00196237
0.00196117
0.00195942
0.00195985
0.00195886
0.0019553
0.00194941
0.0019414
0.00193063
0.00191496
0.00189007
0.0018492
0.00178361
0.00168224
0.00152447
0.00103711
)
;

boundaryField
{
    floor
    {
        Cmu             0.09;
        kappa           0.41;
        E               9.8;
        type            epsilonWallFunction;
        value           nonuniform List<scalar> 
29
(
9.34879e-05
1.75015e-05
1.43439e-05
7.62732e-06
4.24177e-06
3.25585e-06
3.10345e-06
3.29329e-06
3.76273e-06
4.31048e-06
4.8177e-06
5.13835e-06
5.19621e-06
5.40691e-06
6.22553e-06
8.21478e-06
1.2295e-05
1.81627e-05
3.86746e-05
3.09677e-05
3.09677e-05
9.12434e-05
0.000181156
0.000205387
9.34879e-05
1.75015e-05
4.04912e-05
7.07744e-05
0.000154338
)
;
    }
    ceiling
    {
        Cmu             0.09;
        kappa           0.41;
        E               9.8;
        type            epsilonWallFunction;
        value           nonuniform List<scalar> 
43
(
0.00074215
0.00126099
0.0235244
0.0119096
0.00488635
0.00264381
0.00232815
0.00209667
0.00192983
0.00181386
0.00174029
0.00170312
0.00169505
0.00170906
0.00173872
0.00177806
0.00182136
0.00186292
0.00189853
0.00192591
0.00194459
0.00195557
0.0019609
0.00196262
0.00196237
0.00196117
0.00195942
0.00195985
0.00195886
0.0019553
0.00194941
0.0019414
0.00193063
0.00191496
0.00189007
0.0018492
0.00178361
0.00168224
0.00152447
0.00103711
0.00691824
0.0160967
0.0847131
)
;
    }
    sWall
    {
        Cmu             0.09;
        kappa           0.41;
        E               9.8;
        type            epsilonWallFunction;
        value           uniform 0.00074215;
    }
    nWall
    {
        Cmu             0.09;
        kappa           0.41;
        E               9.8;
        type            epsilonWallFunction;
        value           nonuniform List<scalar> 6(0.000118489 0.00023203 0.000373346 0.00133106 0.00272301 0.00103711);
    }
    sideWalls
    {
        type            empty;
    }
    glass1
    {
        Cmu             0.09;
        kappa           0.41;
        E               9.8;
        type            epsilonWallFunction;
        value           nonuniform List<scalar> 9(0.000180831 0.000929055 0.00230954 0.00425053 0.00652148 0.00936837 0.00938824 0.00815472 0.00691824);
    }
    glass2
    {
        Cmu             0.09;
        kappa           0.41;
        E               9.8;
        type            epsilonWallFunction;
        value           nonuniform List<scalar> 2(0.000555892 0.000781015);
    }
    sun
    {
        Cmu             0.09;
        kappa           0.41;
        E               9.8;
        type            epsilonWallFunction;
        value           nonuniform List<scalar> 
14
(
0.000180831
0.000219771
0.000121646
9.91397e-05
8.76481e-05
7.97711e-05
7.50404e-05
7.3279e-05
7.39239e-05
7.63309e-05
7.98999e-05
8.4071e-05
8.82606e-05
9.17871e-05
)
;
    }
    heatsource1
    {
        Cmu             0.09;
        kappa           0.41;
        E               9.8;
        type            epsilonWallFunction;
        value           nonuniform List<scalar> 3(0.000121274 0.000129375 0.000118489);
    }
    heatsource2
    {
        Cmu             0.09;
        kappa           0.41;
        E               9.8;
        type            epsilonWallFunction;
        value           nonuniform List<scalar> 4(0.00013329 2.93248e-05 2.93248e-05 0.000167198);
    }
    Table_master
    {
        Cmu             0.09;
        kappa           0.41;
        E               9.8;
        type            epsilonWallFunction;
        value           nonuniform List<scalar> 9(8.64936e-06 1.03864e-05 1.27219e-05 1.57631e-05 2.00206e-05 2.64515e-05 3.70149e-05 5.63538e-05 9.68415e-05);
    }
    Table_slave
    {
        Cmu             0.09;
        kappa           0.41;
        E               9.8;
        type            epsilonWallFunction;
        value           nonuniform List<scalar> 9(5.65184e-05 5.74282e-05 5.9085e-05 6.15774e-05 6.54504e-05 7.15122e-05 8.12734e-05 9.82746e-05 0.000132697);
    }
    inlet
    {
        type            turbulentMixingLengthDissipationRateInlet;
        mixingLength    0.01;
        phi             phi;
        k               k;
        value           uniform 3.77337e-06;
    }
    outlet
    {
        type            zeroGradient;
    }
}


// ************************************************************************* //
