/*--------------------------------*- C++ -*----------------------------------*\
  =========                 |
  \\      /  F ield         | OpenFOAM: The Open Source CFD Toolbox
   \\    /   O peration     | Website:  https://openfoam.org
    \\  /    A nd           | Version:  6
     \\/     M anipulation  |
\*---------------------------------------------------------------------------*/
FoamFile
{
    version     2.0;
    format      ascii;
    class       surfaceScalarField;
    location    "200";
    object      phi;
}
// * * * * * * * * * * * * * * * * * * * * * * * * * * * * * * * * * * * * * //

dimensions      [1 0 -1 0 0 0 0];

internalField   nonuniform List<scalar> 
852
(
-0.00247206
0.00253966
-0.00258737
0.000115483
-0.00280618
0.000218991
-0.00309848
0.000292468
-0.00338684
0.000288542
-0.00363228
0.000245604
-0.00380908
0.000176969
-0.00389539
8.64769e-05
-0.00387045
-2.47747e-05
-0.0037129
-0.000157383
-0.00340525
-0.000307479
-0.0029369
-0.000468188
-0.00228245
-0.000654283
-0.00134348
-0.000938812
-0.0013405
-0.000869093
0.000876144
-0.000882435
1.34458e-05
-0.000685725
-0.000196606
-0.000595928
-8.9682e-05
-0.000609125
1.33256e-05
-0.000580362
-2.86292e-05
-0.000362555
-0.000217678
-1.84955e-05
-0.000343928
0.000206389
-0.000224752
0.000356102
-0.000149582
0.000469523
-0.00011329
0.000558004
-8.83496e-05
0.000619506
-6.13711e-05
0.000648259
-2.86216e-05
0.000695954
-4.75624e-05
0.000802742
-0.00010665
0.000954981
-0.000152091
0.000913916
4.12118e-05
0.000920575
-0.00179319
0.00450599
-0.00232514
0.000647608
-0.00272886
0.000622887
-0.00307293
0.00063672
-0.00338135
0.000597131
-0.00363961
0.000504038
-0.00382991
0.000367439
-0.00393448
0.000191214
-0.00393646
-2.26323e-05
-0.00382234
-0.000271336
-0.00357966
-0.000549989
-0.00319751
-0.000850175
-0.0026741
-0.00117753
-0.00207653
-0.00153622
-0.00157329
-0.00184358
0.000191261
-0.00176445
0.000191376
0.000978892
-8.54466e-05
0.00074729
0.000245139
0.000270585
0.000280196
3.04277e-05
0.000150582
-3.68424e-05
8.07075e-05
-0.000267191
0.000201831
-0.000227985
-0.000256757
-0.000164122
-0.000407662
-0.00015218
-0.000236563
-0.000152803
-0.000148825
-0.000166883
-9.90728e-05
-0.000195465
-5.963e-05
-0.000246801
-9.89269e-06
-0.000316481
4.1209e-05
-0.000359596
-4.29143e-06
-0.000216423
-0.000249659
0.000105234
-0.000473578
0.000217961
-7.13524e-05
0.00115529
-0.00133302
0.00609465
-0.00204274
0.0013575
-0.00253289
0.00111322
-0.00290596
0.00100996
-0.00322899
0.000920337
-0.00350145
0.000776676
-0.00371204
0.000578196
-0.00384677
0.000326111
-0.00389225
2.30224e-05
-0.00384049
-0.000322924
-0.00369374
-0.000696578
-0.00346297
-0.00108077
-0.00317492
-0.00146542
-0.0028829
-0.00182808
-0.00263465
-0.00209167
-0.00225182
-0.00214713
-0.00206029
-0.000767728
0.000699628
-0.000892335
0.000369853
-0.000828274
0.000216244
-0.000722502
4.4923e-05
-0.000518496
-0.00012318
6.93076e-05
-0.000385841
-0.000187143
-0.000594525
-0.000830798
-0.000979322
-0.00107809
-0.0011374
-0.00114697
-0.00110543
-0.00110939
-0.00106422
-0.000294643
-0.00154008
2.46182e-06
-0.00162011
8.85835e-06
-0.000443207
-0.00100416
0.00742176
-0.00178091
0.00213442
-0.00226527
0.00159776
-0.00263105
0.00137591
-0.00294219
0.00123166
-0.00320474
0.00103939
-0.00341391
0.000787542
-0.0035595
0.000471875
-0.00363027
9.39681e-05
-0.00362196
-0.000331065
-0.00355421
-0.000764158
-0.00346404
-0.00117077
-0.00339781
-0.00153147
-0.00340442
-0.00182131
-0.00350231
-0.00199361
-0.00367393
-0.00197535
-0.00421322
-0.00152086
-0.00342672
-0.000771641
-0.00258621
-0.000140749
-0.00228238
6.61556e-05
-0.00208254
1.65464e-05
-0.00194527
-9.21984e-05
-0.00183932
-0.000228975
-0.00190141
-0.000323594
-0.00161857
-0.000282835
-0.00133567
-0.000282903
-0.00104341
-0.00029225
-0.000748271
-0.00029514
-0.000459471
-0.000288799
-0.000185453
-0.000274016
6.82093e-05
-0.00025366
0.000300004
-0.00023179
0.000510818
-0.000210807
0.000493584
-0.000277242
0.000688803
-0.000192573
0.00072856
-3.07001e-05
0.000303911
-0.000752051
0.00855426
-0.00155283
0.00293538
-0.0019498
0.0019949
-0.00226977
0.00169606
-0.00253171
0.00149377
-0.00274273
0.00125059
-0.0029053
0.00095028
-0.00301342
0.000580172
-0.00305693
0.000137659
-0.00303208
-0.000355745
-0.00297332
-0.00082274
-0.00293012
-0.0012138
-0.00294113
-0.00152029
-0.00302594
-0.00173633
-0.00318166
-0.00183772
-0.00339425
-0.00176259
-0.00349911
-0.00141584
-0.00334021
-0.000930385
-0.00296086
-0.000519948
-0.00258829
-0.000306256
-0.00230998
-0.000261615
-0.0021034
-0.000298622
-0.00195966
-0.000372557
-0.00185271
-0.00043039
-0.00168379
-0.000451592
-0.00149536
-0.000471183
-0.00130181
-0.000485645
-0.00110981
-0.000486988
-0.000927098
-0.000471351
-0.000758666
-0.000442292
-0.000601334
-0.000410836
-0.000438625
-0.00039434
-0.000230419
-0.000418852
1.59733e-05
-0.00052347
0.00047416
-0.000650588
0.00119981
-0.000756175
0.00234726
-0.000843353
0.00296621
-0.000618973
0.00238163
0.000584552
0.00242931
-0.00068855
0.00967402
-0.00146175
0.00370875
-0.00160236
0.00213569
-0.00182815
0.00192203
-0.00201323
0.00167903
-0.00213338
0.00137091
-0.00220254
0.00101962
-0.00222325
0.000601054
-0.00218533
9.9917e-05
-0.0020936
-0.000447296
-0.00200723
-0.000908933
-0.00197353
-0.00124732
-0.00201559
-0.00147805
-0.00213517
-0.00161656
-0.00231559
-0.00165713
-0.00251163
-0.00156638
-0.00260744
-0.00131987
-0.002548
-0.000989656
-0.00236535
-0.00070244
-0.00214988
-0.00052157
-0.00196565
-0.000445679
-0.00182518
-0.000438934
-0.00172813
-0.000469452
-0.00165314
-0.000505228
-0.00157294
-0.000531636
-0.00149107
-0.000552901
-0.00141482
-0.000561738
-0.00135198
-0.000549672
-0.00131014
-0.000513039
-0.00129366
-0.000458616
-0.00129901
-0.000405333
-0.00131207
-0.000381117
-0.00130963
-0.000421132
-0.00127067
-0.000562275
-0.00110414
-0.000816953
-0.000648789
-0.00121136
0.000226528
-0.00171851
0.00139803
-0.00179031
0.00176495
0.000217802
0.0042496
-0.000966557
0.0111178
-0.00129252
0.00403488
-0.000983278
0.00182663
-0.0011427
0.00208162
-0.00129248
0.00182898
-0.00130803
0.00138665
-0.0012399
0.000951653
-0.00111381
0.000475147
-0.000941283
-7.24393e-05
-0.000772673
-0.00061573
-0.000677964
-0.00100347
-0.000673319
-0.00125178
-0.000757567
-0.00139362
-0.000918508
-0.00145544
-0.00112913
-0.00144633
-0.0013389
-0.00135642
-0.00148141
-0.00117719
-0.00151918
-0.000951711
-0.00147564
-0.000745817
-0.00139762
-0.000599419
-0.00132444
-0.000518699
-0.00127384
-0.000489374
-0.00125056
-0.000492572
-0.0012473
-0.000508325
-0.00125552
-0.000523258
-0.00127799
-0.000530282
-0.00132288
-0.000516692
-0.00140244
-0.000469957
-0.00153114
-0.000384192
-0.00172186
-0.000267737
-0.00197711
-0.000149926
-0.00228369
-7.43795e-05
-0.00262085
-8.38164e-05
-0.00296209
-0.000220876
-0.00325785
-0.00052104
-0.00343898
-0.00103007
-0.00337745
-0.00177988
-0.00271479
-0.00245281
-0.000826646
-0.00167018
0.0034893
0.00165995
0.00998998
0.00201221
0.00368278
0.0013438
0.00249521
0.000742234
0.00268337
0.000360642
0.00221075
0.000276729
0.00147074
0.000405838
0.000822718
0.000659513
0.000221645
0.0009188
-0.000331554
0.00103251
-0.000729265
0.00102317
-0.000993951
0.000922987
-0.00115143
0.000754116
-0.00122458
0.000530765
-0.00123192
0.000271261
-0.00118665
1.06929e-05
-0.00109568
-0.000201185
-0.000965135
-0.000335951
-0.000816769
-0.000406914
-0.000674681
-0.000442595
-0.000563567
-0.000469095
-0.000492031
-0.000502607
-0.000455697
-0.000550598
-0.000444419
-0.000613201
-0.000445561
-0.000688863
-0.000447438
-0.000780565
-0.000438424
-0.0008964
-0.000400702
-0.0010509
-0.000315306
-0.0012652
-0.000169734
-0.00156586
3.30728e-05
-0.00199129
0.000275653
-0.00258067
0.000515159
-0.00333638
0.000672046
-0.0042169
0.000659795
-0.00514214
0.000404355
-0.00607861
-9.34444e-05
-0.0071996
-0.000658732
-0.00840217
-0.00125008
-0.00762663
-0.00244556
-0.00382651
0.0105809
0.014261
0.0102182
0.00653822
0.00794255
0.00495916
0.00633424
0.00381923
0.00529178
0.00251337
0.00466574
0.00144893
0.00421735
0.000670213
0.00379643
8.95441e-05
0.00340582
-0.000338479
0.00304471
-0.000632668
0.00270404
-0.000810582
0.00237476
-0.00089512
0.00205141
-0.000908391
0.00173421
-0.000869276
0.00143287
-0.000794156
0.0011665
-0.000698585
0.000948217
-0.000598307
0.000779555
-0.000505843
0.00064788
-0.000431716
0.000536498
-0.000380477
0.000431691
-0.000350719
0.000324958
-0.000337517
0.000213462
-0.0003339
9.81363e-05
-0.00033195
-1.80228e-05
-0.000322105
-0.000128511
-0.000290056
-0.000225945
-0.000217716
-0.000306246
-8.92782e-05
-0.000379391
0.000106371
-0.000457503
0.000353919
-0.000546727
0.000604537
-0.000650921
0.000776393
-0.00078124
0.000790267
-0.000996685
0.000619951
-0.0014053
0.000315324
-0.00199654
-6.73435e-05
-0.00263864
-0.000607821
-0.00262673
-0.00245731
-0.00611519
0.00354602
0.00409485
0.00394949
0.00455584
0.00471517
0.00305372
0.0050961
0.0021326
0.00518707
0.00135813
0.00513897
0.000718485
0.00498311
0.000245574
0.00473139
-8.65868e-05
0.00441222
-0.000313328
0.00405793
-0.00045611
0.00369361
-0.000530632
0.0033367
-0.000551306
0.00299896
-0.000531358
0.00268826
-0.000483284
0.00240963
-0.000419773
0.0021647
-0.000353196
0.00195239
-0.000293358
0.0017673
-0.000246451
0.00160154
-0.000214543
0.00144747
-0.000196467
0.00129961
-0.000189488
0.001156
-0.000190112
0.00101829
-0.000194079
0.000891836
-0.000195484
0.00078669
-0.000184749
0.00071637
-0.000147236
0.000693501
-6.62517e-05
0.000731103
6.89267e-05
0.000838243
0.000246936
0.00100542
0.000437519
0.00120374
0.000578228
0.00139154
0.000602614
0.00153256
0.000479084
0.00163229
0.000215749
0.00174281
-0.000177706
0.00192595
-0.000790807
0.00161049
-0.0021417
-0.00443054
-0.000162173
0.00425818
0.00213749
0.00225633
0.00346472
0.00172666
0.0043273
0.00127019
0.00486583
0.000819769
0.00512981
0.000454666
0.00518825
0.000187304
0.00509806
3.77541e-06
0.0049041
-0.000119199
0.00464477
-0.000196604
0.00435228
-0.000237967
0.00405192
-0.00025078
0.00376256
-0.000241822
0.00349686
-0.000217415
0.00326111
-0.00018384
0.00305544
-0.00014735
0.00287564
-0.000113385
0.00271517
-8.58033e-05
0.00256736
-6.65607e-05
0.00242705
-5.59822e-05
0.00229116
-5.34194e-05
0.00215878
-5.7561e-05
0.00203122
-6.63404e-05
0.00191252
-7.66213e-05
0.00181114
-8.32007e-05
0.0017409
-7.68261e-05
0.00171888
-4.40769e-05
0.0017727
1.52719e-05
0.00192488
9.49219e-05
0.00216743
0.000195126
0.00246617
0.000279647
0.00276369
0.000305257
0.0029944
0.000248536
0.00310057
0.000109733
0.00304526
-0.000122233
0.00273747
-0.000482859
0.00173189
-0.00113596
-0.00260846
-0.0044945
-0.00587023
-0.0016103
0.00064677
0.00237425
0.00364545
0.00446643
0.00492251
0.00511142
0.00511702
0.00499985
0.00480552
0.00457009
0.00432214
0.00408347
0.00386957
0.00368965
0.00354666
0.00343811
0.00335765
0.00329697
0.00324743
0.00320102
0.00315106
0.00309291
0.00302505
0.00295117
0.0028842
0.00285045
0.00287645
0.00298238
0.00318872
0.00347974
0.00379654
0.00405686
0.00417872
0.00406906
0.00359928
0.00247671
)
;

boundaryField
{
    floor
    {
        type            calculated;
        value           nonuniform List<scalar> 
29
(
0
0
0
0
0
0
0
0
0
0
0
0
0
0
0
0
0
0
0
0
-6.51594e-06
-1.66105e-05
-2.14244e-05
-1.83646e-05
-2.82355e-06
-6.94623e-06
-1.72089e-05
-1.72356e-05
-1.47109e-05
)
;
    }
    ceiling
    {
        type            calculated;
        value           nonuniform List<scalar> 
43
(
-1.13516e-06
-1.73456e-06
-1.59948e-06
-5.83268e-07
-6.55974e-07
-8.42882e-07
-1.04634e-06
-1.24756e-06
-1.44676e-06
-1.6504e-06
-1.86798e-06
-2.10533e-06
-2.36746e-06
-2.65908e-06
-2.98445e-06
-3.34686e-06
-3.74808e-06
-4.18798e-06
-4.66442e-06
-5.17369e-06
-5.71093e-06
-6.27053e-06
-6.84599e-06
-7.42997e-06
-8.01467e-06
-8.59218e-06
-9.15313e-06
-9.68288e-06
-1.01599e-05
-1.05575e-05
-1.08401e-05
-1.10399e-05
-1.12037e-05
-1.1379e-05
-1.16123e-05
-1.19549e-05
-1.24068e-05
-1.29155e-05
-1.32277e-05
-1.33896e-05
5.23624e-06
2.80988e-06
-1.01598e-06
)
;
    }
    sWall
    {
        type            calculated;
        value           uniform -0.000200501;
    }
    nWall
    {
        type            calculated;
        value           nonuniform List<scalar> 6(-4.76987e-05 -5.51664e-05 -6.61826e-05 -7.39908e-05 -9.00309e-05 -0.000118196);
    }
    sideWalls
    {
        type            empty;
        value           nonuniform 0();
    }
    glass1
    {
        type            calculated;
        value           nonuniform List<scalar> 9(-6.74226e-05 -0.000172977 -0.000255467 -0.00032279 -0.000380287 -0.000431056 -0.000477057 -0.000531982 -0.000596003);
    }
    glass2
    {
        type            calculated;
        value           nonuniform List<scalar> 2(-0.000310665 -0.000337901);
    }
    sun
    {
        type            calculated;
        value           uniform 0;
    }
    heatsource1
    {
        type            calculated;
        value           nonuniform List<scalar> 3(2.04579e-07 2.0468e-07 2.05001e-07);
    }
    heatsource2
    {
        type            calculated;
        value           nonuniform List<scalar> 4(5.14054e-08 5.16509e-08 0 0);
    }
    Table_master
    {
        type            calculated;
        value           nonuniform List<scalar> 9(-1.55759e-07 -1.55795e-07 -1.55656e-07 -1.55541e-07 -1.55442e-07 -1.55352e-07 -1.55273e-07 -1.55189e-07 -1.55082e-07);
    }
    Table_slave
    {
        type            calculated;
        value           nonuniform List<scalar> 9(1.54048e-07 1.54145e-07 1.54235e-07 1.54327e-07 1.54419e-07 1.54509e-07 1.54569e-07 1.54546e-07 1.54459e-07);
    }
    inlet
    {
        type            calculated;
        value           uniform -0.00110251;
    }
    outlet
    {
        type            calculated;
        value           nonuniform List<scalar> 2(0.00469629 0.0013776);
    }
}


// ************************************************************************* //
