// -*- C++ -*-
// File generated by PyFoam - sorry for the ugliness

FoamFile
{
 version 2.0;
 format ascii;
 class volScalarField;
 location "720";
 object T;
}

dimensions [ 0 0 0 1 0 0 0 ];

internalField nonuniform List<scalar> 459
(
  303.469
  303.334
  303.331
  303.332
  303.333
  303.333
  303.333
  303.333
  303.331
  303.327
  303.322
  303.317
  303.314
  303.31
  303.292
  303.257
  303.337
  303.362
  303.373
  303.379
  303.382
  303.382
  303.38
  303.378
  303.375
  303.372
  303.369
  303.366
  303.363
  303.36
  303.356
  303.35
  303.339
  303.275
  303.566
  303.366
  303.359
  303.364
  303.368
  303.371
  303.371
  303.369
  303.363
  303.352
  303.339
  303.328
  303.324
  303.325
  303.328
  303.337
  303.34
  303.341
  303.382
  303.395
  303.405
  303.414
  303.42
  303.421
  303.421
  303.421
  303.42
  303.419
  303.418
  303.417
  303.415
  303.411
  303.403
  303.391
  303.371
  303.352
  303.664
  303.394
  303.381
  303.39
  303.399
  303.406
  303.409
  303.408
  303.397
  303.376
  303.35
  303.33
  303.322
  303.325
  303.334
  303.341
  303.343
  303.373
  303.389
  303.406
  303.42
  303.433
  303.442
  303.441
  303.441
  303.441
  303.441
  303.44
  303.44
  303.44
  303.438
  303.435
  303.43
  303.417
  303.396
  303.377
  303.761
  303.425
  303.4
  303.413
  303.43
  303.446
  303.456
  303.458
  303.442
  303.406
  303.363
  303.329
  303.316
  303.322
  303.335
  303.346
  303.352
  303.36
  303.378
  303.399
  303.419
  303.439
  303.455
  303.467
  303.478
  303.487
  303.494
  303.501
  303.507
  303.512
  303.515
  303.518
  303.52
  303.494
  303.464
  303.431
  303.402
  303.858
  303.461
  303.418
  303.431
  303.455
  303.481
  303.504
  303.512
  303.489
  303.435
  303.373
  303.326
  303.309
  303.317
  303.337
  303.356
  303.371
  303.388
  303.407
  303.428
  303.449
  303.469
  303.485
  303.498
  303.51
  303.519
  303.526
  303.532
  303.536
  303.539
  303.541
  303.54
  303.537
  303.524
  303.5
  303.467
  303.431
  303.431
  303.433
  303.464
  303.946
  303.507
  303.442
  303.444
  303.468
  303.5
  303.535
  303.554
  303.521
  303.451
  303.374
  303.319
  303.3
  303.313
  303.341
  303.37
  303.395
  303.418
  303.44
  303.463
  303.483
  303.501
  303.516
  303.528
  303.537
  303.544
  303.549
  303.553
  303.555
  303.557
  303.556
  303.554
  303.55
  303.541
  303.524
  303.499
  303.469
  303.456
  303.45
  303.472
  304.022
  303.583
  303.504
  303.483
  303.492
  303.518
  303.558
  303.571
  303.528
  303.446
  303.359
  303.302
  303.287
  303.31
  303.351
  303.392
  303.426
  303.454
  303.478
  303.499
  303.518
  303.532
  303.544
  303.552
  303.559
  303.563
  303.565
  303.567
  303.567
  303.566
  303.565
  303.562
  303.557
  303.549
  303.537
  303.52
  303.496
  303.479
  303.467
  303.479
  304.137
  303.792
  303.694
  303.628
  303.599
  303.6
  303.62
  303.591
  303.509
  303.402
  303.311
  303.264
  303.269
  303.313
  303.371
  303.425
  303.465
  303.494
  303.516
  303.533
  303.546
  303.556
  303.563
  303.568
  303.571
  303.573
  303.573
  303.573
  303.571
  303.57
  303.567
  303.564
  303.56
  303.553
  303.544
  303.532
  303.515
  303.501
  303.492
  303.56
  304.296
  304.138
  304.02
  303.908
  303.823
  303.769
  303.694
  303.558
  303.406
  303.282
  303.214
  303.209
  303.258
  303.335
  303.411
  303.472
  303.507
  303.529
  303.545
  303.556
  303.564
  303.569
  303.573
  303.575
  303.576
  303.576
  303.575
  303.574
  303.572
  303.57
  303.567
  303.564
  303.561
  303.559
  303.558
  303.56
  303.566
  303.578
  303.595
  303.638
  301.608
  302.339
  302.73
  302.876
  302.91
  302.929
  302.953
  302.998
  303.071
  303.173
  303.287
  303.397
  303.471
  303.512
  303.536
  303.55
  303.56
  303.566
  303.57
  303.573
  303.574
  303.575
  303.576
  303.576
  303.576
  303.575
  303.574
  303.573
  303.572
  303.571
  303.57
  303.57
  303.572
  303.576
  303.583
  303.595
  303.611
  303.642
  301.66
  302.239
  302.494
  302.62
  302.687
  302.767
  302.874
  302.998
  303.134
  303.276
  303.389
  303.463
  303.508
  303.534
  303.548
  303.557
  303.562
  303.566
  303.568
  303.57
  303.572
  303.573
  303.574
  303.575
  303.576
  303.577
  303.577
  303.578
  303.578
  303.578
  303.579
  303.579
  303.58
  303.583
  303.587
  303.595
  303.608
  303.628
  302.123
  302.084
  302.084
  302.401
  302.57
  302.687
  302.811
  302.967
  303.117
  303.244
  303.345
  303.421
  303.472
  303.503
  303.522
  303.532
  303.538
  303.542
  303.545
  303.547
  303.549
  303.55
  303.552
  303.553
  303.555
  303.556
  303.558
  303.56
  303.562
  303.564
  303.566
  303.569
  303.571
  303.573
  303.576
  303.578
  303.581
  303.587
  303.586
  303.618
)
;

boundaryField
{
  floor
  {
    type wallHeatTransfer;
    Tinf uniform 300.653;
    alphaWall uniform 0.24;
    value nonuniform List<scalar> 29
(
  302.967
  302.784
  302.95
  302.961
  302.961
  302.956
  302.947
  302.93
  302.909
  302.888
  302.867
  302.847
  302.827
  302.808
  302.788
  302.769
  302.747
  302.721
  302.674
  302.607
  302.607
  302.757
  302.81
  302.874
  302.967
  302.784
  302.958
  303.042
  303.092
)
;
  }
  ceiling
  {
    type wallHeatTransfer;
    Tinf uniform 300.653;
    alphaWall uniform 0.24;
    value nonuniform List<scalar> 43
(
  301.994
  301.964
  301.968
  302.269
  302.423
  302.525
  302.632
  302.774
  302.917
  303.041
  303.138
  303.21
  303.256
  303.28
  303.293
  303.299
  303.303
  303.305
  303.307
  303.308
  303.309
  303.31
  303.311
  303.312
  303.313
  303.313
  303.312
  303.308
  303.304
  303.299
  303.294
  303.29
  303.287
  303.285
  303.285
  303.288
  303.291
  303.294
  303.293
  303.316
  304.091
  303.971
  301.578
)
;
  }
  sWall
  {
    type wallHeatTransfer;
    Tinf uniform 310.178;
    alphaWall uniform 0.36;
    value uniform 303.136;
  }
  nWall
  {
    type wallHeatTransfer;
    Tinf uniform 306.167;
    alphaWall uniform 0.36;
    value nonuniform List<scalar> 6
(
  304.12
  304.02
  303.965
  303.985
  303.948
  303.99
)
;
  }
  sideWalls
  {
    type empty;
  }
  glass1
  {
    type wallHeatTransfer;
    Tinf uniform 310.178;
    alphaWall uniform 4.3;
    value nonuniform List<scalar> 9
(
  308.344
  308.022
  307.807
  307.636
  307.489
  307.353
  307.232
  307.247
  307.346
)
;
  }
  glass2
  {
    type wallHeatTransfer;
    Tinf uniform 306.167;
    alphaWall uniform 4.3;
    value nonuniform List<scalar> 2
(
  305.331
  305.335
)
;
  }
  sun
  {
    type wallHeatTransfer;
    Tinf uniform 300.653;
    alphaWall uniform 0.24;
    value nonuniform List<scalar> 14
(
  303.11
  303.013
  303.016
  303.028
  303.038
  303.047
  303.054
  303.062
  303.066
  303.066
  303.063
  303.056
  303.046
  303.026
)
;
  }
  heatsource1
  {
    type fixedGradient;
    gradient uniform 0;
  }
  heatsource2
  {
    type fixedGradient;
    gradient uniform 0;
  }
  Table_master
  {
    type zeroGradient;
  }
  Table_slave
  {
    type zeroGradient;
  }
  inlet
  {
    type fixedValue;
    value uniform 300.15;
  }
  outlet
  {
    type zeroGradient;
  }
} 	// ************************************************************************* //

