/*--------------------------------*- C++ -*----------------------------------*\
  =========                 |
  \\      /  F ield         | OpenFOAM: The Open Source CFD Toolbox
   \\    /   O peration     | Website:  https://openfoam.org
    \\  /    A nd           | Version:  6
     \\/     M anipulation  |
\*---------------------------------------------------------------------------*/
FoamFile
{
    version     2.0;
    format      ascii;
    class       surfaceScalarField;
    location    "220";
    object      phi;
}
// * * * * * * * * * * * * * * * * * * * * * * * * * * * * * * * * * * * * * //

dimensions      [1 0 -1 0 0 0 0];

internalField   nonuniform List<scalar> 
852
(
-0.00205531
0.00207455
-0.0029294
0.000874034
-0.00321507
0.000285622
-0.00293713
-0.000277982
-0.00198384
-0.000953321
-0.000382389
-0.00160149
0.00126969
-0.0016522
0.00250764
-0.00123806
0.00333056
-0.000823016
0.00378426
-0.000453788
0.0039111
-0.000126928
0.00373077
0.000180237
0.00321142
0.00051927
0.00218055
0.00103079
0.00217844
-0.000317037
0.000313179
-0.000576281
0.000259112
-0.00014353
-0.000432881
0.000547774
-0.000691436
0.00114153
-0.00059389
0.00157398
-0.000432587
0.00182163
-0.000247783
0.00194145
-0.000119947
0.00201158
-7.02662e-05
0.00205949
-4.80493e-05
0.00209107
-3.17141e-05
0.0021075
-1.65669e-05
0.00210363
3.72186e-06
0.00206288
4.06175e-05
0.00194723
0.000115505
0.00169105
0.000256037
0.00123436
0.000456549
0.000479318
0.000754895
0.000473987
-0.00150558
0.00363397
-0.00224985
0.00161824
-0.00254032
0.000576044
-0.00231018
-0.000508168
-0.00151929
-0.00174426
-0.000328668
-0.00279217
0.000904338
-0.00288534
0.00192198
-0.00225583
0.00262561
-0.00152676
0.00302585
-0.00085415
0.00316978
-0.00027096
0.00310309
0.000246821
0.00287799
0.00074427
0.00264882
0.00125986
0.00303441
0.00179276
0.0014549
0.00157936
0.00145475
-9.26015e-05
0.000396435
0.000277697
-0.000111314
0.00078364
-0.000938953
0.00119336
-0.00110129
0.00154851
-0.000949174
0.00180375
-0.000687957
0.00186316
-0.000307333
0.00187735
-0.00013427
0.00189134
-8.43907e-05
0.00190312
-5.99721e-05
0.00191155
-4.02767e-05
0.00191717
-2.23354e-05
0.00191775
3.01053e-06
0.00190588
5.23382e-05
0.00184342
0.000177829
0.00160133
0.000497981
0.0011995
0.000858233
0.000669714
0.00128453
0.00112899
-0.00110742
0.00482591
-0.00171878
0.00222955
-0.00199296
0.000850179
-0.00180031
-0.000700863
-0.00111524
-0.00242937
-0.000180782
-0.00372669
0.000737314
-0.00380358
0.0015244
-0.00304308
0.0020726
-0.00207513
0.00238098
-0.00116268
0.00250176
-0.000391865
0.00249567
0.000252783
0.00242782
0.000812015
0.00235958
0.00132798
0.00228683
0.00186542
0.00165125
0.00221484
0.00310591
0.000235585
0.000146484
0.00122367
-0.00109952
0.0016105
-0.00132591
0.00180228
-0.0012932
0.00195234
-0.00109937
0.00213703
-0.000872784
0.00182972
0.00169546
0.00161108
0.00155112
0.00151086
0.00148854
0.00149156
0.00154391
0.00172174
0.00144416
0.000775419
0.00116302
0.00113922
0.000791537
0.00165587
0.00189718
-0.000822004
0.00575979
-0.00129342
0.00270092
-0.00148926
0.00104597
-0.00124198
-0.000948176
-0.000609517
-0.00306186
8.71749e-05
-0.00442346
0.000724985
-0.00444155
0.00126659
-0.00358488
0.0016207
-0.00242943
0.00179136
-0.00133351
0.00184094
-0.000441597
0.00183944
0.000254142
0.00184424
0.000807092
0.00189103
0.00128107
0.00202902
0.00172732
0.00227838
0.00196538
0.00335768
0.00202651
0.00252125
0.000822761
0.00284496
-0.000177342
0.00256141
-0.000816091
0.00238573
-0.00115034
0.00224206
-0.00114966
0.00211427
-0.000971713
0.00192192
-0.000680582
0.00216344
-0.000241808
0.00221451
-5.13692e-05
0.00218445
2.97572e-05
0.00210505
7.90925e-05
0.00198672
0.000118024
0.00183168
0.000154741
0.00163223
0.000199133
0.00136538
0.000266545
0.000974893
0.000390174
0.00101817
0.000731989
0.00101128
0.00114595
0.00099286
0.00167415
0.00285942
-0.000610504
0.00650662
-0.000933117
0.00302348
-0.00093319
0.001046
-0.000487572
-0.00139382
7.72687e-05
-0.00362672
0.000506739
-0.004853
0.000855154
-0.00479013
0.00111605
-0.00384601
0.0012293
-0.00254292
0.00121694
-0.00132136
0.0011577
-0.000382531
0.00113714
0.000274556
0.00120264
0.000741472
0.00137653
0.00110706
0.00170149
0.00140225
0.00214986
0.00151689
0.00273747
0.00143879
0.00292436
0.000635764
0.00288977
-0.000142865
0.00268766
-0.000614111
0.00238766
-0.000850468
0.00209326
-0.0008554
0.00182864
-0.000707231
0.0016119
-0.000464001
0.00153902
-0.000169079
0.00144821
3.92901e-05
0.00133052
0.00014729
0.00120883
0.000200624
0.00108988
0.000236821
0.000971872
0.000272586
0.000851269
0.000319576
0.000727659
0.000389993
0.000633298
0.000484373
0.000707429
0.0006577
0.0009867
0.000866528
0.00170642
0.000954269
0.00307071
0.00149498
0.0020602
0.00101015
0.0012788
0.000781029
0.00130425
-0.000489803
0.00715502
-0.000583939
0.00311756
-0.000115306
0.000577324
0.000534715
-0.00204385
0.000946659
-0.00403866
0.00109851
-0.00500492
0.00112177
-0.00481357
0.00104416
-0.00376867
0.00086064
-0.00235966
0.00062996
-0.00109091
0.00045271
-0.000205463
0.000421382
0.000305739
0.000536078
0.000626647
0.000774964
0.000868052
0.00113276
0.00104434
0.00156586
0.00108368
0.00206955
0.000934983
0.00230012
0.000405077
0.00224673
-8.96066e-05
0.00204307
-0.000410582
0.00174431
-0.000551858
0.00142366
-0.0005349
0.00112372
-0.000407447
0.000870877
-0.000211323
0.000686904
1.47317e-05
0.000551111
0.000174921
0.000443843
0.000254396
0.000351651
0.000292654
0.000272899
0.00031541
0.000210708
0.000334614
0.000173331
0.000356787
0.000177189
0.000385968
0.000243829
0.000417566
0.000438714
0.000462656
0.000774534
0.000530554
0.0011882
0.000540451
0.00170426
0.000978764
0.00165861
0.00105564
0.00108791
0.00135157
0.00242042
-0.000240866
0.00757717
0.000146836
0.00272981
0.00120696
-0.000482847
0.00186438
-0.00270127
0.00205473
-0.004229
0.00187731
-0.00482757
0.00147703
-0.00441349
0.000976716
-0.00326866
0.000438551
-0.0018218
-7.33614e-06
-0.000645261
-0.000228266
1.52885e-05
-0.000238001
0.000315329
-9.96361e-05
0.000488148
0.00015003
0.000618256
0.0004867
0.000707543
0.000863745
0.000706507
0.00122933
0.000569272
0.00137258
0.000261679
0.00129992
-1.70855e-05
0.00109009
-0.000200911
0.000802847
-0.00026478
0.000490305
-0.000222525
0.000191067
-0.000108377
-6.28628e-05
4.24368e-05
-0.000232587
0.000184287
-0.000328634
0.000270801
-0.000392588
0.000318183
-0.000438782
0.00033868
-0.000464929
0.00034139
-0.000461611
0.000331128
-0.000415839
0.000310848
-0.000312622
0.000282585
-0.000141304
0.000246084
0.000102726
0.000218463
0.000375745
0.000257382
0.000594149
0.000321897
0.00101179
0.000560977
0.00137054
0.000696731
0.00115739
0.00156455
0.00360782
0.00195632
0.00582691
0.0028137
0.00187238
0.00347002
-0.00113919
0.00376394
-0.00299515
0.00349146
-0.00395651
0.0027519
-0.0040881
0.00174789
-0.00340973
0.000718971
-0.00224008
-0.000172913
-0.000930245
-0.000691004
-0.000127386
-0.000860265
0.00018438
-0.000841225
0.000296134
-0.000713416
0.00036019
-0.000508655
0.000413345
-0.000249715
0.000448454
1.9881e-05
0.00043676
0.000231131
0.000357866
0.000279362
0.000213283
0.000182413
7.96944e-05
-2.05105e-05
1.83947e-06
-0.000283753
-1.71363e-06
-0.000553623
4.71672e-05
-0.000785268
0.000123089
-0.000947388
0.000204381
-0.00103802
0.000274747
-0.00108839
0.000320989
-0.00111404
0.000343667
-0.00111986
0.000344323
-0.00110282
0.000324184
-0.00105737
0.000285511
-0.000980479
0.000233788
-0.000877806
0.000179752
-0.000774288
0.000142415
-0.00071443
0.000158461
-0.000735345
0.000278156
-0.00092206
0.000508465
-0.00122211
0.000860873
-0.00177512
0.00124957
-0.00197426
0.00176353
0.00175181
0.00603905
0.00789368
0.00720704
-0.000452498
0.00618882
-0.00197687
0.00479909
-0.00256679
0.00315996
-0.00244912
0.00141012
-0.00166022
-0.000128415
-0.000701947
-0.00107853
1.95871e-05
-0.00144919
0.000243057
-0.00153557
0.000270577
-0.00150021
0.0002606
-0.0014014
0.000261208
-0.00126402
0.000275789
-0.00110861
0.000292877
-0.000968004
0.000295971
-0.000884329
0.000274011
-0.000897977
0.000226747
-0.000999578
0.000181108
-0.00115611
0.000158182
-0.00132368
0.000165668
-0.00147121
0.000194518
-0.00158153
0.000233221
-0.00164991
0.000272575
-0.00168116
0.000305814
-0.00168771
0.000327361
-0.00167885
0.000334629
-0.00166103
0.000326316
-0.00164073
0.00030371
-0.00162747
0.000272066
-0.00163532
0.00024146
-0.00168269
0.000226944
-0.00178992
0.000249472
-0.00197123
0.000339599
-0.00223365
0.000540397
-0.00263352
0.000908157
-0.00324796
0.00147513
-0.00399416
0.00199557
-0.0039498
0.00171895
-0.00209797
0.00617039
-0.00014621
0.00473647
-0.000543095
0.00289053
-0.000721115
0.00091325
-0.000472181
-0.000816769
6.92914e-05
-0.00187797
0.000358938
-0.00224229
0.000383667
-0.00231381
0.000314371
-0.00229365
0.000250214
-0.00224113
0.000207886
-0.00217296
0.00019285
-0.00209635
0.00019898
-0.00201985
0.000216177
-0.00195746
0.000233385
-0.00192492
0.000241281
-0.00193394
0.000235569
-0.0019765
0.000223474
-0.00203333
0.000214809
-0.00208314
0.000215285
-0.00211291
0.000224089
-0.00211796
0.000238087
-0.00209931
0.000253727
-0.00206117
0.000267476
-0.00200977
0.000275777
-0.00195125
0.000275914
-0.00189166
0.000266528
-0.00183695
0.000248811
-0.0017924
0.000227328
-0.00176161
0.000210479
-0.00174591
0.000211048
-0.00174418
0.000247558
-0.00175072
0.000345951
-0.00175085
0.000540328
-0.00171618
0.000873301
-0.00160159
0.00136034
-0.00115244
0.00154622
-7.98497e-05
0.000646137
-0.00215873
-0.000920258
0.000752556
-0.00156558
0.00010197
-0.002332
4.50233e-05
-0.002969
0.000164534
-0.00320303
0.00030305
-0.00320965
0.000365312
-0.00314601
0.000319809
-0.00307401
0.000242161
-0.00300672
0.000182713
-0.00294682
0.000147776
-0.00288852
0.000134351
-0.00282647
0.000136726
-0.00275931
0.00014881
-0.00269044
0.000164306
-0.00262645
0.000177092
-0.00257388
0.000182795
-0.00253277
0.000182164
-0.002497
0.000178834
-0.0024581
0.000176179
-0.00240964
0.000175428
-0.00234824
0.000176486
-0.00227315
0.000178442
-0.00218574
0.00017986
-0.00208922
0.000179054
-0.00198827
0.000174759
-0.00188861
0.000166673
-0.00179602
0.000156022
-0.00171471
0.000145813
-0.00164518
0.000140751
-0.00158139
0.000147066
-0.00150681
0.000172774
-0.00138967
0.000228616
-0.00117589
0.000326344
-0.000761145
0.000458361
4.75682e-05
0.000551425
0.00112587
0.000467701
0.00175398
1.78131e-05
-0.00038568
-0.00528006
-0.00576153
-0.00504722
-0.0049836
-0.00497945
-0.00485877
-0.00460271
-0.00428696
-0.00401836
-0.00382831
-0.00369819
-0.00360328
-0.00352196
-0.00343836
-0.00334276
-0.00323177
-0.00310816
-0.00297911
-0.002851
-0.00272654
-0.00260501
-0.00248442
-0.00236287
-0.00223936
-0.00211432
-0.00198989
-0.00186949
-0.0017569
-0.00165469
-0.00156254
-0.00147545
-0.00138233
-0.00126412
-0.00109106
-0.000821644
-0.000421984
6.8439e-05
0.000473354
0.000428912
)
;

boundaryField
{
    floor
    {
        type            calculated;
        value           nonuniform List<scalar> 
29
(
0
0
0
0
0
0
0
0
0
0
0
0
0
0
0
0
0
0
0
0
5.17944e-06
1.45553e-05
2.31956e-05
3.0461e-05
2.01878e-06
3.7201e-06
9.20738e-06
1.42317e-05
1.35686e-05
)
;
    }
    ceiling
    {
        type            calculated;
        value           nonuniform List<scalar> 
43
(
4.38417e-05
4.08887e-05
3.79803e-05
3.80968e-05
4.0633e-05
4.36248e-05
4.67617e-05
4.9344e-05
5.09902e-05
5.18934e-05
5.23825e-05
5.26596e-05
5.28195e-05
5.29171e-05
5.29978e-05
5.31062e-05
5.32797e-05
5.35335e-05
5.38446e-05
5.41637e-05
5.4439e-05
5.46334e-05
5.47278e-05
5.47176e-05
5.46081e-05
5.44127e-05
5.41544e-05
5.38695e-05
5.3611e-05
5.34485e-05
5.34639e-05
5.37431e-05
5.43596e-05
5.53531e-05
5.67255e-05
5.84965e-05
6.07935e-05
6.25664e-05
6.20316e-05
6.49338e-05
1.98809e-05
1.77029e-05
2.12494e-05
)
;
    }
    sWall
    {
        type            calculated;
        value           uniform -4.63819e-05;
    }
    nWall
    {
        type            calculated;
        value           nonuniform List<scalar> 6(-2.58124e-05 -2.84226e-05 -3.01767e-05 -1.9304e-05 -1.92912e-05 -2.19257e-05);
    }
    sideWalls
    {
        type            empty;
        value           nonuniform 0();
    }
    glass1
    {
        type            calculated;
        value           nonuniform List<scalar> 9(-1.93063e-05 -5.38955e-05 -8.45803e-05 -0.000111924 -0.000136388 -0.00015865 -0.000181332 -0.000206112 -0.000232065);
    }
    glass2
    {
        type            calculated;
        value           nonuniform List<scalar> 2(-0.000118414 -0.000100277);
    }
    sun
    {
        type            calculated;
        value           uniform 0;
    }
    heatsource1
    {
        type            calculated;
        value           nonuniform List<scalar> 3(2.0309e-07 2.03501e-07 2.03795e-07);
    }
    heatsource2
    {
        type            calculated;
        value           nonuniform List<scalar> 4(5.10594e-08 5.12458e-08 0 0);
    }
    Table_master
    {
        type            calculated;
        value           nonuniform List<scalar> 9(-1.52863e-07 -1.53005e-07 -1.5304e-07 -1.53053e-07 -1.53056e-07 -1.5305e-07 -1.53035e-07 -1.52997e-07 -1.52919e-07);
    }
    Table_slave
    {
        type            calculated;
        value           nonuniform List<scalar> 9(1.52647e-07 1.52662e-07 1.52636e-07 1.52621e-07 1.52622e-07 1.52636e-07 1.52664e-07 1.52705e-07 1.5277e-07);
    }
    inlet
    {
        type            calculated;
        value           uniform -0.00647674;
    }
    outlet
    {
        type            calculated;
        value           nonuniform List<scalar> 2(0.00528233 0.000440325);
    }
}


// ************************************************************************* //
