/*--------------------------------*- C++ -*----------------------------------*\
  =========                 |
  \\      /  F ield         | OpenFOAM: The Open Source CFD Toolbox
   \\    /   O peration     | Website:  https://openfoam.org
    \\  /    A nd           | Version:  6
     \\/     M anipulation  |
\*---------------------------------------------------------------------------*/
FoamFile
{
    version     2.0;
    format      ascii;
    class       volScalarField;
    location    "700";
    object      alphat;
}
// * * * * * * * * * * * * * * * * * * * * * * * * * * * * * * * * * * * * * //

dimensions      [1 -1 -1 0 0 0 0];

internalField   nonuniform List<scalar> 
459
(
0.00279154
0.00272362
0.00263954
0.00256175
0.00249503
0.00243671
0.00238454
0.00233618
0.00228919
0.0022413
0.00219008
0.00213231
0.00206283
0.00197064
0.00184763
0.000254308
0.000276346
0.00027961
0.000257468
0.000242676
0.000233751
0.00022905
0.000218087
0.000200603
0.000187187
0.000181298
0.000195495
0.000207518
0.000226143
0.000278365
0.000351448
0.000397346
0.000388297
0.000339551
0.00314044
0.00348917
0.0035321
0.00343566
0.00337884
0.00336942
0.00338657
0.0033929
0.0033696
0.00331274
0.00321965
0.00308591
0.00289834
0.00261656
0.00222539
0.00176631
0.00156829
0.000314506
0.000754877
0.000848256
0.000963668
0.00100928
0.000872192
0.000675607
0.000538738
0.000379854
0.000279097
0.000234992
0.000264659
0.000344902
0.000589592
0.000971097
0.00148181
0.00145186
0.00137674
0.000440224
0.0033352
0.00386438
0.00357011
0.00323963
0.00314628
0.00319673
0.00331255
0.00343547
0.00353229
0.00357849
0.00355753
0.00345882
0.00327306
0.00297746
0.00259676
0.00223617
0.00157873
0.000655523
0.00184982
0.00159843
0.0015517
0.0013685
0.00094634
0.000398667
0.000327235
0.000276097
0.000234769
0.000244558
0.000339021
0.000421663
0.000509609
0.000625194
0.00178958
0.00156931
0.00115623
0.00055769
0.00347057
0.00414226
0.00318402
0.0026675
0.00279858
0.00317464
0.00358609
0.00386043
0.00398151
0.00397271
0.00387653
0.00371657
0.00349364
0.00318349
0.00280892
0.00245362
0.00190294
0.00125958
0.00194261
0.0017636
0.00179691
0.00152201
0.00118313
0.000864001
0.000635619
0.000655554
0.000673082
0.00068912
0.000706373
0.000728124
0.000758294
0.000802754
0.000880058
0.00272829
0.00297765
0.00269826
0.000930957
0.00358332
0.00420153
0.00248087
0.00237718
0.0036301
0.00473356
0.00542442
0.00560962
0.00520286
0.00468319
0.00424305
0.00389743
0.0035905
0.00324912
0.0028749
0.00253146
0.00209276
0.00167164
0.00212967
0.0027809
0.00302783
0.0030941
0.00317027
0.00324438
0.0032853
0.00333253
0.00334275
0.00332217
0.00329065
0.00327613
0.00330376
0.0033853
0.00351952
0.00371813
0.00377769
0.00367068
0.00309357
0.00136095
0.00120157
0.00104571
0.00369436
0.00403635
0.00185593
0.0032489
0.00534497
0.00598368
0.00623361
0.00619039
0.00553681
0.00481848
0.00426186
0.0038581
0.00352315
0.00317666
0.00282607
0.00251155
0.00220982
0.00202863
0.00279014
0.00370708
0.00407596
0.00426655
0.00444179
0.00458518
0.00466839
0.00469804
0.00466071
0.004554
0.00439742
0.00423548
0.00411704
0.00406303
0.00405629
0.00405692
0.00402668
0.00392681
0.00363459
0.00299485
0.00225333
0.00110957
0.00382447
0.00370948
0.00177351
0.00302064
0.00510524
0.00541497
0.00538384
0.00522591
0.00488259
0.00442404
0.00400247
0.00365463
0.00334701
0.00303772
0.0027387
0.00248926
0.0023292
0.0024117
0.00341283
0.00431534
0.00467897
0.00491812
0.00513416
0.00531652
0.00546313
0.00557039
0.0056159
0.005568
0.00540557
0.00515039
0.00487012
0.00462383
0.00442475
0.00424495
0.00403836
0.00374722
0.00330603
0.00271454
0.00209032
0.00109996
0.00401203
0.00377527
0.00218219
0.00199715
0.0039285
0.0042943
0.00426057
0.00420285
0.00409341
0.00388555
0.00363995
0.00339636
0.00315739
0.00291396
0.00268254
0.00251368
0.00248278
0.00283167
0.00394249
0.00467609
0.00500666
0.00526619
0.00548471
0.00568688
0.00588247
0.00608266
0.00628645
0.00646505
0.00655597
0.00649756
0.00629806
0.00599825
0.00563881
0.00523873
0.00479408
0.00430661
0.00379223
0.0032295
0.00279538
0.0015433
0.00434486
0.00484291
0.00375313
0.00190892
0.00278844
0.00350463
0.00356548
0.0035731
0.00354864
0.00347837
0.00336355
0.00322424
0.00306864
0.00289843
0.00272955
0.00262072
0.00268011
0.00326138
0.00432004
0.00496195
0.005334
0.00558173
0.0057679
0.00591203
0.00604486
0.00620076
0.00641528
0.00671068
0.00706815
0.00738941
0.00756086
0.00757906
0.00750101
0.00745684
0.00755217
0.00768551
0.00730962
0.00617628
0.00563137
0.00172967
0.00585248
0.00258176
0.00288841
0.00325773
0.00336178
0.00342328
0.0034437
0.00342303
0.00338095
0.00331964
0.00323633
0.00312611
0.00299597
0.00290665
0.00301136
0.00370073
0.00458046
0.00533405
0.00575325
0.00601497
0.006166
0.00623687
0.00626651
0.00629712
0.00637108
0.00652842
0.00679454
0.00714338
0.00748394
0.00776749
0.00794595
0.00802406
0.00801061
0.00776843
0.00715116
0.00617968
0.00498468
0.00168404
0.00320062
0.00268904
0.00333856
0.00314529
0.00313549
0.00316034
0.00318063
0.00316306
0.00317546
0.00319766
0.00321107
0.00319425
0.00313022
0.00306088
0.0030648
0.00332678
0.00397227
0.00478913
0.0054704
0.00593665
0.00619095
0.00628643
0.00628936
0.00625793
0.00623503
0.00624884
0.00631516
0.00643382
0.00653436
0.00661401
0.00667395
0.0066977
0.00655118
0.00615225
0.0054795
0.00451816
0.00387891
0.0016204
0.00175511
0.0017319
0.00194469
0.00130027
0.00132848
0.00134248
0.00136015
0.0013752
0.00138912
0.00140352
0.0014166
0.00142909
0.00144026
0.00144808
0.00144842
0.00143117
0.00137596
0.00131725
0.00128616
0.00127531
0.0012954
0.00133261
0.00137171
0.00140273
0.00142223
0.00143123
0.00143274
0.00143009
0.00142598
0.00142214
0.00142546
0.0014291
0.001426
0.00140917
0.0013818
0.00134982
0.00130274
0.00122735
0.00120846
0.00140139
)
;

boundaryField
{
    floor
    {
        type            compressible::alphatWallFunction;
        Prt             0.85;
        value           nonuniform List<scalar> 
29
(
0.000257371
3.01519e-05
3.38136e-05
3.43506e-05
3.06764e-05
2.81964e-05
2.66904e-05
2.58949e-05
2.40308e-05
2.10278e-05
1.86967e-05
1.76635e-05
2.01329e-05
2.22146e-05
2.53954e-05
3.41461e-05
4.60392e-05
5.33344e-05
5.19001e-05
4.41223e-05
4.41217e-05
6.00435e-05
7.80535e-05
0.000132599
0.000257368
3.01514e-05
4.00751e-05
9.26785e-05
0.000178465
)
;
    }
    ceiling
    {
        type            compressible::alphatWallFunction;
        Prt             0.85;
        value           nonuniform List<scalar> 
43
(
0.000245407
0.000242296
0.000270178
0.000184186
0.000188038
0.000189947
0.000192351
0.000194397
0.000196286
0.000198238
0.000200009
0.000201699
0.000203208
0.000204263
0.000204305
0.000201968
0.000194478
0.000186478
0.000182226
0.000180739
0.000183484
0.00018856
0.000193877
0.000198084
0.000200723
0.00020194
0.000202143
0.000201783
0.000201226
0.000200705
0.000201152
0.000201643
0.000201222
0.000198942
0.00019523
0.000190882
0.000184461
0.000174123
0.000171522
0.000197884
0.00056921
0.00062871
0.000429663
)
;
    }
    sWall
    {
        type            compressible::alphatWallFunction;
        Prt             0.85;
        value           uniform 0.000244475;
    }
    nWall
    {
        type            compressible::alphatWallFunction;
        Prt             0.85;
        value           nonuniform List<scalar> 6(0.000148612 0.000157528 0.000156191 0.000235464 0.000226996 0.000197575);
    }
    sideWalls
    {
        type            empty;
    }
    glass1
    {
        type            compressible::alphatWallFunction;
        Prt             0.85;
        value           nonuniform List<scalar> 9(0.000373345 0.000416598 0.000440517 0.000457048 0.000470757 0.000484209 0.000499917 0.000522498 0.000562373);
    }
    glass2
    {
        type            compressible::alphatWallFunction;
        Prt             0.85;
        value           nonuniform List<scalar> 2(0.000215811 0.00024056);
    }
    sun
    {
        type            compressible::alphatWallFunction;
        Prt             0.85;
        value           nonuniform List<scalar> 
14
(
0.000378539
0.000369978
0.000359358
0.000349501
0.000341023
0.000333591
0.000326929
0.000320739
0.000314711
0.000308555
0.000301953
0.000294489
0.000285483
0.00027348
)
;
    }
    heatsource1
    {
        type            compressible::alphatWallFunction;
        Prt             0.85;
        value           nonuniform List<scalar> 3(0.00019232 0.000170502 0.000148842);
    }
    heatsource2
    {
        type            compressible::alphatWallFunction;
        Prt             0.85;
        value           nonuniform List<scalar> 4(0.000246601 0.000220281 0.000220279 0.000221674);
    }
    Table_master
    {
        type            compressible::alphatWallFunction;
        Prt             0.85;
        value           nonuniform List<scalar> 9(5.36054e-05 4.22019e-05 3.38384e-05 2.69265e-05 2.85565e-05 4.40886e-05 5.72115e-05 7.0813e-05 8.82503e-05);
    }
    Table_slave
    {
        type            compressible::alphatWallFunction;
        Prt             0.85;
        value           nonuniform List<scalar> 9(8.98064e-05 9.27647e-05 9.53567e-05 9.77213e-05 0.000100257 0.000103444 0.000107844 0.000114291 0.0001254);
    }
    inlet
    {
        type            fixedValue;
        value           uniform 1.94e-05;
    }
    outlet
    {
        type            zeroGradient;
    }
}


// ************************************************************************* //
