// -*- C++ -*-
// File generated by PyFoam - sorry for the ugliness

FoamFile
{
 version 2.0;
 format ascii;
 class volScalarField;
 location "700";
 object T;
}

dimensions [ 0 0 0 1 0 0 0 ];

internalField nonuniform List<scalar> 459
(
  306.482
  306.321
  306.26
  306.229
  306.209
  306.196
  306.187
  306.18
  306.173
  306.167
  306.161
  306.154
  306.148
  306.141
  306.131
  303.766
  303.745
  303.735
  303.713
  303.697
  303.688
  303.685
  303.683
  303.685
  303.689
  303.695
  303.706
  303.713
  303.718
  303.734
  303.764
  303.781
  303.771
  303.764
  306.396
  306.165
  306.07
  306.022
  305.995
  305.979
  305.972
  305.972
  305.976
  305.984
  305.996
  306.012
  306.033
  306.06
  306.089
  306.081
  306.066
  303.8
  303.825
  303.846
  303.86
  303.854
  303.825
  303.753
  303.72
  303.721
  303.722
  303.724
  303.746
  303.767
  303.787
  303.836
  303.891
  303.87
  303.816
  303.773
  306.327
  305.995
  305.88
  305.829
  305.801
  305.787
  305.781
  305.786
  305.8
  305.823
  305.854
  305.892
  305.936
  305.984
  306.032
  306.05
  306.049
  303.982
  303.962
  303.957
  303.967
  303.973
  303.974
  303.887
  303.846
  303.81
  303.777
  303.759
  303.813
  303.872
  303.921
  303.972
  304.018
  303.942
  303.893
  303.857
  306.262
  305.844
  305.742
  305.709
  305.692
  305.682
  305.675
  305.678
  305.694
  305.723
  305.763
  305.812
  305.869
  305.931
  305.992
  306.026
  306.013
  305.027
  304.178
  304.104
  304.125
  304.161
  304.197
  304.225
  304.249
  304.258
  304.265
  304.272
  304.279
  304.285
  304.292
  304.296
  304.292
  304.254
  304.233
  304.202
  304.19
  306.193
  305.733
  305.676
  305.669
  305.664
  305.655
  305.646
  305.64
  305.65
  305.677
  305.719
  305.773
  305.836
  305.905
  305.973
  306.009
  305.929
  304.872
  304.271
  304.211
  304.223
  304.246
  304.268
  304.284
  304.297
  304.307
  304.316
  304.325
  304.335
  304.347
  304.359
  304.371
  304.381
  304.386
  304.396
  304.405
  304.405
  304.426
  304.415
  304.414
  306.115
  305.671
  305.661
  305.672
  305.672
  305.664
  305.651
  305.64
  305.647
  305.672
  305.715
  305.77
  305.835
  305.903
  305.962
  305.961
  305.742
  304.747
  304.312
  304.27
  304.281
  304.299
  304.316
  304.329
  304.34
  304.348
  304.356
  304.366
  304.377
  304.391
  304.408
  304.426
  304.444
  304.462
  304.478
  304.493
  304.503
  304.507
  304.465
  304.435
  306.02
  305.655
  305.664
  305.688
  305.693
  305.689
  305.683
  305.678
  305.685
  305.708
  305.745
  305.793
  305.849
  305.902
  305.929
  305.858
  305.519
  304.65
  304.348
  304.322
  304.336
  304.354
  304.371
  304.383
  304.39
  304.395
  304.398
  304.403
  304.411
  304.424
  304.441
  304.461
  304.482
  304.501
  304.517
  304.53
  304.538
  304.537
  304.517
  304.444
  305.924
  305.641
  305.659
  305.706
  305.718
  305.724
  305.728
  305.731
  305.739
  305.756
  305.783
  305.818
  305.855
  305.879
  305.859
  305.715
  305.31
  304.598
  304.395
  304.384
  304.404
  304.427
  304.446
  304.456
  304.458
  304.456
  304.452
  304.447
  304.445
  304.448
  304.458
  304.474
  304.493
  304.513
  304.531
  304.548
  304.563
  304.579
  304.594
  304.619
  305.835
  305.615
  305.611
  305.693
  305.721
  305.74
  305.754
  305.765
  305.775
  305.786
  305.802
  305.82
  305.832
  305.822
  305.759
  305.57
  305.161
  304.602
  304.468
  304.47
  304.5
  304.53
  304.547
  304.552
  304.549
  304.541
  304.529
  304.515
  304.5
  304.489
  304.483
  304.483
  304.488
  304.496
  304.503
  304.509
  304.516
  304.525
  304.544
  304.622
  305.516
  305.656
  305.694
  305.72
  305.74
  305.755
  305.766
  305.773
  305.779
  305.781
  305.772
  305.739
  305.655
  305.468
  305.121
  304.684
  304.599
  304.603
  304.633
  304.653
  304.662
  304.662
  304.656
  304.644
  304.628
  304.608
  304.586
  304.562
  304.541
  304.525
  304.515
  304.511
  304.51
  304.513
  304.517
  304.521
  304.525
  304.538
  305.563
  305.626
  305.654
  305.674
  305.69
  305.702
  305.71
  305.714
  305.713
  305.706
  305.688
  305.65
  305.575
  305.435
  305.128
  304.919
  304.847
  304.821
  304.81
  304.803
  304.795
  304.785
  304.771
  304.755
  304.735
  304.713
  304.687
  304.659
  304.629
  304.601
  304.578
  304.562
  304.553
  304.549
  304.546
  304.543
  304.536
  304.54
  307.852
  307.214
  305.68
  305.595
  305.599
  305.604
  305.608
  305.611
  305.614
  305.617
  305.615
  305.607
  305.593
  305.568
  305.523
  305.415
  305.254
  305.172
  305.125
  305.092
  305.058
  305.024
  304.991
  304.959
  304.928
  304.898
  304.869
  304.839
  304.809
  304.779
  304.746
  304.713
  304.682
  304.655
  304.631
  304.61
  304.59
  304.569
  304.541
  304.544
)
;

boundaryField
{
  floor
  {
    type wallHeatTransfer;
    Tinf uniform 305.2;
    alphaWall uniform 0.24;
    value nonuniform List<scalar> 29
(
  306.058
  304.197
  304.163
  304.153
  304.157
  304.16
  304.163
  304.166
  304.177
  304.199
  304.219
  304.231
  304.22
  304.209
  304.191
  304.154
  304.124
  304.111
  304.108
  304.131
  304.131
  304.085
  304.11
  304.323
  306.058
  304.197
  304.175
  304.187
  305.045
)
;
  }
  ceiling
  {
    type wallHeatTransfer;
    Tinf uniform 303.2;
    alphaWall uniform 0.24;
    value nonuniform List<scalar> 43
(
  307.474
  306.884
  305.494
  305.349
  305.357
  305.363
  305.369
  305.374
  305.379
  305.383
  305.382
  305.377
  305.366
  305.344
  305.304
  305.204
  305.052
  304.972
  304.926
  304.895
  304.867
  304.84
  304.814
  304.789
  304.762
  304.736
  304.709
  304.683
  304.655
  304.627
  304.598
  304.569
  304.54
  304.514
  304.491
  304.47
  304.448
  304.422
  304.395
  304.414
  305.733
  305.529
  305.445
)
;
  }
  sWall
  {
    type wallHeatTransfer;
    Tinf uniform 315.2;
    alphaWall uniform 0.36;
    value uniform 308.716;
  }
  nWall
  {
    type wallHeatTransfer;
    Tinf uniform 307.2;
    alphaWall uniform 0.36;
    value nonuniform List<scalar> 6
(
  304.891
  304.889
  304.899
  304.861
  304.872
  304.913
)
;
  }
  sideWalls
  {
    type empty;
  }
  glass1
  {
    type wallHeatTransfer;
    Tinf uniform 315.2;
    alphaWall uniform 4.3;
    value nonuniform List<scalar> 9
(
  311.004
  310.736
  310.584
  310.473
  310.373
  310.271
  310.151
  310.002
  309.79
)
;
  }
  glass2
  {
    type wallHeatTransfer;
    Tinf uniform 307.2;
    alphaWall uniform 4.3;
    value nonuniform List<scalar> 2
(
  306.272
  306.214
)
;
  }
  sun
  {
    type wallHeatTransfer;
    Tinf uniform 305.2;
    alphaWall uniform 0.24;
    value nonuniform List<scalar> 14
(
  306.41
  306.257
  306.198
  306.167
  306.147
  306.133
  306.124
  306.117
  306.109
  306.102
  306.095
  306.088
  306.08
  306.071
)
;
  }
  heatsource1
  {
    type fixedGradient;
    gradient uniform 0;
  }
  heatsource2
  {
    type fixedGradient;
    gradient uniform 0;
  }
  Table_master
  {
    type zeroGradient;
  }
  Table_slave
  {
    type zeroGradient;
  }
  inlet
  {
    type fixedValue;
    value uniform 296.15;
  }
  outlet
  {
    type zeroGradient;
  }
} 	// ************************************************************************* //

