/*--------------------------------*- C++ -*----------------------------------*\
  =========                 |
  \\      /  F ield         | OpenFOAM: The Open Source CFD Toolbox
   \\    /   O peration     | Website:  https://openfoam.org
    \\  /    A nd           | Version:  6
     \\/     M anipulation  |
\*---------------------------------------------------------------------------*/
FoamFile
{
    version     2.0;
    format      ascii;
    class       volScalarField;
    location    "560";
    object      epsilon;
}
// * * * * * * * * * * * * * * * * * * * * * * * * * * * * * * * * * * * * * //

dimensions      [0 2 -3 0 0 0 0];

internalField   nonuniform List<scalar> 
459
(
0.00022078
0.000288439
0.00031165
0.000360644
0.000410244
0.000461391
0.000516875
0.000577111
0.000629873
0.000665424
0.00067189
0.000639164
0.000562305
0.000439259
0.000184541
4.58288e-05
0.000118692
0.000109888
0.000102138
9.41945e-05
8.46663e-05
7.16239e-05
5.93825e-05
4.93423e-05
4.13262e-05
3.49455e-05
2.98361e-05
2.56669e-05
2.21835e-05
1.91729e-05
1.64291e-05
1.381e-05
1.03022e-05
9.22427e-06
0.000528622
0.000750559
0.000266006
0.000260354
0.000270075
0.000288434
0.000318822
0.000362793
0.000411151
0.000451237
0.00046913
0.000455319
0.00040939
0.000343447
0.000245406
0.00032183
0.000111959
0.000137442
0.000267632
0.000143235
0.0001063
8.65382e-05
7.40257e-05
7.04755e-05
5.83242e-05
4.70918e-05
3.79701e-05
3.07674e-05
2.51755e-05
2.08073e-05
1.74072e-05
1.49987e-05
1.38971e-05
1.62286e-05
1.49117e-05
1.91877e-05
0.000942238
0.00176053
0.000303074
0.00023571
0.00024084
0.000263659
0.000302336
0.000356715
0.000416432
0.000465961
0.000493742
0.000491655
0.000457554
0.000399762
0.000325839
0.000284346
0.000338114
0.000242675
0.000192205
0.000145822
0.000116289
9.58628e-05
8.70166e-05
0.00018487
0.00012631
8.96254e-05
6.60527e-05
5.0392e-05
3.96879e-05
3.21833e-05
2.68757e-05
2.32753e-05
1.84331e-05
1.85339e-05
1.98794e-05
2.54785e-05
0.00150352
0.00358286
0.000435903
0.000224125
0.000220544
0.000247758
0.000296604
0.000369251
0.000441298
0.000495632
0.000528889
0.000533875
0.000503544
0.000444311
0.000380405
0.000332741
0.000302871
0.000569473
0.000348034
0.000230832
0.000168116
0.000130484
0.00010672
9.88131e-05
0.000248236
0.000190587
0.000158356
0.000138598
0.000124719
0.000112703
0.000100148
8.81762e-05
7.51896e-05
4.58128e-05
3.17849e-05
3.5151e-05
3.70155e-05
0.00227296
0.00640841
0.000798471
0.000235701
0.000203209
0.000234311
0.000307306
0.000424361
0.00050888
0.000561691
0.000594355
0.000597548
0.000556762
0.000479994
0.000391217
0.000314515
0.000261702
0.000237688
0.000209141
0.000181211
0.000155421
0.000132891
0.000114516
0.000101667
0.000102391
9.85097e-05
9.47357e-05
9.09791e-05
8.65997e-05
8.08837e-05
7.34148e-05
6.53461e-05
5.75594e-05
4.73856e-05
3.74874e-05
4.20185e-05
4.09361e-05
5.7488e-05
5.70882e-05
5.40354e-05
0.00334792
0.0096966
0.00176755
0.000368557
0.000230984
0.000248822
0.000385543
0.000565141
0.000641803
0.000680509
0.000703526
0.000697859
0.00064165
0.000536281
0.000413153
0.000308376
0.000241164
0.000209332
0.000192637
0.000177342
0.000160964
0.000144549
0.000129843
0.000118619
0.000113567
0.000112489
0.000112325
0.000110962
0.000107577
0.000101806
9.33058e-05
8.14833e-05
6.93014e-05
5.80342e-05
4.78583e-05
4.55222e-05
4.69046e-05
5.22626e-05
0.000167324
0.000119974
0.00471606
0.01185
0.00399597
0.00120292
0.00065081
0.00055975
0.000758932
0.000849655
0.000865249
0.000866597
0.00087022
0.000849252
0.000767254
0.00062375
0.000461596
0.000328945
0.000250072
0.000216909
0.00020406
0.000193764
0.000181735
0.000169407
0.000159093
0.000152575
0.000150988
0.000152511
0.000153352
0.000151349
0.000146446
0.000139751
0.000132171
0.000122954
0.000108926
9.6223e-05
8.6938e-05
8.22409e-05
8.26616e-05
9.08532e-05
0.000262778
0.000204977
0.00515633
0.0150264
0.00762292
0.00436924
0.00269239
0.00196887
0.00160977
0.00136222
0.00120813
0.00113595
0.00111097
0.00106605
0.000941668
0.000741323
0.000530854
0.000370794
0.000285187
0.000253367
0.000243213
0.000236506
0.000229322
0.000223486
0.000220771
0.000221432
0.000224346
0.000226697
0.000224968
0.000217488
0.000205784
0.000194482
0.000189023
0.000192146
0.000201628
0.000211607
0.000237498
0.000281233
0.000353781
0.000437574
0.00158419
0.000440852
0.00488768
0.00861729
0.00655852
0.00484982
0.00359567
0.00275317
0.00215039
0.00175111
0.00153625
0.00146219
0.00144526
0.00137209
0.00117098
0.000878175
0.000615421
0.000447808
0.000382431
0.000361403
0.000356837
0.000357178
0.000358736
0.000362091
0.000368293
0.00037609
0.000382502
0.000383071
0.00037292
0.000349377
0.000315005
0.00027929
0.000255482
0.000252127
0.000271479
0.000312433
0.000376796
0.000472659
0.00060182
0.000759935
0.000931419
0.000509255
0.00186733
0.00236367
0.00233399
0.00212141
0.00192824
0.00186591
0.00190484
0.00198868
0.00201373
0.00185249
0.00148801
0.00105328
0.00083313
0.000741332
0.000722177
0.000725448
0.000735808
0.00075005
0.000761828
0.00077164
0.000783897
0.000797314
0.000807254
0.000805632
0.000781619
0.000725022
0.000632889
0.000517645
0.000410751
0.000342484
0.000312432
0.000318047
0.000359892
0.000437534
0.000542546
0.000650544
0.00075257
0.000692248
0.00110644
0.00242628
0.00268882
0.0028073
0.00309781
0.00328015
0.00345179
0.00362917
0.00366748
0.00335828
0.00283902
0.00233206
0.00204187
0.00191432
0.00188066
0.00189734
0.00193075
0.00196065
0.00198066
0.00199313
0.00201395
0.00204597
0.00208538
0.00211913
0.00212252
0.00206285
0.00191382
0.00167798
0.0014036
0.00112989
0.000895482
0.000722661
0.000618742
0.000576894
0.000575984
0.000601918
0.00134807
0.000942109
0.000906201
0.00105939
0.00120197
0.00159794
0.00156007
0.0013965
0.00128081
0.00134238
0.0014985
0.00164083
0.00171248
0.0016662
0.00153397
0.00141339
0.00132377
0.00127099
0.00124369
0.00122722
0.00121337
0.00119962
0.00118737
0.00118145
0.00117733
0.00117265
0.00116204
0.00113779
0.00109233
0.00102263
0.000935253
0.000848034
0.000766131
0.000697055
0.000643665
0.000607049
0.000587378
0.000581931
0.000580718
0.000562408
0.000567445
0.000521922
)
;

boundaryField
{
    floor
    {
        Cmu             0.09;
        kappa           0.41;
        E               9.8;
        type            epsilonWallFunction;
        value           nonuniform List<scalar> 
29
(
0.000184541
4.58288e-05
0.000118692
0.000109888
0.000102138
9.41945e-05
8.46663e-05
7.16239e-05
5.93825e-05
4.93423e-05
4.13262e-05
3.49455e-05
2.98361e-05
2.56669e-05
2.21835e-05
1.91729e-05
1.64291e-05
1.381e-05
1.03022e-05
9.22427e-06
9.22427e-06
1.91877e-05
2.54785e-05
3.70155e-05
0.000184541
4.58288e-05
0.000137442
0.000242675
0.000569473
)
;
    }
    ceiling
    {
        Cmu             0.09;
        kappa           0.41;
        E               9.8;
        type            epsilonWallFunction;
        value           nonuniform List<scalar> 
43
(
0.000906201
0.00105939
0.00120197
0.00159794
0.00156007
0.0013965
0.00128081
0.00134238
0.0014985
0.00164083
0.00171248
0.0016662
0.00153397
0.00141339
0.00132377
0.00127099
0.00124369
0.00122722
0.00121337
0.00119962
0.00118737
0.00118145
0.00117733
0.00117265
0.00116204
0.00113779
0.00109233
0.00102263
0.000935253
0.000848034
0.000766131
0.000697055
0.000643665
0.000607049
0.000587378
0.000581931
0.000580718
0.000562408
0.000567445
0.000521922
0.00488768
0.00861729
0.00110644
)
;
    }
    sWall
    {
        Cmu             0.09;
        kappa           0.41;
        E               9.8;
        type            epsilonWallFunction;
        value           uniform 0.000906201;
    }
    nWall
    {
        Cmu             0.09;
        kappa           0.41;
        E               9.8;
        type            epsilonWallFunction;
        value           nonuniform List<scalar> 6(5.40354e-05 0.000119974 0.000204977 0.000692248 0.000942109 0.000521922);
    }
    sideWalls
    {
        type            empty;
    }
    glass1
    {
        Cmu             0.09;
        kappa           0.41;
        E               9.8;
        type            epsilonWallFunction;
        value           nonuniform List<scalar> 9(0.00022078 0.000528622 0.000942238 0.00150352 0.00227296 0.00334792 0.00471606 0.00515633 0.00488768);
    }
    glass2
    {
        Cmu             0.09;
        kappa           0.41;
        E               9.8;
        type            epsilonWallFunction;
        value           nonuniform List<scalar> 2(0.000440852 0.000509255);
    }
    sun
    {
        Cmu             0.09;
        kappa           0.41;
        E               9.8;
        type            epsilonWallFunction;
        value           nonuniform List<scalar> 
14
(
0.00022078
0.000288439
0.00031165
0.000360644
0.000410244
0.000461391
0.000516875
0.000577111
0.000629873
0.000665424
0.00067189
0.000639164
0.000562305
0.000439259
)
;
    }
    heatsource1
    {
        Cmu             0.09;
        kappa           0.41;
        E               9.8;
        type            epsilonWallFunction;
        value           nonuniform List<scalar> 3(5.7488e-05 5.70882e-05 5.40354e-05);
    }
    heatsource2
    {
        Cmu             0.09;
        kappa           0.41;
        E               9.8;
        type            epsilonWallFunction;
        value           nonuniform List<scalar> 4(0.00032183 0.000111959 0.000111959 0.000338114);
    }
    Table_master
    {
        Cmu             0.09;
        kappa           0.41;
        E               9.8;
        type            epsilonWallFunction;
        value           nonuniform List<scalar> 9(0.00018487 0.00012631 8.96254e-05 6.60527e-05 5.0392e-05 3.96879e-05 3.21833e-05 2.68757e-05 2.32753e-05);
    }
    Table_slave
    {
        Cmu             0.09;
        kappa           0.41;
        E               9.8;
        type            epsilonWallFunction;
        value           nonuniform List<scalar> 9(0.000248236 0.000190587 0.000158356 0.000138598 0.000124719 0.000112703 0.000100148 8.81762e-05 7.51896e-05);
    }
    inlet
    {
        type            turbulentMixingLengthDissipationRateInlet;
        mixingLength    0.01;
        phi             phi;
        k               k;
        value           uniform 0.000101881;
    }
    outlet
    {
        type            zeroGradient;
    }
}


// ************************************************************************* //
