/*--------------------------------*- C++ -*----------------------------------*\
  =========                 |
  \\      /  F ield         | OpenFOAM: The Open Source CFD Toolbox
   \\    /   O peration     | Website:  https://openfoam.org
    \\  /    A nd           | Version:  6
     \\/     M anipulation  |
\*---------------------------------------------------------------------------*/
FoamFile
{
    version     2.0;
    format      ascii;
    class       volScalarField;
    location    "160";
    object      nut;
}
// * * * * * * * * * * * * * * * * * * * * * * * * * * * * * * * * * * * * * //

dimensions      [0 2 -1 0 0 0 0];

internalField   nonuniform List<scalar> 
459
(
0.00203074
0.00229507
0.00224963
0.00210681
0.00195019
0.0018074
0.00168343
0.00157267
0.00147158
0.00137744
0.0012878
0.00119996
0.00111029
0.00101211
0.000905349
0.000685042
0.000861849
0.000804317
0.00074115
0.000684166
0.00063109
0.000581885
0.0005393
0.000502642
0.000471084
0.000443845
0.000420122
0.000399364
0.000380754
0.000363374
0.000346184
0.000333402
0.00033919
0.000435474
0.0023892
0.00723894
0.00640447
0.00566632
0.00511348
0.004691
0.0043132
0.00396908
0.00364283
0.00332002
0.00298467
0.00262042
0.00221526
0.00176212
0.00131074
0.000865961
0.000741181
0.000915113
0.00295526
0.00239073
0.00232736
0.00228359
0.00213866
0.00174593
0.00148596
0.00130084
0.0011604
0.00104936
0.00096003
0.000881897
0.000806842
0.000730954
0.000664552
0.000720745
0.000826541
0.000581446
0.00252437
0.00908274
0.00706749
0.00586767
0.00526753
0.00498714
0.00480473
0.00462529
0.00440438
0.0041223
0.00376886
0.0033405
0.00284407
0.00229955
0.00176059
0.0012612
0.000746973
0.000880394
0.00251529
0.00261846
0.0028501
0.00294699
0.00265064
0.000775287
0.000671477
0.000593575
0.000533558
0.000486165
0.000447935
0.000416959
0.000392503
0.000375123
0.000436266
0.000660796
0.0010667
0.000683515
0.0025084
0.00897734
0.00647556
0.00503242
0.00468278
0.00478664
0.00486679
0.00483813
0.00469937
0.00445472
0.00411042
0.00367713
0.00317369
0.00263404
0.00209422
0.00158066
0.00110062
0.000769209
0.00165922
0.00227348
0.00293583
0.00340724
0.00361067
0.00323382
0.000862694
0.000781037
0.000715162
0.000658485
0.000606842
0.000557232
0.000507119
0.00045395
0.000391666
0.000451538
0.000629075
0.00130663
0.000797371
0.00246223
0.00761699
0.00545419
0.00442962
0.00466302
0.00488861
0.00495775
0.00493706
0.00482099
0.00460981
0.00431038
0.00392964
0.00347746
0.00301612
0.00256066
0.00216983
0.0019143
0.0022773
0.00303468
0.00377477
0.00427576
0.00454395
0.00463231
0.00448443
0.00367789
0.0032
0.00281059
0.0024552
0.00211102
0.00176431
0.00140966
0.00106306
0.000748113
0.000722587
0.000783007
0.00121958
0.00111433
0.000821709
0.000909529
0.00125648
0.0023752
0.00609125
0.00444372
0.00430638
0.00495591
0.00514562
0.00514842
0.00510173
0.00500382
0.00485006
0.00464405
0.00439496
0.00411715
0.00383998
0.00356322
0.00345652
0.00360544
0.0043066
0.00487348
0.00522588
0.0053964
0.00543196
0.00538536
0.00523791
0.00484189
0.00437547
0.0038897
0.00339801
0.00290363
0.00240737
0.00191618
0.00150882
0.00131199
0.00144696
0.00160571
0.00167291
0.00133526
0.00136505
0.00201702
0.00170927
0.00224998
0.00483729
0.0038325
0.00434323
0.00511888
0.00534287
0.00532882
0.00527447
0.00519927
0.00510438
0.0049978
0.00489236
0.00480771
0.00476055
0.00477087
0.00490813
0.0052236
0.00568231
0.0058933
0.00594311
0.00588105
0.00574493
0.00555598
0.00529085
0.00494305
0.00453646
0.00409198
0.00362809
0.00316401
0.0027267
0.00236215
0.00215264
0.00218553
0.00244757
0.0026314
0.0024498
0.0017833
0.00215892
0.00384213
0.00229334
0.00208402
0.00365495
0.00343913
0.00467965
0.0051317
0.00528585
0.00525442
0.00521435
0.00517635
0.0051389
0.00511322
0.00510508
0.00514001
0.00522292
0.00536068
0.00555889
0.0057978
0.00598805
0.0060263
0.00593479
0.00574138
0.00545918
0.00511834
0.00479051
0.00447092
0.00414852
0.00382427
0.00351387
0.00324442
0.00305293
0.00298445
0.00308296
0.00335776
0.00371326
0.00393059
0.00389054
0.00313199
0.00317475
0.00663642
0.00310139
0.00181427
0.00182755
0.00283921
0.00593915
0.00605358
0.00591581
0.00585969
0.00587032
0.00588728
0.00588504
0.00587743
0.00586772
0.00587499
0.00591143
0.00598031
0.00607393
0.00616711
0.00620902
0.00615721
0.00601277
0.0057905
0.00549715
0.00519793
0.00492385
0.00468141
0.00447013
0.0042952
0.00417026
0.00411525
0.00415288
0.00430332
0.0045734
0.00493396
0.00528793
0.00549267
0.00552615
0.00508098
0.00477196
0.00828279
0.00341539
0.00163815
0.0068049
0.00756801
0.0075425
0.0075619
0.00758072
0.0075682
0.00749405
0.00738835
0.00728324
0.00720532
0.00717512
0.00720169
0.0072637
0.00731859
0.00733359
0.00729206
0.00719112
0.00703421
0.00683173
0.00663168
0.00644995
0.00629158
0.00616116
0.00606694
0.00602135
0.00603966
0.00613709
0.00632283
0.00658897
0.00689334
0.00714004
0.00722358
0.00724412
0.00717639
0.0069701
0.0084433
0.00283693
0.00274866
0.00881589
0.00947929
0.00941102
0.00936134
0.00930311
0.00923023
0.00912896
0.00899233
0.00884319
0.00871024
0.00862399
0.00862635
0.00870867
0.00879683
0.00886167
0.00888096
0.00882306
0.00867839
0.00851635
0.00836648
0.00823393
0.00811929
0.00802535
0.00795836
0.00792774
0.00794529
0.00802358
0.00817178
0.00838599
0.00863072
0.00881258
0.00881514
0.00875109
0.00857111
0.0080237
0.00670476
0.00235351
0.00124704
0.00103545
0.00157969
0.00219484
0.00231349
0.0023008
0.0022721
0.00225355
0.00223893
0.00222155
0.00219862
0.00217096
0.00214187
0.00211707
0.00210492
0.00210598
0.00210907
0.00211037
0.00210723
0.00209966
0.00209219
0.00208363
0.00207522
0.00206764
0.00206124
0.00205637
0.00205353
0.00205337
0.0020566
0.00206385
0.00207516
0.00208899
0.00210056
0.00210375
0.00210434
0.00210254
0.00210932
0.00215815
0.00217476
0.00195216
)
;

boundaryField
{
    floor
    {
        type            nutkWallFunction;
        Cmu             0.09;
        kappa           0.41;
        E               9.8;
        value           nonuniform List<scalar> 
29
(
0.00010952
8.2892e-05
0.000104329
9.7417e-05
8.97604e-05
8.27869e-05
7.62289e-05
7.00895e-05
6.4725e-05
6.00658e-05
5.60211e-05
5.25031e-05
4.94171e-05
4.6699e-05
4.42468e-05
4.19431e-05
3.96507e-05
3.79363e-05
3.87101e-05
5.14052e-05
5.14052e-05
7.0024e-05
8.26989e-05
9.65748e-05
0.00010952
8.2892e-05
0.000110684
0.000106549
9.31695e-05
)
;
    }
    ceiling
    {
        type            nutkWallFunction;
        Cmu             0.09;
        kappa           0.41;
        E               9.8;
        value           nonuniform List<scalar> 
43
(
0.00014954
0.000124949
0.000187246
0.000254818
0.000267566
0.000266172
0.000263064
0.000261048
0.000259457
0.00025757
0.000255082
0.000252081
0.000248923
0.000246228
0.000244908
0.000245022
0.000245357
0.000245496
0.000245155
0.000244333
0.000243523
0.000242592
0.000241678
0.000240855
0.000240158
0.000239628
0.000239319
0.000239301
0.000239652
0.000240439
0.000241668
0.000243168
0.000244422
0.000244767
0.000244829
0.000244632
0.000245366
0.000250655
0.000252452
0.000228265
0.000213057
0.000214509
0.000313762
)
;
    }
    sWall
    {
        type            nutkWallFunction;
        Cmu             0.09;
        kappa           0.41;
        E               9.8;
        value           uniform 0.000149531;
    }
    nWall
    {
        type            nutkWallFunction;
        Cmu             0.09;
        kappa           0.41;
        E               9.8;
        value           nonuniform List<scalar> 6(0.000150504 0.000201515 0.000265212 0.000322965 0.000271682 0.000228261);
    }
    sideWalls
    {
        type            empty;
    }
    glass1
    {
        type            nutkWallFunction;
        Cmu             0.09;
        kappa           0.41;
        E               9.8;
        value           nonuniform List<scalar> 9(0.00023664 0.000275273 0.000289678 0.000287979 0.000283064 0.000273773 0.000260342 0.000242419 0.00021296);
    }
    glass2
    {
        type            nutkWallFunction;
        Cmu             0.09;
        kappa           0.41;
        E               9.8;
        value           nonuniform List<scalar> 2(0.00035043 0.000382957);
    }
    sun
    {
        type            nutkWallFunction;
        Cmu             0.09;
        kappa           0.41;
        E               9.8;
        value           nonuniform List<scalar> 
14
(
0.000236766
0.000265336
0.000260453
0.000245031
0.00022799
0.000212326
0.000198617
0.000186276
0.00017493
0.000164287
0.000154077
0.000143994
0.000133615
0.000122142
)
;
    }
    heatsource1
    {
        type            nutkWallFunction;
        Cmu             0.09;
        kappa           0.41;
        E               9.8;
        value           nonuniform List<scalar> 3(9.95122e-05 0.000110021 0.000150519);
    }
    heatsource2
    {
        type            nutkWallFunction;
        Cmu             0.09;
        kappa           0.41;
        E               9.8;
        value           nonuniform List<scalar> 4(0.000104824 8.97604e-05 8.97604e-05 9.04657e-05);
    }
    Table_master
    {
        type            nutkWallFunction;
        Cmu             0.09;
        kappa           0.41;
        E               9.8;
        value           nonuniform List<scalar> 9(9.39154e-05 8.1225e-05 7.15476e-05 6.39866e-05 5.7942e-05 5.30124e-05 4.89792e-05 4.57682e-05 4.34706e-05);
    }
    Table_slave
    {
        type            nutkWallFunction;
        Cmu             0.09;
        kappa           0.41;
        E               9.8;
        value           nonuniform List<scalar> 9(0.000104446 9.46125e-05 8.65919e-05 7.96206e-05 7.32054e-05 6.69801e-05 6.0622e-05 5.37901e-05 4.56573e-05);
    }
    inlet
    {
        type            calculated;
        value           uniform 6.7082e-05;
    }
    outlet
    {
        type            calculated;
        value           nonuniform List<scalar> 2(0.00124704 0.00103545);
    }
}


// ************************************************************************* //
