// -*- C++ -*-
// File generated by PyFoam - sorry for the ugliness

FoamFile
{
 version 2.0;
 format ascii;
 class volVectorField;
 location "240";
 object U;
}

dimensions [ 0 1 -1 0 0 0 0 ];

internalField nonuniform List<vector> 459
(
  (-0.0110397 0.0582442 0)
  (-0.122525 0.0178083 0)
  (-0.144935 0.000971367 0)
  (-0.150316 -0.0132458 0)
  (-0.131334 -0.0292577 0)
  (-0.0910969 -0.0478862 0)
  (-0.0378064 -0.0641964 0)
  (0.0419113 -0.0537858 0)
  (0.0867079 -0.0394808 0)
  (0.122511 -0.026518 0)
  (0.143964 -0.0154769 0)
  (0.150314 -0.00570121 0)
  (0.140922 0.00521253 0)
  (0.113005 0.022275 0)
  (0.0960316 0.0618352 0)
  (-0.0705919 0.0079059 0)
  (-0.0126818 0.00206207 0)
  (-0.0143611 -0.0169516 0)
  (0.0128698 -0.0274312 0)
  (0.0361667 -0.0228212 0)
  (0.0571771 -0.0164861 0)
  (0.0719745 -0.00972483 0)
  (0.0803783 -0.00603497 0)
  (0.0843117 -0.00460568 0)
  (0.0863155 -0.00398787 0)
  (0.0876991 -0.00354631 0)
  (0.0886499 -0.00312014 0)
  (0.0889585 -0.00257902 0)
  (0.0881182 -0.00161267 0)
  (0.0851463 0.000340464 0)
  (0.0780711 0.00421032 0)
  (0.0645932 0.00997914 0)
  (0.0306171 0.0203825 0)
  (0.0688117 0.0152652 0)
  (0.0814433 0.123602 0)
  (-0.104715 0.058486 0)
  (-0.115011 0.0281578 0)
  (-0.12207 -0.00217485 0)
  (-0.106751 -0.0381761 0)
  (-0.0722556 -0.0750488 0)
  (-0.0273474 -0.0995237 0)
  (0.0278988 -0.087859 0)
  (0.0669933 -0.0635059 0)
  (0.0976357 -0.0392382 0)
  (0.116381 -0.01714 0)
  (0.124064 0.0033021 0)
  (0.122152 0.0231116 0)
  (0.114062 0.0454154 0)
  (0.112623 0.0779108 0)
  (0.105071 0.0713062 0)
  (0.0659652 0.0636732 0)
  (-0.113167 0.0164742 0)
  (0.0190612 0.0030685 0)
  (0.0278671 -0.0310315 0)
  (0.042401 -0.0392651 0)
  (0.0578529 -0.0344434 0)
  (0.0712118 -0.0249776 0)
  (0.0781102 -0.0112061 0)
  (0.0798734 -0.00310402 0)
  (0.079895 -6.70795e-05 0)
  (0.0800974 0.00104693 0)
  (0.0805326 0.0016863 0)
  (0.0808875 0.00228135 0)
  (0.0810698 0.00321744 0)
  (0.0808852 0.00501136 0)
  (0.0796731 0.0089095 0)
  (0.0743646 0.0183425 0)
  (0.0626612 0.0288403 0)
  (0.0239143 0.0432214 0)
  (0.117164 0.0360348 0)
  (0.165795 0.184286 0)
  (-0.102303 0.0884905 0)
  (-0.0893648 0.0427414 0)
  (-0.0968964 -0.00624953 0)
  (-0.0828663 -0.061841 0)
  (-0.0519353 -0.115025 0)
  (-0.0150779 -0.143166 0)
  (0.0237093 -0.128444 0)
  (0.0549649 -0.0963302 0)
  (0.0792522 -0.0619117 0)
  (0.0942153 -0.0302668 0)
  (0.101117 -0.0020203 0)
  (0.102167 0.0241904 0)
  (0.0996727 0.0495321 0)
  (0.0982165 0.0748869 0)
  (0.0878024 0.0781657 0)
  (0.0675132 0.101484 0)
  (-0.140718 -0.00525804 0)
  (0.0619208 -0.0416635 0)
  (0.0652541 -0.0540775 0)
  (0.0713104 -0.0540358 0)
  (0.0784762 -0.0464358 0)
  (0.0851689 -0.0373678 0)
  (0.0860074 -0.0277358 0)
  (0.076764 -0.0180904 0)
  (0.0693185 -0.012888 0)
  (0.0659064 -0.00995316 0)
  (0.0643603 -0.00803374 0)
  (0.0633699 -0.00663648 0)
  (0.0629159 -0.00533007 0)
  (0.0641097 -0.00330145 0)
  (0.0690553 0.00204635 0)
  (0.068995 0.0238547 0)
  (0.0604559 0.0414689 0)
  (0.0164036 0.0624035 0)
  (0.151703 0.0665835 0)
  (0.242699 0.233163 0)
  (-0.109683 0.113981 0)
  (-0.0653015 0.0572234 0)
  (-0.0708235 -0.00773242 0)
  (-0.0539687 -0.0828829 0)
  (-0.0257433 -0.149377 0)
  (0.00204686 -0.177348 0)
  (0.0271607 -0.160177 0)
  (0.0490273 -0.121578 0)
  (0.0652934 -0.0782789 0)
  (0.0746278 -0.0386751 0)
  (0.0785975 -0.00495063 0)
  (0.0797216 0.0238985 0)
  (0.0804478 0.0491509 0)
  (0.084962 0.0723335 0)
  (0.0936908 0.0867419 0)
  (0.107572 0.110608 0)
  (0.136074 0.0447354 0)
  (0.114347 0.00677488 0)
  (0.11364 -0.0315452 0)
  (0.10447 -0.050306 0)
  (0.096091 -0.0524427 0)
  (0.0898704 -0.0456988 0)
  (0.0839103 -0.0344732 0)
  (0.0835097 -0.0199647 0)
  (0.0904616 -0.0121962 0)
  (0.0939408 -0.00782102 0)
  (0.0926213 -0.00500816 0)
  (0.0888014 -0.00292623 0)
  (0.0836105 -0.00117956 0)
  (0.0769405 0.000576449 0)
  (0.0678563 0.00284624 0)
  (0.0519677 0.00655139 0)
  (0.0458522 0.0313764 0)
  (0.0498774 0.0501531 0)
  (0.0120014 0.0735195 0)
  (0.176863 0.106299 0)
  (0.311731 0.270618 0)
  (-0.122686 0.133128 0)
  (-0.0421667 0.0662981 0)
  (-0.0386132 -0.011251 0)
  (-0.0147259 -0.103859 0)
  (0.0088583 -0.176041 0)
  (0.0247782 -0.199061 0)
  (0.037253 -0.179655 0)
  (0.0473892 -0.136134 0)
  (0.0534615 -0.0862705 0)
  (0.0551839 -0.041572 0)
  (0.0545131 -0.0055203 0)
  (0.0543436 0.0228873 0)
  (0.0575446 0.0454751 0)
  (0.0666112 0.0641781 0)
  (0.0814675 0.0752786 0)
  (0.102349 0.0779875 0)
  (0.121175 0.030009 0)
  (0.124235 -0.00462788 0)
  (0.117916 -0.0304315 0)
  (0.106342 -0.0422967 0)
  (0.0932151 -0.0429022 0)
  (0.0811506 -0.036521 0)
  (0.0710464 -0.0256245 0)
  (0.0652655 -0.0103941 0)
  (0.0630747 -0.00087049 0)
  (0.0597348 0.0039423 0)
  (0.055513 0.00642808 0)
  (0.0511167 0.00810511 0)
  (0.0469186 0.00970793 0)
  (0.0427896 0.0117968 0)
  (0.0385891 0.0150099 0)
  (0.0331452 0.020139 0)
  (0.0320928 0.0334057 0)
  (0.045711 0.0473651 0)
  (0.0329977 0.0634338 0)
  (0.125639 0.101093 0)
  (0.116786 0.0795636 0)
  (0.0978095 0.0576686 0)
  (-0.102443 0.0577062 0)
  (0.370278 0.299207 0)
  (-0.138434 0.142414 0)
  (-0.0186608 0.0617427 0)
  (0.00827679 -0.0336372 0)
  (0.0358652 -0.129408 0)
  (0.0499358 -0.19078 0)
  (0.0540368 -0.208688 0)
  (0.0524791 -0.18583 0)
  (0.0480155 -0.138093 0)
  (0.0414073 -0.0838784 0)
  (0.0337524 -0.0371049 0)
  (0.0271299 -0.00214138 0)
  (0.0255452 0.0219735 0)
  (0.0303868 0.0388338 0)
  (0.0412686 0.0508522 0)
  (0.0569336 0.0553307 0)
  (0.0774524 0.0489382 0)
  (0.0926634 0.0200937 0)
  (0.0962891 -0.00485724 0)
  (0.0906881 -0.0213804 0)
  (0.079601 -0.0292309 0)
  (0.0661958 -0.0293835 0)
  (0.0529375 -0.0241022 0)
  (0.0413497 -0.0152981 0)
  (0.0327347 -0.004436 0)
  (0.0263653 0.00330734 0)
  (0.0222729 0.00715911 0)
  (0.0188623 0.00894933 0)
  (0.016095 0.0101203 0)
  (0.0141175 0.0114071 0)
  (0.0130934 0.0133608 0)
  (0.0133925 0.0165395 0)
  (0.0145621 0.0211163 0)
  (0.019032 0.0275848 0)
  (0.0339221 0.0344027 0)
  (0.0339444 0.0362008 0)
  (0.0750085 0.0566126 0)
  (0.0776522 0.0419528 0)
  (0.0923532 0.0430981 0)
  (-0.110901 0.0820296 0)
  (0.43255 0.322143 0)
  (-0.143794 0.125957 0)
  (0.0189015 0.0101049 0)
  (0.0736599 -0.0802702 0)
  (0.0975463 -0.152827 0)
  (0.100065 -0.19734 0)
  (0.0889603 -0.204503 0)
  (0.0694886 -0.175628 0)
  (0.0469582 -0.124629 0)
  (0.0254201 -0.0690977 0)
  (0.00799317 -0.0244388 0)
  (-0.00340854 0.00484185 0)
  (-0.00385288 0.0200971 0)
  (0.00214412 0.0301726 0)
  (0.0134054 0.0365473 0)
  (0.0280612 0.0372619 0)
  (0.0447303 0.0302533 0)
  (0.05517 0.0130917 0)
  (0.0566159 -0.00258342 0)
  (0.0508461 -0.012921 0)
  (0.0401275 -0.0173736 0)
  (0.0272796 -0.0164704 0)
  (0.014379 -0.0117083 0)
  (0.00296025 -0.00451204 0)
  (-0.00642506 0.00343171 0)
  (-0.0110757 0.0081161 0)
  (-0.0137743 0.0102176 0)
  (-0.0154351 0.0110363 0)
  (-0.0161034 0.0113572 0)
  (-0.0155248 0.011621 0)
  (-0.0132827 0.012196 0)
  (-0.00894753 0.0134063 0)
  (-0.00277195 0.0151879 0)
  (0.00635137 0.0168529 0)
  (0.0193904 0.0191615 0)
  (0.023318 0.0176787 0)
  (0.0452996 0.0291244 0)
  (0.0599367 0.0288864 0)
  (0.100342 0.049155 0)
  (-0.0964414 0.125109 0)
  (0.517665 0.306788 0)
  (0.00179595 0.0935671 0)
  (0.105617 -0.0546845 0)
  (0.172392 -0.12085 0)
  (0.180963 -0.162942 0)
  (0.159927 -0.184346 0)
  (0.124097 -0.178477 0)
  (0.0802279 -0.144027 0)
  (0.0359433 -0.0927617 0)
  (-0.000926464 -0.0403975 0)
  (-0.0233371 -0.00639905 0)
  (-0.0323846 0.00918372 0)
  (-0.0317409 0.016504 0)
  (-0.0261378 0.0211862 0)
  (-0.0168616 0.0240099 0)
  (-0.00556279 0.0237306 0)
  (0.00590043 0.0188716 0)
  (0.011267 0.00942527 0)
  (0.00985982 0.000817085 0)
  (0.00430334 -0.00468816 0)
  (-0.00589214 -0.00607209 0)
  (-0.0173112 -0.00398273 0)
  (-0.0282376 9.35361e-05 0)
  (-0.0369062 0.00469197 0)
  (-0.0419047 0.00842937 0)
  (-0.0444953 0.0105457 0)
  (-0.0457208 0.0113042 0)
  (-0.0459277 0.0110107 0)
  (-0.0450253 0.00985608 0)
  (-0.0427053 0.00800302 0)
  (-0.0386016 0.00566668 0)
  (-0.0325313 0.00310373 0)
  (-0.0248774 0.000527107 0)
  (-0.0164756 -0.001589 0)
  (-0.00888331 -0.00110504 0)
  (-0.00996086 0.000967259 0)
  (-0.00379575 0.0117528 0)
  (0.0124768 0.0321207 0)
  (0.0108875 0.0988359 0)
  (-0.353387 0.178415 0)
  (0.635114 0.289309 0)
  (0.299456 0.19569 0)
  (0.307571 0.0986391 0)
  (0.312575 -0.0150735 0)
  (0.27494 -0.0905441 0)
  (0.210145 -0.122341 0)
  (0.137227 -0.118712 0)
  (0.0635383 -0.0864635 0)
  (-0.00159321 -0.0405686 0)
  (-0.0426575 -0.00539533 0)
  (-0.0593477 0.0083672 0)
  (-0.0632735 0.0125933 0)
  (-0.0617889 0.0143144 0)
  (-0.0573141 0.0157052 0)
  (-0.0510336 0.0166639 0)
  (-0.044231 0.0163888 0)
  (-0.0386303 0.0143376 0)
  (-0.0368979 0.0105405 0)
  (-0.0394555 0.00695155 0)
  (-0.045065 0.00497927 0)
  (-0.0521854 0.00498581 0)
  (-0.0592318 0.00628292 0)
  (-0.0649847 0.00812822 0)
  (-0.0690054 0.00997361 0)
  (-0.0712418 0.0113781 0)
  (-0.0722717 0.011996 0)
  (-0.0726431 0.0117478 0)
  (-0.0727367 0.010616 0)
  (-0.072875 0.00869977 0)
  (-0.0734337 0.00632653 0)
  (-0.0748995 0.00413928 0)
  (-0.077874 0.00311577 0)
  (-0.0830204 0.00448788 0)
  (-0.090993 0.0095919 0)
  (-0.102836 0.0196027 0)
  (-0.120915 0.0350704 0)
  (-0.143184 0.0553706 0)
  (-0.170408 0.074794 0)
  (-0.226116 0.0835348 0)
  (-0.415825 0.0587723 0)
  (0.260496 -0.100164 0)
  (0.250557 -0.0979048 0)
  (0.200478 -0.0912931 0)
  (0.123547 -0.0744728 0)
  (0.0446936 -0.0459541 0)
  (-0.0408076 -0.00192115 0)
  (-0.078113 0.0167031 0)
  (-0.0941924 0.0224896 0)
  (-0.0978439 0.0223966 0)
  (-0.0971293 0.0210535 0)
  (-0.0947463 0.0201575 0)
  (-0.091539 0.0200307 0)
  (-0.0879182 0.0203681 0)
  (-0.0844472 0.020706 0)
  (-0.0819357 0.0206965 0)
  (-0.0812825 0.0202322 0)
  (-0.0825153 0.0198197 0)
  (-0.0849012 0.0199503 0)
  (-0.0874765 0.0207772 0)
  (-0.0894808 0.0220018 0)
  (-0.090538 0.0232853 0)
  (-0.0906077 0.0244009 0)
  (-0.089844 0.0252174 0)
  (-0.088549 0.0256633 0)
  (-0.0870345 0.0257336 0)
  (-0.0855892 0.0254976 0)
  (-0.0844776 0.0251277 0)
  (-0.083918 0.0248884 0)
  (-0.0840477 0.0250794 0)
  (-0.0849078 0.0259979 0)
  (-0.0864352 0.0280511 0)
  (-0.0884016 0.0321164 0)
  (-0.0903717 0.0399287 0)
  (-0.091679 0.0537667 0)
  (-0.0903219 0.0740452 0)
  (-0.0833078 0.0899402 0)
  (-0.0749535 0.0689304 0)
  (-0.0771101 -0.155785 0)
  (-0.112957 0.00205779 0)
  (-0.0416784 -0.0316877 0)
  (-0.068776 -0.0407575 0)
  (-0.101688 -0.0425009 0)
  (-0.125311 -0.0410699 0)
  (-0.13444 -0.0415521 0)
  (-0.135761 -0.0490659 0)
  (-0.134055 -0.0567341 0)
  (-0.131264 -0.0627304 0)
  (-0.128438 -0.0661409 0)
  (-0.125661 -0.0672569 0)
  (-0.122756 -0.0668738 0)
  (-0.119598 -0.0659217 0)
  (-0.116271 -0.0652815 0)
  (-0.113084 -0.0656485 0)
  (-0.110422 -0.0673412 0)
  (-0.108415 -0.0700243 0)
  (-0.106868 -0.073028 0)
  (-0.105417 -0.0757398 0)
  (-0.103731 -0.0778745 0)
  (-0.101614 -0.0794085 0)
  (-0.099001 -0.0804953 0)
  (-0.0959392 -0.0814123 0)
  (-0.0925645 -0.0824885 0)
  (-0.0890777 -0.0840161 0)
  (-0.0857213 -0.0861814 0)
  (-0.0827439 -0.0889913 0)
  (-0.0803413 -0.0921823 0)
  (-0.0785791 -0.0951018 0)
  (-0.0772866 -0.0965831 0)
  (-0.0758599 -0.0949047 0)
  (-0.0729003 -0.0880361 0)
  (-0.0658555 -0.0743919 0)
  (-0.0516077 -0.0541748 0)
  (-0.0293943 -0.0316575 0)
  (0.00700057 -0.0283031 0)
  (0.0723974 -0.112555 0)
  (-0.0365213 -0.164557 0)
  (-0.153459 -0.22652 0)
  (-0.252701 -0.0227129 0)
  (-0.233295 0.180552 0)
  (-0.217525 0.174282 0)
  (-0.217445 0.17587 0)
  (-0.214809 0.185948 0)
  (-0.207595 0.198756 0)
  (-0.195544 0.21176 0)
  (-0.182727 0.224052 0)
  (-0.172002 0.233615 0)
  (-0.164088 0.239914 0)
  (-0.158436 0.243419 0)
  (-0.154027 0.245143 0)
  (-0.149965 0.246145 0)
  (-0.145638 0.247363 0)
  (-0.140752 0.249522 0)
  (-0.135343 0.253036 0)
  (-0.129678 0.257893 0)
  (-0.124058 0.263602 0)
  (-0.118649 0.269465 0)
  (-0.113462 0.274879 0)
  (-0.10843 0.279525 0)
  (-0.103468 0.283347 0)
  (-0.0985243 0.286491 0)
  (-0.0935954 0.289222 0)
  (-0.0887448 0.291856 0)
  (-0.0840896 0.294703 0)
  (-0.0797657 0.298044 0)
  (-0.0758737 0.302099 0)
  (-0.0724152 0.306951 0)
  (-0.0692251 0.312435 0)
  (-0.0658739 0.318 0)
  (-0.0615087 0.322674 0)
  (-0.0547706 0.325337 0)
  (-0.0442371 0.325581 0)
  (-0.0295318 0.325285 0)
  (-0.0111203 0.329636 0)
  (0.019901 0.339086 0)
  (0.0787177 0.398247 0)
  (-0.189665 0.424689 0)
)
;

boundaryField
{
  floor
  {
    type noSlip;
  }
  ceiling
  {
    type noSlip;
  }
  sWall
  {
    type noSlip;
  }
  nWall
  {
    type noSlip;
  }
  sideWalls
  {
    type empty;
  }
  glass1
  {
    type noSlip;
  }
  glass2
  {
    type noSlip;
  }
  sun
  {
    type noSlip;
  }
  heatsource1
  {
    type noSlip;
  }
  heatsource2
  {
    type noSlip;
  }
  Table_master
  {
    type noSlip;
  }
  Table_slave
  {
    type noSlip;
  }
  inlet
  {
    type fixedValue;
    value uniform (0.277164 -0.114805 0);
  }
  outlet
  {
    type zeroGradient;
  }
} 	// ************************************************************************* //

