// -*- C++ -*-
// File generated by PyFoam - sorry for the ugliness

FoamFile
{
 version 2.0;
 format ascii;
 class volScalarField;
 location "400";
 object T;
}

dimensions [ 0 0 0 1 0 0 0 ];

internalField nonuniform List<scalar> 459
(
  303.486
  303.223
  303.211
  303.208
  303.205
  303.202
  303.198
  303.194
  303.187
  303.177
  303.165
  303.152
  303.141
  303.133
  303.13
  303.181
  303.164
  303.158
  303.158
  303.159
  303.161
  303.162
  303.163
  303.165
  303.166
  303.167
  303.168
  303.168
  303.169
  303.17
  303.17
  303.171
  303.172
  303.186
  303.666
  303.266
  303.244
  303.248
  303.252
  303.255
  303.255
  303.251
  303.241
  303.223
  303.198
  303.171
  303.148
  303.131
  303.119
  303.11
  303.1
  303.181
  303.156
  303.15
  303.15
  303.151
  303.151
  303.15
  303.149
  303.148
  303.146
  303.144
  303.143
  303.141
  303.14
  303.139
  303.139
  303.141
  303.144
  303.169
  303.853
  303.316
  303.278
  303.29
  303.305
  303.318
  303.326
  303.327
  303.314
  303.284
  303.242
  303.198
  303.161
  303.135
  303.12
  303.114
  303.11
  303.142
  303.143
  303.147
  303.152
  303.157
  303.159
  303.157
  303.154
  303.151
  303.148
  303.146
  303.143
  303.14
  303.137
  303.135
  303.134
  303.134
  303.136
  303.162
  304.04
  303.379
  303.312
  303.328
  303.356
  303.384
  303.407
  303.416
  303.399
  303.353
  303.288
  303.222
  303.17
  303.136
  303.119
  303.115
  303.116
  303.124
  303.131
  303.143
  303.155
  303.166
  303.174
  303.18
  303.185
  303.19
  303.194
  303.198
  303.201
  303.203
  303.204
  303.204
  303.203
  303.178
  303.157
  303.143
  303.161
  304.22
  303.457
  303.351
  303.36
  303.396
  303.439
  303.481
  303.503
  303.479
  303.412
  303.322
  303.234
  303.17
  303.131
  303.114
  303.113
  303.119
  303.13
  303.144
  303.16
  303.176
  303.19
  303.201
  303.21
  303.218
  303.224
  303.23
  303.234
  303.236
  303.236
  303.234
  303.229
  303.221
  303.204
  303.178
  303.155
  303.158
  303.223
  303.264
  303.272
  304.382
  303.559
  303.42
  303.404
  303.434
  303.483
  303.546
  303.568
  303.526
  303.436
  303.329
  303.23
  303.158
  303.117
  303.104
  303.109
  303.124
  303.144
  303.165
  303.186
  303.206
  303.221
  303.234
  303.243
  303.25
  303.256
  303.261
  303.264
  303.265
  303.262
  303.257
  303.249
  303.238
  303.221
  303.197
  303.171
  303.162
  303.187
  303.201
  303.235
  304.528
  303.721
  303.581
  303.539
  303.543
  303.575
  303.624
  303.613
  303.535
  303.415
  303.29
  303.185
  303.117
  303.088
  303.088
  303.108
  303.137
  303.168
  303.197
  303.222
  303.242
  303.256
  303.267
  303.275
  303.281
  303.286
  303.289
  303.29
  303.289
  303.285
  303.277
  303.266
  303.252
  303.236
  303.214
  303.191
  303.177
  303.182
  303.19
  303.217
  304.743
  304.139
  303.984
  303.881
  303.819
  303.799
  303.746
  303.631
  303.472
  303.309
  303.173
  303.085
  303.045
  303.048
  303.077
  303.121
  303.167
  303.207
  303.24
  303.263
  303.278
  303.29
  303.298
  303.304
  303.308
  303.31
  303.311
  303.31
  303.308
  303.303
  303.296
  303.284
  303.271
  303.257
  303.241
  303.224
  303.217
  303.229
  303.247
  303.374
  305.051
  304.769
  304.508
  304.276
  304.084
  303.909
  303.673
  303.403
  303.169
  303.011
  302.934
  302.924
  302.961
  303.026
  303.097
  303.166
  303.223
  303.259
  303.283
  303.299
  303.31
  303.317
  303.323
  303.326
  303.329
  303.33
  303.33
  303.329
  303.327
  303.325
  303.323
  303.324
  303.327
  303.334
  303.349
  303.373
  303.405
  303.437
  303.459
  303.513
  296.698
  299.015
  300.356
  300.916
  301.313
  301.698
  302.052
  302.359
  302.611
  302.809
  302.967
  303.11
  303.194
  303.248
  303.283
  303.304
  303.318
  303.327
  303.334
  303.339
  303.343
  303.345
  303.347
  303.349
  303.35
  303.351
  303.352
  303.354
  303.357
  303.359
  303.365
  303.373
  303.387
  303.406
  303.429
  303.451
  303.468
  303.485
  297.35
  299.305
  300.49
  301.229
  301.74
  302.139
  302.462
  302.716
  302.912
  303.055
  303.158
  303.229
  303.275
  303.304
  303.323
  303.334
  303.342
  303.348
  303.352
  303.355
  303.357
  303.36
  303.362
  303.364
  303.366
  303.368
  303.37
  303.372
  303.374
  303.377
  303.381
  303.388
  303.398
  303.411
  303.427
  303.443
  303.44
  303.468
  299.656
  299.581
  299.576
  301.271
  302.035
  302.431
  302.69
  302.878
  303.014
  303.115
  303.189
  303.243
  303.281
  303.306
  303.323
  303.333
  303.34
  303.345
  303.348
  303.351
  303.354
  303.357
  303.359
  303.362
  303.365
  303.367
  303.37
  303.372
  303.374
  303.377
  303.379
  303.382
  303.385
  303.39
  303.395
  303.406
  303.415
  303.42
  303.421
  303.458
)
;

boundaryField
{
  floor
  {
    type wallHeatTransfer;
    Tinf uniform 305.2;
    alphaWall uniform 0.24;
    value nonuniform List<scalar> 29
(
  303.332
  303.577
  303.511
  303.484
  303.489
  303.5
  303.513
  303.529
  303.546
  303.563
  303.58
  303.595
  303.61
  303.625
  303.638
  303.652
  303.666
  303.682
  303.691
  303.726
  303.726
  303.622
  303.572
  303.544
  303.332
  303.577
  303.549
  303.369
  303.305
)
;
  }
  ceiling
  {
    type wallHeatTransfer;
    Tinf uniform 303.2;
    alphaWall uniform 0.24;
    value nonuniform List<scalar> 43
(
  299.904
  299.823
  299.811
  301.391
  302.11
  302.483
  302.725
  302.902
  303.029
  303.122
  303.19
  303.238
  303.272
  303.293
  303.305
  303.313
  303.317
  303.32
  303.322
  303.325
  303.327
  303.33
  303.333
  303.335
  303.338
  303.341
  303.344
  303.347
  303.35
  303.353
  303.356
  303.359
  303.363
  303.368
  303.374
  303.385
  303.394
  303.398
  303.398
  303.429
  304.965
  304.706
  297.718
)
;
  }
  sWall
  {
    type wallHeatTransfer;
    Tinf uniform 315.2;
    alphaWall uniform 0.36;
    value uniform 301.241;
  }
  nWall
  {
    type wallHeatTransfer;
    Tinf uniform 307.2;
    alphaWall uniform 0.36;
    value nonuniform List<scalar> 6
(
  303.999
  303.947
  303.871
  304.02
  303.999
  304.057
)
;
  }
  sideWalls
  {
    type empty;
  }
  glass1
  {
    type wallHeatTransfer;
    Tinf uniform 315.2;
    alphaWall uniform 4.3;
    value nonuniform List<scalar> 9
(
  311.571
  310.917
  310.503
  310.186
  309.922
  309.685
  309.506
  309.574
  309.799
)
;
  }
  glass2
  {
    type wallHeatTransfer;
    Tinf uniform 307.2;
    alphaWall uniform 4.3;
    value nonuniform List<scalar> 2
(
  305.736
  305.839
)
;
  }
  sun
  {
    type wallHeatTransfer;
    Tinf uniform 305.2;
    alphaWall uniform 0.24;
    value nonuniform List<scalar> 14
(
  303.672
  303.424
  303.411
  303.402
  303.393
  303.385
  303.377
  303.369
  303.359
  303.349
  303.338
  303.329
  303.325
  303.325
)
;
  }
  heatsource1
  {
    type fixedGradient;
    gradient uniform 0;
  }
  heatsource2
  {
    type fixedGradient;
    gradient uniform 0;
  }
  Table_master
  {
    type zeroGradient;
  }
  Table_slave
  {
    type zeroGradient;
  }
  inlet
  {
    type fixedValue;
    value uniform 293.15;
  }
  outlet
  {
    type zeroGradient;
  }
} 	// ************************************************************************* //

