// -*- C++ -*-
// File generated by PyFoam - sorry for the ugliness

FoamFile
{
 version 2.0;
 format ascii;
 class volVectorField;
 location "400";
 object U;
}

dimensions [ 0 1 -1 0 0 0 0 ];

internalField nonuniform List<vector> 459
(
  (0.0376729 0.0844139 0)
  (-0.163935 0.0242818 0)
  (-0.186164 0.0175584 0)
  (-0.216375 0.0127297 0)
  (-0.23934 0.00734001 0)
  (-0.25437 0.00166391 0)
  (-0.26032 -0.0043916 0)
  (-0.255637 -0.0108727 0)
  (-0.240329 -0.0176706 0)
  (-0.21507 -0.0239245 0)
  (-0.181976 -0.028785 0)
  (-0.143813 -0.0318985 0)
  (-0.103456 -0.0338961 0)
  (-0.0662859 -0.0367769 0)
  (-0.0489077 -0.0420393 0)
  (0.00477395 0.0061225 0)
  (-0.0180809 -0.0186214 0)
  (0.00703236 -0.0254764 0)
  (0.025783 -0.0180304 0)
  (0.0404859 -0.0116929 0)
  (0.0504607 -0.00727695 0)
  (0.0558373 -0.00439012 0)
  (0.0582522 -0.002901 0)
  (0.0592342 -0.00222199 0)
  (0.0596799 -0.00187404 0)
  (0.059881 -0.0016521 0)
  (0.0598659 -0.00147043 0)
  (0.0595757 -0.00124312 0)
  (0.0588111 -0.000810636 0)
  (0.0570323 0.000200234 0)
  (0.0530997 0.00230624 0)
  (0.0457965 0.00438281 0)
  (0.0400903 0.00551434 0)
  (-0.0168697 0.0194917 0)
  (0.213188 0.172908 0)
  (-0.154381 0.063913 0)
  (-0.149689 0.0508453 0)
  (-0.180791 0.0408216 0)
  (-0.203211 0.02956 0)
  (-0.218126 0.017138 0)
  (-0.224486 0.00315271 0)
  (-0.220535 -0.0124637 0)
  (-0.206484 -0.028358 0)
  (-0.183444 -0.0421649 0)
  (-0.153917 -0.0518149 0)
  (-0.121092 -0.0563098 0)
  (-0.0883549 -0.0561263 0)
  (-0.0601287 -0.0529569 0)
  (-0.0422617 -0.0468914 0)
  (-0.0272849 -0.0257481 0)
  (-0.00974192 0.00319453 0)
  (0.0738632 0.0262415 0)
  (0.0365794 -0.0187136 0)
  (0.0407296 -0.0279548 0)
  (0.0507448 -0.0226898 0)
  (0.0582697 -0.0147832 0)
  (0.0627154 -0.00792903 0)
  (0.0642224 -0.00289319 0)
  (0.0642548 -0.000199262 0)
  (0.064094 0.000995646 0)
  (0.0641217 0.00158864 0)
  (0.0642245 0.00197667 0)
  (0.0642846 0.00230926 0)
  (0.0642694 0.00274347 0)
  (0.0641326 0.00361385 0)
  (0.0633403 0.0057988 0)
  (0.0594886 0.0119419 0)
  (0.0497887 0.0167441 0)
  (0.0458629 0.019088 0)
  (-0.0524303 0.0425801 0)
  (0.373434 0.258714 0)
  (-0.172867 0.102289 0)
  (-0.112285 0.0822854 0)
  (-0.142425 0.0639781 0)
  (-0.161929 0.0453919 0)
  (-0.175432 0.025302 0)
  (-0.181436 0.00261932 0)
  (-0.177001 -0.0225162 0)
  (-0.162779 -0.0476466 0)
  (-0.140686 -0.068597 0)
  (-0.11374 -0.0822657 0)
  (-0.0851548 -0.0874744 0)
  (-0.0577456 -0.0849469 0)
  (-0.0341124 -0.0761303 0)
  (-0.0165054 -0.0612582 0)
  (-0.00243051 -0.0371258 0)
  (0.0107452 -0.00518005 0)
  (0.105193 -0.0490794 0)
  (0.0684582 -0.0455344 0)
  (0.0644871 -0.0378996 0)
  (0.0673082 -0.0285662 0)
  (0.0691389 -0.0191561 0)
  (0.0697796 -0.0114766 0)
  (0.0681006 -0.00954869 0)
  (0.0650937 -0.00703816 0)
  (0.0632164 -0.0057046 0)
  (0.0625065 -0.00495907 0)
  (0.0623264 -0.00449842 0)
  (0.0623791 -0.00416552 0)
  (0.0627186 -0.00379841 0)
  (0.063793 -0.00308561 0)
  (0.066766 -0.000120073 0)
  (0.0646898 0.0169045 0)
  (0.0510284 0.0284449 0)
  (0.0531991 0.035327 0)
  (-0.0830272 0.067077 0)
  (0.516649 0.32774 0)
  (-0.208535 0.136758 0)
  (-0.0729678 0.108757 0)
  (-0.101701 0.0832408 0)
  (-0.11539 0.0595832 0)
  (-0.125212 0.0337533 0)
  (-0.129036 0.00311554 0)
  (-0.121613 -0.0319138 0)
  (-0.105931 -0.0661594 0)
  (-0.0849712 -0.0931431 0)
  (-0.0618959 -0.109401 0)
  (-0.0393442 -0.114232 0)
  (-0.0189776 -0.109234 0)
  (-0.00135999 -0.0960995 0)
  (0.0132526 -0.0761521 0)
  (0.0275012 -0.0515312 0)
  (0.0490223 -0.0268253 0)
  (0.0789429 -0.00565 0)
  (0.0885855 -0.0369789 0)
  (0.0756026 -0.0390103 0)
  (0.0686505 -0.0324885 0)
  (0.0664686 -0.025335 0)
  (0.0655723 -0.0178308 0)
  (0.0660566 -0.00942272 0)
  (0.0690487 -0.00585173 0)
  (0.0737402 -0.00518385 0)
  (0.077915 -0.00479769 0)
  (0.0813059 -0.0043709 0)
  (0.0838194 -0.0036171 0)
  (0.0847948 -0.00232472 0)
  (0.0828748 -0.000275538 0)
  (0.0768227 0.00277369 0)
  (0.0639823 0.00733212 0)
  (0.0524452 0.0275195 0)
  (0.0406772 0.043892 0)
  (0.0568312 0.0560412 0)
  (-0.117039 0.0892885 0)
  (0.638905 0.381449 0)
  (-0.250578 0.165484 0)
  (-0.0343503 0.123652 0)
  (-0.0591346 0.0939517 0)
  (-0.0645629 0.0676495 0)
  (-0.0680682 0.0385374 0)
  (-0.0661061 0.00143534 0)
  (-0.0518205 -0.043279 0)
  (-0.0344602 -0.0843901 0)
  (-0.0165907 -0.114105 0)
  (-0.000162146 -0.130024 0)
  (0.0134564 -0.132337 0)
  (0.0239882 -0.124212 0)
  (0.0321464 -0.108628 0)
  (0.0388735 -0.0879821 0)
  (0.0460379 -0.0650798 0)
  (0.0560879 -0.0446726 0)
  (0.0666356 -0.035479 0)
  (0.0692519 -0.0391835 0)
  (0.0636599 -0.0357976 0)
  (0.0568915 -0.0291242 0)
  (0.0524203 -0.0226756 0)
  (0.0498908 -0.0167382 0)
  (0.0494108 -0.0111939 0)
  (0.05107 -0.0071736 0)
  (0.0544457 -0.00552504 0)
  (0.0580196 -0.00493412 0)
  (0.0615277 -0.00420244 0)
  (0.0647455 -0.0024885 0)
  (0.0671471 0.000808083 0)
  (0.0675853 0.00571616 0)
  (0.0652676 0.0122555 0)
  (0.0596375 0.0209887 0)
  (0.0525492 0.0366385 0)
  (0.0422373 0.0550102 0)
  (0.0646926 0.0748937 0)
  (-0.0229006 0.102145 0)
  (0.0448026 0.0296172 0)
  (-0.0633731 -0.0351899 0)
  (-0.272729 -0.0578234 0)
  (0.725963 0.426552 0)
  (-0.290294 0.185297 0)
  (-0.0055779 0.119195 0)
  (-0.015213 0.094063 0)
  (-0.00971389 0.0693327 0)
  (-0.00470016 0.0377398 0)
  (0.0126777 -0.00784709 0)
  (0.032951 -0.0593963 0)
  (0.049128 -0.100878 0)
  (0.0602982 -0.127701 0)
  (0.0664454 -0.139742 0)
  (0.0682353 -0.13891 0)
  (0.0668837 -0.128283 0)
  (0.063585 -0.110996 0)
  (0.0596531 -0.0900048 0)
  (0.0565043 -0.0682488 0)
  (0.0551914 -0.0491671 0)
  (0.0544321 -0.0370131 0)
  (0.0507382 -0.0322378 0)
  (0.0436837 -0.0281635 0)
  (0.0362992 -0.0231632 0)
  (0.0309465 -0.0185022 0)
  (0.0279033 -0.0145645 0)
  (0.0271818 -0.011253 0)
  (0.0285327 -0.00913219 0)
  (0.031362 -0.00871297 0)
  (0.0348396 -0.00886783 0)
  (0.0386858 -0.00847198 0)
  (0.042733 -0.0066066 0)
  (0.0466641 -0.00240304 0)
  (0.050192 0.0044704 0)
  (0.0518375 0.013428 0)
  (0.0519443 0.0244516 0)
  (0.0521071 0.0391874 0)
  (0.0505402 0.057167 0)
  (0.0732567 0.0798865 0)
  (0.0520816 0.0967369 0)
  (0.0927612 0.0672544 0)
  (0.116199 0.0442321 0)
  (-0.130747 -0.00830163 0)
  (0.775404 0.467728 0)
  (-0.309064 0.171711 0)
  (0.0201736 0.0689931 0)
  (0.0430479 0.070077 0)
  (0.0586902 0.0581146 0)
  (0.0744888 0.02417 0)
  (0.106799 -0.0290871 0)
  (0.128636 -0.077217 0)
  (0.139253 -0.111927 0)
  (0.140002 -0.131723 0)
  (0.132865 -0.137763 0)
  (0.12014 -0.132547 0)
  (0.104262 -0.119247 0)
  (0.0872779 -0.10086 0)
  (0.0709311 -0.0802927 0)
  (0.0565075 -0.0600698 0)
  (0.0447508 -0.0426604 0)
  (0.0352308 -0.0305701 0)
  (0.0262483 -0.0239857 0)
  (0.0175316 -0.0200338 0)
  (0.0101696 -0.0168037 0)
  (0.00510325 -0.0143041 0)
  (0.00231897 -0.0125665 0)
  (0.00160519 -0.0114476 0)
  (0.00260319 -0.0111638 0)
  (0.00472549 -0.0117878 0)
  (0.00743508 -0.0125717 0)
  (0.0105995 -0.0126919 0)
  (0.0143159 -0.0113146 0)
  (0.018737 -0.00741514 0)
  (0.0247592 5.7147e-05 0)
  (0.0310879 0.0101529 0)
  (0.0366304 0.0215401 0)
  (0.0435675 0.034734 0)
  (0.0511106 0.0495087 0)
  (0.0734169 0.0678605 0)
  (0.0864163 0.0748212 0)
  (0.118733 0.0516868 0)
  (0.15853 0.0434376 0)
  (-0.0348575 0.0935118 0)
  (0.879384 0.471134 0)
  (-0.0718758 0.151479 0)
  (0.10535 -0.00810635 0)
  (0.171698 -0.0210167 0)
  (0.183975 -0.0236121 0)
  (0.207805 -0.0482277 0)
  (0.232242 -0.0766056 0)
  (0.241364 -0.100289 0)
  (0.234628 -0.115937 0)
  (0.215582 -0.12231 0)
  (0.188361 -0.119744 0)
  (0.156778 -0.109887 0)
  (0.124187 -0.0950587 0)
  (0.092896 -0.07726 0)
  (0.0647288 -0.0588237 0)
  (0.0406133 -0.0416313 0)
  (0.0212451 -0.0274604 0)
  (0.00669752 -0.0181908 0)
  (-0.00459607 -0.0136537 0)
  (-0.0126705 -0.0119502 0)
  (-0.0186094 -0.0111503 0)
  (-0.0226298 -0.0108826 0)
  (-0.0250817 -0.0110523 0)
  (-0.0262703 -0.0115867 0)
  (-0.0265228 -0.0125209 0)
  (-0.0262523 -0.0137784 0)
  (-0.025768 -0.0150016 0)
  (-0.0251073 -0.0157463 0)
  (-0.0240689 -0.0155181 0)
  (-0.0222265 -0.0137288 0)
  (-0.0185628 -0.00966026 0)
  (-0.00939771 -0.00254418 0)
  (6.983e-06 0.00668092 0)
  (0.010827 0.0155016 0)
  (0.0226732 0.0226679 0)
  (0.042805 0.0298902 0)
  (0.0613277 0.0223763 0)
  (0.0805123 -0.00560792 0)
  (0.139418 0.0400439 0)
  (-0.415464 0.207139 0)
  (1.02463 0.425269 0)
  (0.488509 0.281273 0)
  (0.501318 0.189956 0)
  (0.517753 0.126091 0)
  (0.491437 0.0813802 0)
  (0.454892 0.0370578 0)
  (0.413283 -0.00632451 0)
  (0.36597 -0.0414357 0)
  (0.313463 -0.0642556 0)
  (0.258336 -0.0745197 0)
  (0.203744 -0.0743977 0)
  (0.152212 -0.0671045 0)
  (0.105765 -0.0557479 0)
  (0.0647605 -0.0420792 0)
  (0.0306489 -0.0283716 0)
  (0.00270307 -0.0162973 0)
  (-0.0174116 -0.00840039 0)
  (-0.0293379 -0.00550699 0)
  (-0.0373082 -0.00518019 0)
  (-0.0430333 -0.00590399 0)
  (-0.0475 -0.00685843 0)
  (-0.0510544 -0.0078992 0)
  (-0.0539802 -0.00902324 0)
  (-0.0565118 -0.0102287 0)
  (-0.0589112 -0.0115145 0)
  (-0.0614954 -0.0127885 0)
  (-0.064563 -0.0137975 0)
  (-0.0683709 -0.0141522 0)
  (-0.0732116 -0.0133136 0)
  (-0.0795071 -0.0105749 0)
  (-0.0877812 -0.00512642 0)
  (-0.0983164 0.00366899 0)
  (-0.108667 0.0150653 0)
  (-0.123731 0.0291358 0)
  (-0.147847 0.0458984 0)
  (-0.183508 0.0641728 0)
  (-0.234074 0.0798771 0)
  (-0.291435 0.0904492 0)
  (-0.359812 0.0959894 0)
  (-0.62106 0.0973145 0)
  (-0.17803 0.0183772 0)
  (0.13503 0.0370425 0)
  (0.225797 0.00994718 0)
  (0.21611 -0.0128979 0)
  (0.201911 -0.0257894 0)
  (0.182416 -0.0322224 0)
  (0.154475 -0.0343128 0)
  (0.120893 -0.0326599 0)
  (0.0850887 -0.0279827 0)
  (0.0497518 -0.0211572 0)
  (0.0172637 -0.0128205 0)
  (-0.0158681 -0.00297015 0)
  (-0.0375915 0.00267586 0)
  (-0.0520349 0.00527267 0)
  (-0.0603586 0.00548497 0)
  (-0.0651947 0.00448493 0)
  (-0.0687527 0.00321439 0)
  (-0.0719576 0.00182141 0)
  (-0.0751725 0.00038663 0)
  (-0.0784489 -0.00100481 0)
  (-0.0818943 -0.00232435 0)
  (-0.0855948 -0.00352516 0)
  (-0.0896546 -0.00452665 0)
  (-0.0941896 -0.00518421 0)
  (-0.0992694 -0.00526067 0)
  (-0.104873 -0.00444152 0)
  (-0.110876 -0.00236241 0)
  (-0.117024 0.00135219 0)
  (-0.122773 0.00705374 0)
  (-0.127009 0.0154105 0)
  (-0.130411 0.0276012 0)
  (-0.133259 0.0439221 0)
  (-0.136457 0.0633683 0)
  (-0.140561 0.08219 0)
  (-0.142383 0.0904601 0)
  (-0.124621 0.067453 0)
  (-0.0787244 -0.0264884 0)
  (-0.27977 -0.204694 0)
  (-0.0193748 0.206819 0)
  (0.0497331 0.0899351 0)
  (0.0159208 0.0208373 0)
  (0.00828369 0.0086404 0)
  (0.0048581 0.00565827 0)
  (-0.001113 0.000775118 0)
  (-0.014904 -0.00191422 0)
  (-0.0327717 -0.00139924 0)
  (-0.0511545 0.000849189 0)
  (-0.0671705 0.00327881 0)
  (-0.0786567 0.00467112 0)
  (-0.0845865 0.00377319 0)
  (-0.087552 0.00058264 0)
  (-0.0888101 -0.0033634 0)
  (-0.0893535 -0.00757032 0)
  (-0.0900745 -0.0115721 0)
  (-0.091258 -0.014813 0)
  (-0.0928079 -0.0170543 0)
  (-0.0946894 -0.0183399 0)
  (-0.0969457 -0.0188651 0)
  (-0.0995501 -0.0189383 0)
  (-0.102507 -0.0187904 0)
  (-0.105799 -0.018451 0)
  (-0.109358 -0.0178719 0)
  (-0.113038 -0.0169123 0)
  (-0.116579 -0.0153199 0)
  (-0.119578 -0.0127095 0)
  (-0.121477 -0.00851829 0)
  (-0.121618 -0.00225748 0)
  (-0.119092 0.00640957 0)
  (-0.112444 0.0183523 0)
  (-0.10042 0.0342836 0)
  (-0.082837 0.0536767 0)
  (-0.0606632 0.0722431 0)
  (-0.036932 0.0828219 0)
  (0.00385545 0.066372 0)
  (0.143196 -0.00474501 0)
  (-0.207681 -0.115357 0)
  (-0.0604463 -0.327592 0)
  (-0.419337 -0.121272 0)
  (-0.305933 0.0736659 0)
  (-0.235369 -0.0208205 0)
  (-0.190267 -0.0352723 0)
  (-0.170177 -0.0269953 0)
  (-0.161224 -0.0188783 0)
  (-0.157445 -0.0116915 0)
  (-0.155403 -0.00441128 0)
  (-0.152827 0.00272672 0)
  (-0.148691 0.00958708 0)
  (-0.142669 0.0162522 0)
  (-0.134941 0.022746 0)
  (-0.126231 0.0288273 0)
  (-0.117825 0.0343368 0)
  (-0.110532 0.0394358 0)
  (-0.104779 0.0439744 0)
  (-0.100636 0.0477389 0)
  (-0.0979243 0.0503961 0)
  (-0.0964005 0.051709 0)
  (-0.095839 0.0517228 0)
  (-0.0960584 0.0506356 0)
  (-0.0969275 0.0489105 0)
  (-0.098343 0.0469114 0)
  (-0.100212 0.0447549 0)
  (-0.102415 0.0425318 0)
  (-0.104763 0.0403227 0)
  (-0.106966 0.0381971 0)
  (-0.10858 0.0362067 0)
  (-0.108912 0.0343949 0)
  (-0.106717 0.0332986 0)
  (-0.100004 0.0338682 0)
  (-0.0863023 0.0368625 0)
  (-0.0638198 0.0431568 0)
  (-0.0333665 0.0532069 0)
  (0.0160173 0.0666456 0)
  (0.060576 0.0675047 0)
  (0.103345 0.0524102 0)
  (0.164345 0.0229786 0)
  (-0.216377 -0.0326016 0)
)
;

boundaryField
{
  floor
  {
    type noSlip;
  }
  ceiling
  {
    type noSlip;
  }
  sWall
  {
    type noSlip;
  }
  nWall
  {
    type noSlip;
  }
  sideWalls
  {
    type empty;
  }
  glass1
  {
    type noSlip;
  }
  glass2
  {
    type noSlip;
  }
  sun
  {
    type noSlip;
  }
  heatsource1
  {
    type noSlip;
  }
  heatsource2
  {
    type noSlip;
  }
  Table_master
  {
    type noSlip;
  }
  Table_slave
  {
    type noSlip;
  }
  inlet
  {
    type fixedValue;
    value uniform (0.277164 -0.114805 0);
  }
  outlet
  {
    type zeroGradient;
  }
} 	// ************************************************************************* //

