/*--------------------------------*- C++ -*----------------------------------*\
  =========                 |
  \\      /  F ield         | OpenFOAM: The Open Source CFD Toolbox
   \\    /   O peration     | Website:  https://openfoam.org
    \\  /    A nd           | Version:  6
     \\/     M anipulation  |
\*---------------------------------------------------------------------------*/
FoamFile
{
    version     2.0;
    format      ascii;
    class       volScalarField;
    location    "400";
    object      alphat;
}
// * * * * * * * * * * * * * * * * * * * * * * * * * * * * * * * * * * * * * //

dimensions      [1 -1 -1 0 0 0 0];

internalField   nonuniform List<scalar> 
459
(
0.00123451
0.00134812
0.0013715
0.00143662
0.00149667
0.00155249
0.00160666
0.00166189
0.0017024
0.00172221
0.00171532
0.00167761
0.00160903
0.00151675
0.00141696
0.000542315
0.000668244
0.000745897
0.0007343
0.00070545
0.000670209
0.000628831
0.000588602
0.000552173
0.000519769
0.000491001
0.000465366
0.000442568
0.000422018
0.000403003
0.000384571
0.000365291
0.000351818
0.00032073
0.00168733
0.00408997
0.0039036
0.00454334
0.00516601
0.0057926
0.00635773
0.0067707
0.0071481
0.00745997
0.0076601
0.00769134
0.00746824
0.00678534
0.00496375
0.00143989
0.000885497
0.000596012
0.00121794
0.00165421
0.00195421
0.00210283
0.00208886
0.00171082
0.00148759
0.00132535
0.0011995
0.00109855
0.00101581
0.000942804
0.000874564
0.000808621
0.000750506
0.000699406
0.000820241
0.00042252
0.0020647
0.00559022
0.00483354
0.0061103
0.00674154
0.00720679
0.007565
0.00783348
0.00812538
0.00843427
0.00872527
0.00893999
0.00901557
0.00887089
0.00828699
0.00649804
0.00139429
0.0012096
0.00169338
0.00212197
0.00248699
0.0027223
0.00263673
0.000898989
0.000795907
0.000713092
0.000646185
0.00059159
0.000546565
0.000509143
0.000478046
0.000452712
0.000487071
0.000561734
0.000917764
0.000489543
0.00242752
0.00717455
0.00483622
0.00648671
0.00707724
0.00727469
0.00738029
0.00749402
0.00770863
0.00801178
0.00837386
0.0087195
0.00898605
0.0091169
0.00901205
0.00842823
0.00648869
0.00169579
0.0021035
0.00268615
0.00321131
0.00359987
0.00382124
0.00356885
0.00101101
0.000922272
0.000858968
0.000810934
0.000770212
0.000732611
0.00069659
0.000658797
0.00061485
0.000577572
0.000589085
0.00104353
0.000541123
0.00279757
0.00921347
0.00532697
0.00621712
0.00702588
0.00710162
0.00702087
0.00703747
0.00722392
0.00752478
0.00793283
0.00834263
0.00867188
0.00884315
0.00882062
0.00855571
0.00787502
0.00645446
0.00594358
0.00573412
0.00562259
0.00554192
0.00545496
0.00524546
0.00445903
0.00408712
0.00387357
0.00370782
0.00352966
0.00326872
0.00290813
0.0024651
0.00196877
0.00146178
0.00107668
0.00107212
0.000721552
0.00066985
0.000811417
0.000909687
0.0031895
0.0114286
0.00737534
0.00613301
0.0067257
0.00701282
0.00686156
0.0068959
0.00704315
0.00731617
0.00771468
0.00815998
0.00852595
0.00870101
0.00864009
0.00837621
0.00799133
0.00756005
0.00728253
0.0070709
0.00686152
0.00665473
0.00644982
0.00621351
0.0058722
0.00556843
0.0052969
0.00503385
0.00476388
0.00446979
0.00409031
0.00360821
0.00302208
0.00236339
0.00177298
0.00131923
0.00099758
0.000850611
0.00121691
0.000947863
0.00354719
0.0129845
0.0103939
0.00792092
0.00744127
0.00743244
0.00723516
0.00707786
0.00709677
0.0073429
0.00777528
0.00826971
0.0086609
0.00881288
0.0086831
0.0083492
0.00799123
0.00777048
0.00767858
0.00755047
0.00732002
0.00701417
0.00666254
0.00628654
0.00590716
0.00556489
0.00525372
0.00496296
0.00469204
0.00444757
0.00422897
0.00391069
0.0034502
0.00288213
0.00233169
0.00183321
0.00146983
0.00135507
0.00138304
0.00107126
0.00361521
0.0115942
0.0102772
0.00945738
0.00884136
0.00808876
0.00741903
0.00708709
0.00715015
0.0075459
0.0081289
0.00870539
0.00907739
0.00911843
0.00883388
0.00837104
0.00798533
0.00783128
0.00776575
0.00749241
0.00704306
0.00650948
0.00597174
0.00549055
0.00509173
0.00476664
0.00449264
0.00425999
0.00407218
0.00393889
0.00387025
0.00383818
0.00359037
0.00321596
0.00288275
0.00270731
0.00280212
0.00323172
0.00400158
0.00168304
0.00351615
0.0041773
0.0046539
0.00480363
0.00488104
0.00508553
0.00553407
0.00625912
0.00719353
0.00817887
0.00903048
0.00958051
0.00969393
0.00935677
0.00873291
0.0081364
0.00778678
0.00750813
0.00712843
0.00656538
0.0059002
0.00525489
0.00471065
0.00428799
0.00396529
0.00370922
0.00349487
0.00330941
0.00314551
0.00299585
0.00285247
0.00271568
0.00260502
0.00252293
0.00249304
0.00250809
0.00250108
0.00240871
0.00225591
0.00158526
0.0018088
0.00365416
0.00561373
0.00729054
0.00864283
0.0097321
0.0104766
0.0108298
0.0108092
0.010434
0.00969876
0.00874121
0.00780522
0.00713827
0.0066538
0.0061191
0.00549132
0.00484145
0.00425371
0.00378504
0.003433
0.00316778
0.00296125
0.00279493
0.00265951
0.00255153
0.00247014
0.00241584
0.00239187
0.00239783
0.00241815
0.00244967
0.00248463
0.00249592
0.00243858
0.00229609
0.00208123
0.00131958
0.00236861
0.00588836
0.00871595
0.00978277
0.0103662
0.0106097
0.0104593
0.00995176
0.00918224
0.00826474
0.00732836
0.00649045
0.00578964
0.00519833
0.00463163
0.00409731
0.00364997
0.00330728
0.00305387
0.00285654
0.00269279
0.00255199
0.00243733
0.00234874
0.00228543
0.00224695
0.00223202
0.00223748
0.00227066
0.00232902
0.00240891
0.00250252
0.00259204
0.00265438
0.00263825
0.00267259
0.00271737
0.00134523
0.00209075
0.00221615
0.00230499
0.00246257
0.00237226
0.00226372
0.0021933
0.00210488
0.00198214
0.00182841
0.00165235
0.00146597
0.00128296
0.00111938
0.000991108
0.000899937
0.000837498
0.00079491
0.000766029
0.000747054
0.000735717
0.000730537
0.000731153
0.000737795
0.000749484
0.000766115
0.000787948
0.000815369
0.000849018
0.000890054
0.000937416
0.000991058
0.00105164
0.00111979
0.00119518
0.0012843
0.00131548
0.00128324
0.00120544
0.00112367
)
;

boundaryField
{
    floor
    {
        type            compressible::alphatWallFunction;
        Prt             0.85;
        value           nonuniform List<scalar> 
29
(
0.000199801
7.56984e-05
9.4535e-05
0.00010593
0.000104237
0.000100013
9.48246e-05
8.86898e-05
8.2678e-05
7.71901e-05
7.22708e-05
6.78713e-05
6.39235e-05
6.03895e-05
5.71841e-05
5.42002e-05
5.12906e-05
4.82277e-05
4.6075e-05
4.10659e-05
4.10653e-05
5.72629e-05
6.7648e-05
7.55176e-05
0.000199798
7.56975e-05
8.37897e-05
0.000171492
0.000237147
)
;
    }
    ceiling
    {
        type            compressible::alphatWallFunction;
        Prt             0.85;
        value           nonuniform List<scalar> 
43
(
0.000288818
0.00030502
0.000316442
0.000336705
0.000325228
0.000311334
0.000302281
0.000290861
0.000274915
0.000254787
0.0002315
0.000206546
0.000181693
0.000159134
0.000141179
0.000128253
0.000119312
0.000113168
0.00010898
0.000106218
0.000104564
0.000103807
0.000103898
0.000104869
0.000106574
0.000108995
0.000112164
0.000116128
0.000120971
0.000126847
0.000133589
0.000141177
0.00014969
0.000159198
0.000169638
0.000181884
0.000186146
0.00018174
0.000171054
0.000159742
0.000468564
0.000548985
0.00032443
)
;
    }
    sWall
    {
        type            compressible::alphatWallFunction;
        Prt             0.85;
        value           uniform 0.000287608;
    }
    nWall
    {
        type            compressible::alphatWallFunction;
        Prt             0.85;
        value           nonuniform List<scalar> 6(0.000129328 0.000134746 0.000152099 0.00018638 0.000189873 0.00015942);
    }
    sideWalls
    {
        type            empty;
    }
    glass1
    {
        type            compressible::alphatWallFunction;
        Prt             0.85;
        value           nonuniform List<scalar> 9(0.000170692 0.000230985 0.000279987 0.000326279 0.000372805 0.000421428 0.00046531 0.000473734 0.000461877);
    }
    glass2
    {
        type            compressible::alphatWallFunction;
        Prt             0.85;
        value           nonuniform List<scalar> 2(0.000233906 0.000220997);
    }
    sun
    {
        type            compressible::alphatWallFunction;
        Prt             0.85;
        value           nonuniform List<scalar> 
14
(
0.000174941
0.000190462
0.00019364
0.000202463
0.000210557
0.000218049
0.000225292
0.000232648
0.000238026
0.00024065
0.000239737
0.000234734
0.000225605
0.000213252
)
;
    }
    heatsource1
    {
        type            compressible::alphatWallFunction;
        Prt             0.85;
        value           nonuniform List<scalar> 3(9.48751e-05 0.000115542 0.00012963);
    }
    heatsource2
    {
        type            compressible::alphatWallFunction;
        Prt             0.85;
        value           nonuniform List<scalar> 4(0.000203019 0.000126181 0.00012618 0.000196844);
    }
    Table_master
    {
        type            compressible::alphatWallFunction;
        Prt             0.85;
        value           nonuniform List<scalar> 9(0.000128101 0.000113296 0.000101236 9.13682e-05 8.32238e-05 7.64372e-05 7.07436e-05 6.59723e-05 6.20562e-05);
    }
    Table_slave
    {
        type            compressible::alphatWallFunction;
        Prt             0.85;
        value           nonuniform List<scalar> 9(0.000143968 0.000131419 0.000122381 0.00011547 0.000109574 0.000104095 9.88152e-05 9.32398e-05 8.67068e-05);
    }
    inlet
    {
        type            fixedValue;
        value           uniform 1.94e-05;
    }
    outlet
    {
        type            zeroGradient;
    }
}


// ************************************************************************* //
