// -*- C++ -*-
// File generated by PyFoam - sorry for the ugliness

FoamFile
{
 version 2.0;
 format ascii;
 class volScalarField;
 location "520";
 object T;
}

dimensions [ 0 0 0 1 0 0 0 ];

internalField nonuniform List<scalar> 459
(
  303.541
  303.409
  303.405
  303.406
  303.407
  303.407
  303.407
  303.406
  303.403
  303.399
  303.394
  303.39
  303.388
  303.385
  303.351
  303.329
  303.408
  303.437
  303.451
  303.459
  303.464
  303.465
  303.464
  303.462
  303.46
  303.458
  303.456
  303.453
  303.451
  303.448
  303.444
  303.44
  303.429
  303.367
  303.635
  303.441
  303.434
  303.439
  303.442
  303.444
  303.444
  303.44
  303.432
  303.419
  303.406
  303.398
  303.397
  303.399
  303.397
  303.404
  303.408
  303.418
  303.456
  303.471
  303.484
  303.495
  303.502
  303.504
  303.505
  303.506
  303.506
  303.506
  303.505
  303.505
  303.503
  303.499
  303.492
  303.481
  303.461
  303.445
  303.73
  303.469
  303.456
  303.465
  303.474
  303.48
  303.482
  303.478
  303.462
  303.437
  303.412
  303.396
  303.395
  303.402
  303.409
  303.413
  303.414
  303.445
  303.463
  303.482
  303.499
  303.514
  303.526
  303.526
  303.526
  303.526
  303.526
  303.527
  303.527
  303.528
  303.527
  303.525
  303.52
  303.508
  303.487
  303.471
  303.825
  303.499
  303.476
  303.489
  303.506
  303.521
  303.53
  303.527
  303.502
  303.459
  303.416
  303.391
  303.389
  303.401
  303.414
  303.422
  303.424
  303.432
  303.45
  303.472
  303.496
  303.518
  303.538
  303.553
  303.567
  303.579
  303.589
  303.598
  303.606
  303.612
  303.617
  303.622
  303.624
  303.596
  303.563
  303.526
  303.498
  303.92
  303.536
  303.494
  303.508
  303.533
  303.56
  303.581
  303.581
  303.542
  303.479
  303.418
  303.384
  303.382
  303.399
  303.419
  303.436
  303.449
  303.464
  303.483
  303.506
  303.53
  303.552
  303.572
  303.589
  303.605
  303.617
  303.627
  303.636
  303.642
  303.647
  303.65
  303.65
  303.647
  303.633
  303.605
  303.568
  303.53
  303.531
  303.533
  303.563
  304.007
  303.582
  303.519
  303.523
  303.548
  303.581
  303.619
  303.62
  303.565
  303.485
  303.413
  303.375
  303.374
  303.398
  303.429
  303.457
  303.478
  303.499
  303.522
  303.546
  303.569
  303.591
  303.61
  303.626
  303.639
  303.649
  303.657
  303.663
  303.667
  303.67
  303.671
  303.669
  303.664
  303.654
  303.635
  303.607
  303.574
  303.56
  303.554
  303.573
  304.083
  303.657
  303.583
  303.565
  303.577
  303.606
  303.646
  303.634
  303.565
  303.471
  303.392
  303.356
  303.365
  303.403
  303.448
  303.487
  303.517
  303.543
  303.567
  303.59
  303.611
  303.63
  303.646
  303.658
  303.667
  303.674
  303.679
  303.681
  303.683
  303.683
  303.682
  303.679
  303.674
  303.665
  303.652
  303.632
  303.606
  303.587
  303.573
  303.582
  304.197
  303.864
  303.771
  303.713
  303.69
  303.703
  303.699
  303.635
  303.526
  303.415
  303.341
  303.325
  303.359
  303.419
  303.481
  303.53
  303.565
  303.591
  303.613
  303.633
  303.65
  303.663
  303.673
  303.681
  303.685
  303.688
  303.689
  303.689
  303.688
  303.686
  303.684
  303.681
  303.676
  303.669
  303.659
  303.645
  303.627
  303.611
  303.599
  303.66
  304.354
  304.2
  304.085
  303.979
  303.9
  303.841
  303.718
  303.547
  303.387
  303.283
  303.254
  303.292
  303.372
  303.46
  303.535
  303.585
  303.614
  303.635
  303.652
  303.665
  303.675
  303.683
  303.688
  303.691
  303.692
  303.692
  303.691
  303.69
  303.688
  303.685
  303.681
  303.677
  303.673
  303.67
  303.667
  303.667
  303.671
  303.681
  303.696
  303.736
  301.565
  302.267
  302.634
  302.751
  302.802
  302.857
  302.933
  303.038
  303.169
  303.309
  303.44
  303.542
  303.598
  303.631
  303.651
  303.665
  303.675
  303.682
  303.687
  303.69
  303.691
  303.692
  303.692
  303.691
  303.69
  303.689
  303.687
  303.685
  303.683
  303.681
  303.679
  303.679
  303.679
  303.681
  303.687
  303.698
  303.714
  303.747
  301.621
  302.176
  302.419
  302.552
  302.666
  302.81
  302.973
  303.142
  303.316
  303.452
  303.543
  303.603
  303.637
  303.657
  303.668
  303.676
  303.681
  303.685
  303.687
  303.688
  303.689
  303.689
  303.689
  303.689
  303.689
  303.689
  303.689
  303.688
  303.688
  303.687
  303.687
  303.686
  303.687
  303.688
  303.692
  303.699
  303.712
  303.733
  302.14
  302.101
  302.1
  302.435
  302.646
  302.839
  303.034
  303.192
  303.323
  303.431
  303.515
  303.574
  303.611
  303.634
  303.648
  303.656
  303.661
  303.664
  303.665
  303.667
  303.667
  303.668
  303.668
  303.669
  303.669
  303.67
  303.671
  303.672
  303.673
  303.674
  303.676
  303.678
  303.679
  303.681
  303.683
  303.685
  303.687
  303.692
  303.693
  303.725
)
;

boundaryField
{
  floor
  {
    type wallHeatTransfer;
    Tinf uniform 300.653;
    alphaWall uniform 0.24;
    value nonuniform List<scalar> 29
(
  302.998
  302.844
  303.005
  303.024
  303.03
  303.03
  303.024
  303.007
  302.986
  302.964
  302.942
  302.921
  302.9
  302.879
  302.859
  302.838
  302.816
  302.789
  302.742
  302.682
  302.682
  302.837
  302.893
  302.96
  302.998
  302.844
  303.031
  303.102
  303.156
)
;
  }
  ceiling
  {
    type wallHeatTransfer;
    Tinf uniform 300.653;
    alphaWall uniform 0.24;
    value nonuniform List<scalar> 43
(
  302.01
  301.979
  301.982
  302.3
  302.495
  302.669
  302.845
  302.994
  303.12
  303.225
  303.304
  303.355
  303.384
  303.4
  303.409
  303.414
  303.417
  303.419
  303.42
  303.421
  303.421
  303.421
  303.421
  303.421
  303.421
  303.42
  303.419
  303.415
  303.41
  303.405
  303.4
  303.394
  303.39
  303.387
  303.386
  303.387
  303.388
  303.39
  303.392
  303.414
  304.146
  304.03
  301.54
)
;
  }
  sWall
  {
    type wallHeatTransfer;
    Tinf uniform 310.178;
    alphaWall uniform 0.36;
    value uniform 303.157;
  }
  nWall
  {
    type wallHeatTransfer;
    Tinf uniform 306.167;
    alphaWall uniform 0.36;
    value nonuniform List<scalar> 6
(
  304.192
  304.102
  304.05
  304.074
  304.038
  304.078
)
;
  }
  sideWalls
  {
    type empty;
  }
  glass1
  {
    type wallHeatTransfer;
    Tinf uniform 310.178;
    alphaWall uniform 4.3;
    value nonuniform List<scalar> 9
(
  308.329
  308.018
  307.811
  307.647
  307.506
  307.374
  307.26
  307.277
  307.376
)
;
  }
  glass2
  {
    type wallHeatTransfer;
    Tinf uniform 306.167;
    alphaWall uniform 4.3;
    value nonuniform List<scalar> 2
(
  305.368
  305.37
)
;
  }
  sun
  {
    type wallHeatTransfer;
    Tinf uniform 300.653;
    alphaWall uniform 0.24;
    value nonuniform List<scalar> 14
(
  303.181
  303.087
  303.091
  303.103
  303.113
  303.122
  303.13
  303.137
  303.14
  303.139
  303.135
  303.128
  303.117
  303.094
)
;
  }
  heatsource1
  {
    type fixedGradient;
    gradient uniform 0;
  }
  heatsource2
  {
    type fixedGradient;
    gradient uniform 0;
  }
  Table_master
  {
    type zeroGradient;
  }
  Table_slave
  {
    type zeroGradient;
  }
  inlet
  {
    type fixedValue;
    value uniform 300.15;
  }
  outlet
  {
    type zeroGradient;
  }
} 	// ************************************************************************* //

