/*--------------------------------*- C++ -*----------------------------------*\
  =========                 |
  \\      /  F ield         | OpenFOAM: The Open Source CFD Toolbox
   \\    /   O peration     | Website:  https://openfoam.org
    \\  /    A nd           | Version:  6
     \\/     M anipulation  |
\*---------------------------------------------------------------------------*/
FoamFile
{
    version     2.0;
    format      ascii;
    class       volScalarField;
    location    "600";
    object      alphat;
}
// * * * * * * * * * * * * * * * * * * * * * * * * * * * * * * * * * * * * * //

dimensions      [1 -1 -1 0 0 0 0];

internalField   nonuniform List<scalar> 
459
(
0.00125284
0.00137008
0.00139569
0.00146283
0.001525
0.00158319
0.00164025
0.00169602
0.0017354
0.00175203
0.00174003
0.0016958
0.00161913
0.00151655
0.00140401
0.000550891
0.000674137
0.000757964
0.00075254
0.000726169
0.000691797
0.000649015
0.000606739
0.000568392
0.000534345
0.000504192
0.000477395
0.000453556
0.000432148
0.000412405
0.000393333
0.000373466
0.000359113
0.000326896
0.00170625
0.00417895
0.00400487
0.00466362
0.00531013
0.00595618
0.00652561
0.00695314
0.00733872
0.00765112
0.00784654
0.00787519
0.00766085
0.00701251
0.00524003
0.00143171
0.000845012
0.00059615
0.00125035
0.00172471
0.00206251
0.00224017
0.00223091
0.001796
0.00155057
0.00137476
0.00123962
0.00113202
0.00104436
0.000968703
0.000898025
0.000829335
0.000768208
0.000714962
0.000835127
0.000426602
0.00208273
0.00570656
0.00497292
0.0062456
0.00688029
0.00734954
0.00771216
0.00799917
0.00830948
0.00863293
0.00893107
0.00914898
0.00922545
0.00907121
0.00844846
0.00651713
0.00142316
0.00119037
0.00170742
0.00218398
0.00260589
0.00288917
0.00280637
0.000929323
0.000820598
0.000733283
0.000662845
0.000605469
0.000558233
0.000519039
0.000486551
0.00046021
0.000496117
0.000573992
0.000937964
0.000492926
0.00244345
0.00728938
0.00498703
0.00661644
0.00717994
0.00737008
0.00748968
0.00763269
0.00787715
0.00820755
0.00858334
0.0089359
0.0092013
0.00930904
0.00917558
0.00851141
0.00623984
0.0017042
0.00211229
0.00272391
0.00331
0.00376919
0.00404499
0.00378277
0.0010483
0.000954107
0.000886535
0.000834969
0.000791197
0.000751217
0.000712881
0.000672753
0.000626336
0.000587737
0.000601198
0.00106901
0.000544307
0.0028109
0.00932062
0.00547982
0.00636873
0.00711903
0.0071726
0.00710616
0.00717681
0.00739163
0.00772766
0.00814973
0.00856373
0.0088815
0.00903201
0.00898985
0.00870684
0.0079897
0.00660855
0.0061345
0.00597686
0.00592161
0.00588589
0.00581994
0.00559186
0.00471578
0.00429456
0.00404896
0.00385919
0.00366008
0.00337452
0.00299085
0.00252562
0.00200862
0.00148702
0.00109603
0.00109866
0.000729634
0.000670602
0.000812295
0.000911658
0.00320023
0.0115315
0.0075364
0.00633367
0.00689965
0.00715519
0.00699099
0.00705077
0.00721328
0.0075146
0.00794072
0.00839449
0.00874463
0.00888937
0.00880451
0.00854428
0.00819909
0.00784251
0.00764405
0.00749932
0.00733601
0.00714864
0.006936
0.00666647
0.00626725
0.00590897
0.00559102
0.00528713
0.00497936
0.00464635
0.00422994
0.00371368
0.00309694
0.00241418
0.00181011
0.00135418
0.00101895
0.000864902
0.00123285
0.000951132
0.00355394
0.0130743
0.0105484
0.00815504
0.00772092
0.00762566
0.00736649
0.00720257
0.00725392
0.00754884
0.00802199
0.00852864
0.00889784
0.00900989
0.00885184
0.00853588
0.00826236
0.00816872
0.00818407
0.00811751
0.0079117
0.00760336
0.00722817
0.00680749
0.0063636
0.00595193
0.00557572
0.00522657
0.00490482
0.00461778
0.00436519
0.00402069
0.00353929
0.00295241
0.00238803
0.00188248
0.00151058
0.00139468
0.00142111
0.00108279
0.00362005
0.011616
0.0103288
0.00954533
0.00884439
0.00803534
0.00740561
0.00715805
0.0073164
0.00779368
0.0084263
0.00900518
0.00933483
0.00932202
0.00901222
0.00859888
0.00834851
0.00834951
0.0083691
0.00812585
0.00768507
0.00713395
0.0065466
0.0059868
0.00549678
0.00508583
0.0047385
0.00444605
0.00421173
0.00404427
0.00395192
0.00390502
0.00366132
0.00328404
0.00295183
0.00278058
0.00288362
0.0033187
0.00407764
0.00169086
0.00352023
0.00417753
0.00464017
0.0047563
0.00485731
0.00513222
0.00568238
0.00651708
0.00753901
0.00857101
0.0094226
0.00991394
0.00992761
0.00952171
0.0089116
0.00848511
0.00825471
0.00806156
0.00772775
0.0071827
0.00650626
0.00580582
0.00517116
0.00464717
0.00423339
0.00390462
0.00363532
0.00341004
0.00321893
0.00305221
0.00289951
0.00275957
0.00264889
0.00256725
0.00253607
0.00254708
0.00253325
0.00243299
0.00227492
0.00159052
0.00175768
0.00360273
0.00584974
0.0077147
0.00916581
0.0102698
0.010963
0.0112328
0.0111204
0.0106133
0.00982388
0.00885177
0.0080292
0.00751998
0.00711201
0.00660885
0.00598803
0.00532105
0.00468679
0.00413966
0.00370738
0.00337424
0.00311444
0.00290801
0.00274363
0.00261575
0.00252176
0.00246044
0.00243379
0.0024388
0.00245955
0.00249151
0.00252579
0.00253468
0.00247343
0.00232737
0.00210755
0.00132353
0.00235014
0.006037
0.0089814
0.0101032
0.0106623
0.0108319
0.0105843
0.00999109
0.00917317
0.00824813
0.00737469
0.00660215
0.00598201
0.00545415
0.00492057
0.00439377
0.00392607
0.00354535
0.00325033
0.00302374
0.00283925
0.00268292
0.00254886
0.00244046
0.00236068
0.00230889
0.0022835
0.00228271
0.00231204
0.00236826
0.00244731
0.00254066
0.00262951
0.00269083
0.00267047
0.00270059
0.00274435
0.00134973
0.00208496
0.00220986
0.00229788
0.00246024
0.00237427
0.00227566
0.00221173
0.00212171
0.00199295
0.00183316
0.0016535
0.00146681
0.00128564
0.00113032
0.00101308
0.000929813
0.000870736
0.000828019
0.000796899
0.000774655
0.000759589
0.000750656
0.000747198
0.000749442
0.000757901
0.000772247
0.000792282
0.000818412
0.000851301
0.000891808
0.000938899
0.000992656
0.00105367
0.00112245
0.00119847
0.00128858
0.00131826
0.00128465
0.00120703
0.00112481
)
;

boundaryField
{
    floor
    {
        type            compressible::alphatWallFunction;
        Prt             0.85;
        value           nonuniform List<scalar> 
29
(
0.000198045
7.69967e-05
9.54048e-05
0.000107688
0.000106898
0.000103049
9.80072e-05
9.16887e-05
8.53948e-05
7.96391e-05
7.44885e-05
6.98927e-05
6.57794e-05
6.20958e-05
5.87668e-05
5.5678e-05
5.26761e-05
4.95291e-05
4.72421e-05
4.20646e-05
4.2064e-05
5.79012e-05
6.81671e-05
7.60002e-05
0.000198043
7.69958e-05
8.38096e-05
0.000168839
0.00023826
)
;
    }
    ceiling
    {
        type            compressible::alphatWallFunction;
        Prt             0.85;
        value           nonuniform List<scalar> 
43
(
0.000288067
0.00030421
0.00031553
0.000336412
0.000325489
0.000312873
0.000304661
0.000293045
0.000276328
0.000255414
0.000231656
0.000206661
0.000182062
0.000160656
0.000144276
0.000132508
0.000124084
0.000117951
0.00011346
0.000110236
0.000108047
0.000106746
0.000106242
0.000106569
0.000107801
0.000109887
0.000112792
0.000116568
0.0001213
0.000127099
0.000133801
0.000141403
0.000149974
0.000159568
0.000170092
0.000182471
0.000186526
0.000181934
0.000171274
0.000159899
0.000469063
0.000549011
0.000322059
)
;
    }
    sWall
    {
        type            compressible::alphatWallFunction;
        Prt             0.85;
        value           uniform 0.000286858;
    }
    nWall
    {
        type            compressible::alphatWallFunction;
        Prt             0.85;
        value           nonuniform List<scalar> 6(0.000129609 0.00013521 0.00015371 0.00018692 0.000190487 0.000159578);
    }
    sideWalls
    {
        type            empty;
    }
    glass1
    {
        type            compressible::alphatWallFunction;
        Prt             0.85;
        value           nonuniform List<scalar> 9(0.000173158 0.000233446 0.000282283 0.000328271 0.000374444 0.000422726 0.00046611 0.000474299 0.000462353);
    }
    glass2
    {
        type            compressible::alphatWallFunction;
        Prt             0.85;
        value           nonuniform List<scalar> 2(0.000234943 0.000221701);
    }
    sun
    {
        type            compressible::alphatWallFunction;
        Prt             0.85;
        value           nonuniform List<scalar> 
14
(
0.000177457
0.000193448
0.000196922
0.000206
0.000214363
0.000222157
0.000229768
0.00023718
0.000242396
0.000244595
0.000243008
0.000237147
0.000226951
0.000213224
)
;
    }
    heatsource1
    {
        type            compressible::alphatWallFunction;
        Prt             0.85;
        value           nonuniform List<scalar> 3(9.49861e-05 0.000115668 0.000129911);
    }
    heatsource2
    {
        type            compressible::alphatWallFunction;
        Prt             0.85;
        value           nonuniform List<scalar> 4(0.000201913 0.000120379 0.000120378 0.000200755);
    }
    Table_master
    {
        type            compressible::alphatWallFunction;
        Prt             0.85;
        value           nonuniform List<scalar> 9(0.00013242 0.000116863 0.000104192 9.38372e-05 8.53035e-05 7.82031e-05 7.22549e-05 6.72816e-05 6.32185e-05);
    }
    Table_slave
    {
        type            compressible::alphatWallFunction;
        Prt             0.85;
        value           nonuniform List<scalar> 9(0.000149204 0.000135939 0.000126328 0.000118936 0.000112618 0.000106811 0.000101208 9.53038e-05 8.84202e-05);
    }
    inlet
    {
        type            fixedValue;
        value           uniform 1.94e-05;
    }
    outlet
    {
        type            zeroGradient;
    }
}


// ************************************************************************* //
