/*--------------------------------*- C++ -*----------------------------------*\
  =========                 |
  \\      /  F ield         | OpenFOAM: The Open Source CFD Toolbox
   \\    /   O peration     | Website:  https://openfoam.org
    \\  /    A nd           | Version:  6
     \\/     M anipulation  |
\*---------------------------------------------------------------------------*/
FoamFile
{
    version     2.0;
    format      ascii;
    class       volScalarField;
    location    "600";
    object      epsilon;
}
// * * * * * * * * * * * * * * * * * * * * * * * * * * * * * * * * * * * * * //

dimensions      [0 2 -3 0 0 0 0];

internalField   nonuniform List<scalar> 
459
(
0.000445666
0.00058137
0.000614504
0.0007075
0.000801558
0.000896824
0.000997277
0.00110244
0.00118093
0.00121508
0.00119015
0.00110154
0.000958719
0.000787757
0.000625093
3.77937e-05
6.92431e-05
9.84109e-05
9.63158e-05
8.65441e-05
7.483e-05
6.17903e-05
5.04869e-05
4.15082e-05
3.44883e-05
2.89742e-05
2.45964e-05
2.10935e-05
1.82461e-05
1.58584e-05
1.37589e-05
1.17781e-05
1.04722e-05
7.90047e-06
0.00112778
0.00161861
0.000550762
0.000534612
0.000560632
0.0006024
0.0006632
0.000743745
0.000820587
0.000870178
0.000873123
0.000822698
0.000725398
0.000604526
0.000521563
0.000662739
0.000136258
4.78982e-05
0.000118024
0.000123112
0.000110855
9.36774e-05
7.79315e-05
6.95887e-05
5.63015e-05
4.46461e-05
3.54219e-05
2.83076e-05
2.28416e-05
1.8644e-05
1.54292e-05
1.307e-05
1.16456e-05
1.10267e-05
2.4915e-05
1.75573e-05
0.00205497
0.00395774
0.000687391
0.000512759
0.000537522
0.000603735
0.00070099
0.000822975
0.000936011
0.00100697
0.00101762
0.000967798
0.000867656
0.000739436
0.00062765
0.000567074
0.000650972
0.000381133
0.000267901
0.000200395
0.000153824
0.000120511
0.000100696
0.000181416
0.000124901
8.91234e-05
6.58285e-05
5.01713e-05
3.93213e-05
3.16071e-05
2.60359e-05
2.20323e-05
1.67114e-05
1.38865e-05
4.42029e-05
2.70853e-05
0.00332456
0.00820004
0.00110126
0.000526941
0.000531664
0.000626881
0.000778741
0.000965676
0.00111398
0.00119026
0.00119006
0.00112437
0.00100511
0.000853128
0.000714038
0.000613017
0.000584982
0.00111803
0.000618468
0.000370115
0.000247271
0.000177651
0.000134809
0.000114821
0.000260498
0.000196417
0.000157583
0.000131662
0.000112029
9.58939e-05
8.19526e-05
6.88798e-05
5.55841e-05
3.27049e-05
2.12187e-05
6.86625e-05
3.64709e-05
0.00507056
0.0145821
0.00219897
0.000650899
0.000564404
0.000691995
0.000965626
0.00124277
0.00139994
0.00144968
0.0014151
0.00131429
0.00115921
0.000970042
0.000777238
0.000607041
0.000478979
0.000417785
0.000335653
0.000262348
0.000204126
0.000159954
0.000127475
0.00010627
0.000102336
9.47867e-05
8.72586e-05
7.99305e-05
7.23938e-05
6.45861e-05
5.69306e-05
4.97322e-05
4.3139e-05
3.41896e-05
2.59315e-05
5.09447e-05
4.02323e-05
6.8255e-05
0.000121362
0.000171578
0.00749516
0.0216099
0.0049503
0.00131016
0.000900829
0.00104864
0.00154803
0.00179613
0.00186225
0.00182884
0.0017329
0.00157944
0.00136984
0.00112075
0.000864453
0.000636173
0.000463347
0.000354028
0.000282881
0.000227814
0.000182012
0.000145753
0.000118989
0.000101465
9.29591e-05
8.89667e-05
8.62784e-05
8.31603e-05
7.85878e-05
7.17359e-05
6.2664e-05
5.33058e-05
4.47583e-05
3.70962e-05
3.1955e-05
4.02224e-05
4.17187e-05
5.21164e-05
0.000223534
0.000194783
0.0102809
0.025804
0.0101236
0.00426014
0.00296599
0.00291516
0.00292633
0.00278311
0.00258586
0.00238506
0.00217688
0.00193399
0.00163878
0.00130496
0.000970675
0.000679554
0.000466396
0.000333594
0.000253967
0.000200059
0.000159204
0.000129175
0.000109119
9.7952e-05
9.41705e-05
9.47513e-05
9.68206e-05
9.89039e-05
9.99624e-05
9.84842e-05
9.14318e-05
8.08172e-05
7.02885e-05
6.12633e-05
5.75344e-05
6.35033e-05
8.00076e-05
0.000127067
0.000294813
0.000287347
0.010889
0.0279283
0.0156385
0.0107642
0.0081725
0.00635694
0.00501829
0.00411179
0.00351543
0.00309995
0.00274987
0.00237947
0.00195145
0.00149134
0.00105162
0.000682893
0.00043303
0.000289135
0.000208311
0.000162624
0.000132061
0.000112258
0.000101198
9.72169e-05
9.86882e-05
0.000103858
0.000111482
0.000121268
0.000133349
0.000147656
0.000163196
0.000172677
0.000181313
0.000199836
0.000238736
0.000355827
0.000652783
0.00123381
0.00365918
0.00109586
0.0100438
0.0167401
0.0133289
0.0101236
0.00782072
0.00628958
0.00530842
0.00469249
0.00427099
0.00389002
0.00344226
0.00287577
0.00220636
0.00154659
0.000977837
0.000531772
0.000315882
0.000213861
0.000160179
0.000128971
0.000109818
9.90259e-05
9.45884e-05
9.51049e-05
9.95703e-05
0.000107376
0.000118494
0.000133605
0.000154019
0.000181612
0.00021887
0.000269533
0.0003394
0.000445012
0.000601064
0.000814514
0.00106182
0.00128154
0.0014512
0.0009134
0.00364033
0.00560858
0.00654574
0.00667536
0.00651413
0.00614678
0.00553346
0.00469425
0.0037122
0.00263002
0.00153203
0.000873761
0.000493386
0.000286957
0.000189405
0.000141546
0.000115998
0.000101296
9.26885e-05
8.82703e-05
8.68005e-05
8.76128e-05
9.04748e-05
9.55723e-05
0.000103445
0.000115019
0.000131699
0.000155533
0.000189483
0.000237821
0.00030554
0.00039943
0.000523205
0.000666702
0.00079404
0.000855505
0.000818727
0.00052627
0.00275676
0.00637743
0.00710315
0.00593015
0.00530155
0.0045989
0.00367421
0.0027169
0.00188223
0.00123201
0.000736924
0.000436694
0.000273417
0.000191877
0.000154314
0.000137125
0.000129014
0.000124819
0.000122223
0.000120274
0.000118727
0.000117658
0.000117537
0.000119108
0.000123105
0.00013036
0.000142094
0.000160124
0.000187131
0.0002265
0.000282699
0.000360284
0.000459889
0.000573754
0.000659796
0.000752886
0.000757431
0.000558088
0.00197835
0.00235379
0.00264625
0.00330785
0.00299712
0.00264919
0.00243763
0.00215555
0.00178871
0.0013934
0.00102329
0.000714723
0.000481447
0.00032727
0.000235675
0.000182229
0.000149666
0.000128709
0.000114739
0.0001054
9.93712e-05
9.59085e-05
9.4591e-05
9.54479e-05
9.87185e-05
0.000104433
0.000112777
0.000124309
0.000139909
0.000160849
0.000187703
0.00022183
0.000265305
0.00032074
0.000390435
0.000485346
0.000519699
0.000480983
0.000398966
0.000322987
)
;

boundaryField
{
    floor
    {
        Cmu             0.09;
        kappa           0.41;
        E               9.8;
        type            epsilonWallFunction;
        value           nonuniform List<scalar> 
29
(
0.000625093
3.77937e-05
6.92431e-05
9.84109e-05
9.63158e-05
8.65441e-05
7.483e-05
6.17903e-05
5.04869e-05
4.15082e-05
3.44883e-05
2.89742e-05
2.45964e-05
2.10935e-05
1.82461e-05
1.58584e-05
1.37589e-05
1.17781e-05
1.04722e-05
7.90047e-06
7.90047e-06
1.75573e-05
2.70853e-05
3.64709e-05
0.000625093
3.77937e-05
4.78982e-05
0.000381133
0.00111803
)
;
    }
    ceiling
    {
        Cmu             0.09;
        kappa           0.41;
        E               9.8;
        type            epsilonWallFunction;
        value           nonuniform List<scalar> 
43
(
0.00197835
0.00235379
0.00264625
0.00330785
0.00299712
0.00264919
0.00243763
0.00215555
0.00178871
0.0013934
0.00102329
0.000714723
0.000481447
0.00032727
0.000235675
0.000182229
0.000149666
0.000128709
0.000114739
0.0001054
9.93712e-05
9.59085e-05
9.4591e-05
9.54479e-05
9.87185e-05
0.000104433
0.000112777
0.000124309
0.000139909
0.000160849
0.000187703
0.00022183
0.000265305
0.00032074
0.000390435
0.000485346
0.000519699
0.000480983
0.000398966
0.000322987
0.0100438
0.0167401
0.00275676
)
;
    }
    sWall
    {
        Cmu             0.09;
        kappa           0.41;
        E               9.8;
        type            epsilonWallFunction;
        value           uniform 0.00197835;
    }
    nWall
    {
        Cmu             0.09;
        kappa           0.41;
        E               9.8;
        type            epsilonWallFunction;
        value           nonuniform List<scalar> 6(0.000171578 0.000194783 0.000287347 0.00052627 0.000558088 0.000322987);
    }
    sideWalls
    {
        type            empty;
    }
    glass1
    {
        Cmu             0.09;
        kappa           0.41;
        E               9.8;
        type            epsilonWallFunction;
        value           nonuniform List<scalar> 9(0.000445666 0.00112778 0.00205497 0.00332456 0.00507056 0.00749516 0.0102809 0.010889 0.0100438);
    }
    glass2
    {
        Cmu             0.09;
        kappa           0.41;
        E               9.8;
        type            epsilonWallFunction;
        value           nonuniform List<scalar> 2(0.00109586 0.0009134);
    }
    sun
    {
        Cmu             0.09;
        kappa           0.41;
        E               9.8;
        type            epsilonWallFunction;
        value           nonuniform List<scalar> 
14
(
0.000445666
0.00058137
0.000614504
0.0007075
0.000801558
0.000896824
0.000997277
0.00110244
0.00118093
0.00121508
0.00119015
0.00110154
0.000958719
0.000787757
)
;
    }
    heatsource1
    {
        Cmu             0.09;
        kappa           0.41;
        E               9.8;
        type            epsilonWallFunction;
        value           nonuniform List<scalar> 3(6.8255e-05 0.000121362 0.000171578);
    }
    heatsource2
    {
        Cmu             0.09;
        kappa           0.41;
        E               9.8;
        type            epsilonWallFunction;
        value           nonuniform List<scalar> 4(0.000662739 0.000136258 0.000136258 0.000650972);
    }
    Table_master
    {
        Cmu             0.09;
        kappa           0.41;
        E               9.8;
        type            epsilonWallFunction;
        value           nonuniform List<scalar> 9(0.000181416 0.000124901 8.91234e-05 6.58285e-05 5.01713e-05 3.93213e-05 3.16071e-05 2.60359e-05 2.20323e-05);
    }
    Table_slave
    {
        Cmu             0.09;
        kappa           0.41;
        E               9.8;
        type            epsilonWallFunction;
        value           nonuniform List<scalar> 9(0.000260498 0.000196417 0.000157583 0.000131662 0.000112029 9.58939e-05 8.19526e-05 6.88798e-05 5.55841e-05);
    }
    inlet
    {
        type            turbulentMixingLengthDissipationRateInlet;
        mixingLength    0.01;
        phi             phi;
        k               k;
        value           uniform 0.000101881;
    }
    outlet
    {
        type            zeroGradient;
    }
}


// ************************************************************************* //
