// -*- C++ -*-
// File generated by PyFoam - sorry for the ugliness

FoamFile
{
 version 2.0;
 format ascii;
 class volScalarField;
 location "90";
 object T;
}

dimensions [ 0 0 0 1 0 0 0 ];

internalField nonuniform List<scalar> 459
(
  303.263
  303.171
  303.145
  303.314
  303.43
  303.502
  303.546
  303.572
  303.593
  303.612
  303.629
  303.645
  303.658
  303.67
  303.677
  304.784
  304.681
  304.612
  304.634
  304.677
  304.718
  304.753
  304.785
  304.815
  304.844
  304.872
  304.898
  304.923
  304.948
  304.971
  304.994
  305.02
  305.052
  305.105
  303.294
  303.162
  303.123
  303.413
  303.666
  303.813
  303.889
  303.924
  303.94
  303.942
  303.933
  303.912
  303.878
  303.83
  303.77
  303.784
  303.808
  304.804
  304.562
  304.527
  304.573
  304.644
  304.709
  304.752
  304.793
  304.832
  304.87
  304.906
  304.94
  304.973
  305.002
  305.027
  305.049
  305.068
  305.09
  305.137
  303.319
  303.129
  303.069
  303.517
  303.959
  304.19
  304.287
  304.311
  304.299
  304.263
  304.212
  304.15
  304.077
  303.995
  303.906
  303.868
  303.852
  304.573
  304.388
  304.432
  304.54
  304.657
  304.752
  304.781
  304.818
  304.858
  304.899
  304.941
  304.982
  305.021
  305.054
  305.081
  305.103
  305.116
  305.126
  305.163
  303.331
  303.085
  303.001
  303.607
  304.293
  304.602
  304.696
  304.685
  304.621
  304.535
  304.444
  304.35
  304.252
  304.149
  304.043
  303.969
  303.917
  303.94
  304.039
  304.196
  304.397
  304.599
  304.774
  304.907
  305.011
  305.093
  305.169
  305.24
  305.31
  305.377
  305.443
  305.507
  305.559
  305.369
  305.254
  305.196
  305.197
  303.325
  303.039
  302.925
  303.64
  304.605
  304.961
  305.025
  304.967
  304.859
  304.747
  304.637
  304.529
  304.421
  304.312
  304.204
  304.124
  304.078
  304.127
  304.269
  304.467
  304.685
  304.891
  305.066
  305.204
  305.321
  305.413
  305.488
  305.548
  305.598
  305.639
  305.671
  305.694
  305.692
  305.55
  305.386
  305.282
  305.243
  305.276
  305.396
  305.982
  303.308
  303.009
  302.827
  303.599
  304.8
  305.198
  305.247
  305.172
  305.062
  304.95
  304.84
  304.733
  304.629
  304.53
  304.442
  304.388
  304.389
  304.497
  304.684
  304.895
  305.102
  305.286
  305.436
  305.55
  305.64
  305.71
  305.758
  305.795
  305.821
  305.839
  305.845
  305.838
  305.803
  305.673
  305.507
  305.392
  305.321
  305.339
  305.464
  306.054
  303.327
  303.046
  302.67
  303.465
  304.894
  305.36
  305.431
  305.371
  305.278
  305.185
  305.095
  305.008
  304.924
  304.851
  304.803
  304.799
  304.861
  305.01
  305.194
  305.381
  305.553
  305.698
  305.808
  305.887
  305.944
  305.973
  305.991
  306.001
  306.004
  305.998
  305.981
  305.947
  305.886
  305.77
  305.622
  305.497
  305.402
  305.414
  305.556
  306.226
  303.39
  303.261
  302.504
  303.259
  304.957
  305.513
  305.624
  305.599
  305.54
  305.476
  305.416
  305.361
  305.314
  305.282
  305.277
  305.318
  305.413
  305.558
  305.706
  305.849
  305.976
  306.073
  306.139
  306.176
  306.188
  306.187
  306.18
  306.169
  306.151
  306.124
  306.086
  306.032
  305.956
  305.849
  305.724
  305.607
  305.492
  305.508
  305.649
  306.12
  303.48
  303.417
  302.273
  303.146
  305.036
  305.698
  305.844
  305.859
  305.842
  305.816
  305.791
  305.771
  305.761
  305.767
  305.796
  305.855
  305.945
  306.052
  306.155
  306.246
  306.32
  306.369
  306.391
  306.392
  306.379
  306.36
  306.336
  306.308
  306.274
  306.232
  306.18
  306.116
  306.039
  305.946
  305.845
  305.743
  305.643
  305.653
  305.783
  306.101
  301.326
  303.316
  305.527
  305.977
  306.097
  306.13
  306.14
  306.146
  306.153
  306.163
  306.18
  306.208
  306.249
  306.304
  306.37
  306.437
  306.496
  306.54
  306.566
  306.574
  306.568
  306.55
  306.526
  306.496
  306.463
  306.427
  306.385
  306.339
  306.288
  306.232
  306.171
  306.106
  306.037
  305.967
  305.904
  305.897
  305.973
  306.171
  305.483
  305.757
  306.103
  306.256
  306.32
  306.355
  306.381
  306.404
  306.428
  306.455
  306.484
  306.518
  306.555
  306.594
  306.633
  306.667
  306.691
  306.704
  306.704
  306.695
  306.677
  306.653
  306.624
  306.593
  306.559
  306.523
  306.484
  306.444
  306.403
  306.362
  306.321
  306.28
  306.239
  306.197
  306.161
  306.153
  306.21
  306.289
  306.302
  306.294
  306.287
  306.359
  306.443
  306.494
  306.533
  306.568
  306.6
  306.631
  306.66
  306.688
  306.715
  306.739
  306.761
  306.779
  306.792
  306.8
  306.8
  306.794
  306.781
  306.764
  306.742
  306.718
  306.692
  306.664
  306.636
  306.607
  306.578
  306.55
  306.523
  306.499
  306.477
  306.458
  306.442
  306.426
  306.414
  306.418
  306.455
  306.483
)
;

boundaryField
{
  floor
  {
    type wallHeatTransfer;
    Tinf uniform 300.35;
    alphaWall uniform 0.24;
    value nonuniform List<scalar> 29
(
  303.31
  304.168
  304.163
  304.149
  304.187
  304.225
  304.252
  304.262
  304.267
  304.27
  304.273
  304.276
  304.279
  304.281
  304.284
  304.285
  304.285
  304.284
  304.274
  304.27
  304.27
  304.341
  304.386
  304.445
  303.31
  304.168
  304.238
  304.05
  303.533
)
;
  }
  ceiling
  {
    type wallHeatTransfer;
    Tinf uniform 300.35;
    alphaWall uniform 0.24;
    value nonuniform List<scalar> 43
(
  305.815
  305.837
  305.872
  305.962
  306.039
  306.085
  306.12
  306.152
  306.182
  306.212
  306.24
  306.267
  306.293
  306.317
  306.338
  306.356
  306.367
  306.372
  306.369
  306.359
  306.344
  306.324
  306.3
  306.275
  306.248
  306.22
  306.192
  306.164
  306.137
  306.111
  306.086
  306.062
  306.039
  306.017
  305.995
  305.974
  305.961
  305.964
  305.985
  305.937
  303.28
  303.212
  305.201
)
;
  }
  sWall
  {
    type wallHeatTransfer;
    Tinf uniform 306.167;
    alphaWall uniform 0.36;
    value uniform 306.286;
  }
  nWall
  {
    type wallHeatTransfer;
    Tinf uniform 305.15;
    alphaWall uniform 0.36;
    value nonuniform List<scalar> 6
(
  305.793
  305.859
  306.012
  306.047
  306.146
  306.313
)
;
  }
  sideWalls
  {
    type empty;
  }
  glass1
  {
    type wallHeatTransfer;
    Tinf uniform 306.167;
    alphaWall uniform 4.3;
    value nonuniform List<scalar> 9
(
  305.121
  305.016
  304.952
  304.898
  304.846
  304.808
  304.82
  304.877
  304.962
)
;
  }
  glass2
  {
    type wallHeatTransfer;
    Tinf uniform 305.15;
    alphaWall uniform 4.3;
    value nonuniform List<scalar> 2
(
  305.462
  305.503
)
;
  }
  sun
  {
    type wallHeatTransfer;
    Tinf uniform 300.35;
    alphaWall uniform 0.24;
    value nonuniform List<scalar> 14
(
  303.002
  302.963
  302.956
  303.104
  303.202
  303.259
  303.29
  303.305
  303.315
  303.323
  303.329
  303.333
  303.333
  303.326
)
;
  }
  heatsource1
  {
    type fixedGradient;
    gradient uniform 0;
  }
  heatsource2
  {
    type fixedGradient;
    gradient uniform 0;
  }
  Table_master
  {
    type zeroGradient;
  }
  Table_slave
  {
    type zeroGradient;
  }
  inlet
  {
    type fixedValue;
    value uniform 300.15;
  }
  outlet
  {
    type zeroGradient;
  }
} 	// ************************************************************************* //

