// -*- C++ -*-
// File generated by PyFoam - sorry for the ugliness

FoamFile
{
 version 2.0;
 format ascii;
 class volVectorField;
 location "660";
 object U;
}

dimensions [ 0 1 -1 0 0 0 0 ];

internalField nonuniform List<vector> 459
(
  (0.00309127 0.0443637 0)
  (-0.0874439 0.0162605 0)
  (-0.106937 0.0100535 0)
  (-0.12481 0.00526971 0)
  (-0.135889 0.000245527 0)
  (-0.138994 -0.00518856 0)
  (-0.132498 -0.0112493 0)
  (-0.116228 -0.0179067 0)
  (-0.0910725 -0.0240698 0)
  (-0.0603248 -0.0283752 0)
  (-0.0288928 -0.0292332 0)
  (0.00404884 -0.0220957 0)
  (0.0219466 -0.0108709 0)
  (0.0268805 0.00105971 0)
  (0.0434315 0.0188896 0)
  (-0.0780437 0.00692159 0)
  (0.0227865 -0.0053777 0)
  (0.0137048 -0.00991293 0)
  (0.0258683 -0.011351 0)
  (0.0396375 -0.0102382 0)
  (0.0512647 -0.00782124 0)
  (0.058904 -0.00449529 0)
  (0.06264 -0.00258588 0)
  (0.0638424 -0.00190258 0)
  (0.0640582 -0.00167046 0)
  (0.0639886 -0.00151654 0)
  (0.0636796 -0.00133287 0)
  (0.0629771 -0.00103343 0)
  (0.0615558 -0.000413941 0)
  (0.0586758 0.000997376 0)
  (0.0528346 0.00399386 0)
  (0.0424623 0.00848454 0)
  (0.0128474 0.0162049 0)
  (0.0546315 0.00472951 0)
  (0.0789181 0.0907384 0)
  (-0.0799245 0.0425291 0)
  (-0.0885438 0.0320151 0)
  (-0.106751 0.0227159 0)
  (-0.11808 0.0121751 0)
  (-0.12194 -5.04929e-05 0)
  (-0.116599 -0.0142474 0)
  (-0.1023 -0.0289737 0)
  (-0.0802596 -0.0413664 0)
  (-0.0538234 -0.0484453 0)
  (-0.0273054 -0.0478846 0)
  (-0.00292295 -0.0370704 0)
  (0.0155443 -0.0193844 0)
  (0.0271686 -0.00162124 0)
  (0.0394718 0.0178115 0)
  (0.0391704 0.0210408 0)
  (0.0269724 0.0246949 0)
  (-0.0881879 0.00231808 0)
  (0.0235242 -0.021233 0)
  (0.0259683 -0.0225921 0)
  (0.0362999 -0.0217469 0)
  (0.0469632 -0.0185845 0)
  (0.0555484 -0.013671 0)
  (0.0601599 -0.005448 0)
  (0.0611249 -0.000545876 0)
  (0.0609369 0.00135617 0)
  (0.0609569 0.00211035 0)
  (0.0611836 0.00259366 0)
  (0.0613416 0.00302203 0)
  (0.0613559 0.00362018 0)
  (0.0611846 0.00481812 0)
  (0.0603108 0.00761414 0)
  (0.0563721 0.0148362 0)
  (0.0477685 0.0226122 0)
  (0.0170126 0.032029 0)
  (0.0910583 0.0223305 0)
  (0.150561 0.136365 0)
  (-0.083282 0.0661231 0)
  (-0.0690885 0.050974 0)
  (-0.0865175 0.0353805 0)
  (-0.0974771 0.0181135 0)
  (-0.102019 -0.00170296 0)
  (-0.0972715 -0.0242028 0)
  (-0.0840538 -0.0470489 0)
  (-0.0643225 -0.0650405 0)
  (-0.0416692 -0.0737312 0)
  (-0.0198844 -0.070808 0)
  (-0.000311653 -0.0554859 0)
  (0.0152902 -0.033838 0)
  (0.0266664 -0.0119926 0)
  (0.0351558 0.00924847 0)
  (0.0367624 0.0237656 0)
  (0.0312086 0.0461607 0)
  (-0.0268902 -0.0204409 0)
  (0.0316354 -0.0329417 0)
  (0.0418527 -0.0346195 0)
  (0.0472858 -0.0314008 0)
  (0.0530541 -0.0266729 0)
  (0.058396 -0.0223818 0)
  (0.0612013 -0.0163957 0)
  (0.0567992 -0.0107969 0)
  (0.0531543 -0.0079536 0)
  (0.0519958 -0.00645763 0)
  (0.0520058 -0.00552067 0)
  (0.0523906 -0.00479352 0)
  (0.0531484 -0.00403715 0)
  (0.0549184 -0.00280152 0)
  (0.0592093 0.00107644 0)
  (0.0598059 0.0190475 0)
  (0.0533171 0.0329405 0)
  (0.0203358 0.0476396 0)
  (0.112468 0.0482272 0)
  (0.218991 0.173631 0)
  (-0.0951012 0.0858369 0)
  (-0.0476742 0.0676696 0)
  (-0.0634952 0.0474393 0)
  (-0.0727437 0.0252345 0)
  (-0.0771613 -0.00129673 0)
  (-0.0717173 -0.0324415 0)
  (-0.0588529 -0.0633025 0)
  (-0.0417736 -0.0859706 0)
  (-0.023691 -0.0954685 0)
  (-0.00727852 -0.0903224 0)
  (0.00750113 -0.0714882 0)
  (0.0195843 -0.0471855 0)
  (0.0298496 -0.0220515 0)
  (0.0391903 0.00184344 0)
  (0.0488005 0.0218915 0)
  (0.0611162 0.0420737 0)
  (0.0829313 -0.00482374 0)
  (0.0784119 -0.0195039 0)
  (0.0693012 -0.0305474 0)
  (0.06122 -0.0341161 0)
  (0.0562816 -0.0320273 0)
  (0.0536524 -0.0276101 0)
  (0.0513689 -0.0218763 0)
  (0.0526791 -0.0135862 0)
  (0.0602909 -0.00965371 0)
  (0.0667342 -0.00758483 0)
  (0.0711905 -0.00635269 0)
  (0.0745691 -0.0053385 0)
  (0.0769744 -0.00417365 0)
  (0.0775755 -0.00250667 0)
  (0.0747289 0.000167933 0)
  (0.0663847 0.00438868 0)
  (0.0580384 0.0238723 0)
  (0.0564398 0.0409211 0)
  (0.0283689 0.0601652 0)
  (0.127151 0.0859448 0)
  (0.283436 0.202269 0)
  (-0.113269 0.100228 0)
  (-0.0247604 0.0781836 0)
  (-0.037606 0.0554172 0)
  (-0.0433503 0.0304248 0)
  (-0.0461418 -0.00122305 0)
  (-0.0370898 -0.0404281 0)
  (-0.0247807 -0.077501 0)
  (-0.011939 -0.102346 0)
  (-0.000122108 -0.110953 0)
  (0.00961753 -0.103083 0)
  (0.0178212 -0.0831182 0)
  (0.0252529 -0.0572066 0)
  (0.0321294 -0.0308443 0)
  (0.0395443 -0.00739212 0)
  (0.048849 0.010815 0)
  (0.0612745 0.0189283 0)
  (0.0712094 0.000370053 0)
  (0.0700343 -0.0140695 0)
  (0.0626339 -0.0231389 0)
  (0.0550291 -0.026858 0)
  (0.048793 -0.0265059 0)
  (0.0441166 -0.0236239 0)
  (0.0410049 -0.018671 0)
  (0.0411649 -0.0110987 0)
  (0.0445454 -0.00704869 0)
  (0.0483119 -0.00555262 0)
  (0.0517869 -0.00483837 0)
  (0.0551268 -0.00387546 0)
  (0.0581762 -0.00197149 0)
  (0.0606048 0.00154851 0)
  (0.061393 0.0069808 0)
  (0.0600643 0.0148449 0)
  (0.0583619 0.028331 0)
  (0.0625484 0.0429953 0)
  (0.0547347 0.0582212 0)
  (0.105258 0.0857963 0)
  (0.10075 0.0671795 0)
  (0.102408 0.047208 0)
  (-0.172924 0.0439947 0)
  (0.336873 0.225244 0)
  (-0.135149 0.108008 0)
  (-0.00435473 0.0783369 0)
  (-0.0101799 0.0585513 0)
  (-0.0107801 0.0349151 0)
  (-0.0075946 0.00132119 0)
  (0.00743629 -0.0502827 0)
  (0.017162 -0.0892398 0)
  (0.0236743 -0.112284 0)
  (0.0272983 -0.118329 0)
  (0.028812 -0.108936 0)
  (0.0293539 -0.0880061 0)
  (0.0297981 -0.0615464 0)
  (0.0308107 -0.0353426 0)
  (0.0333521 -0.0134576 0)
  (0.0387328 0.00162193 0)
  (0.046376 0.00696999 0)
  (0.0509755 -0.000871155 0)
  (0.0496713 -0.0106443 0)
  (0.0443071 -0.0173325 0)
  (0.0378763 -0.0205739 0)
  (0.0318506 -0.0210098 0)
  (0.0269151 -0.0194275 0)
  (0.0236389 -0.0163016 0)
  (0.0229073 -0.0122509 0)
  (0.0246104 -0.0100866 0)
  (0.0274092 -0.00943178 0)
  (0.03064 -0.00909027 0)
  (0.0341378 -0.00823524 0)
  (0.0378142 -0.00619199 0)
  (0.0415712 -0.00211638 0)
  (0.0456233 0.00466208 0)
  (0.0487052 0.0138453 0)
  (0.051913 0.025527 0)
  (0.0585823 0.0374545 0)
  (0.0604472 0.0455329 0)
  (0.0799768 0.0585296 0)
  (0.0781908 0.0455729 0)
  (0.102923 0.043563 0)
  (-0.150374 0.0692081 0)
  (0.373102 0.244327 0)
  (-0.150814 0.0983972 0)
  (0.0133528 0.0556508 0)
  (0.0219981 0.0499198 0)
  (0.0273337 0.0297566 0)
  (0.0427915 -0.0125922 0)
  (0.0576562 -0.0603211 0)
  (0.0637774 -0.0953734 0)
  (0.0627729 -0.114209 0)
  (0.0568614 -0.116944 0)
  (0.0482802 -0.105677 0)
  (0.0389794 -0.0841651 0)
  (0.0304976 -0.0581143 0)
  (0.0240479 -0.0333229 0)
  (0.0206807 -0.0139763 0)
  (0.0209425 -0.00183838 0)
  (0.024214 0.00252931 0)
  (0.0259308 -0.00112983 0)
  (0.0246018 -0.00727791 0)
  (0.0204811 -0.0121688 0)
  (0.0150915 -0.0149423 0)
  (0.00965303 -0.0158588 0)
  (0.00500753 -0.0154617 0)
  (0.00186574 -0.0142542 0)
  (0.000854775 -0.0128506 0)
  (0.00179305 -0.0123686 0)
  (0.0038017 -0.0125324 0)
  (0.00632914 -0.012631 0)
  (0.00921352 -0.0121156 0)
  (0.0125271 -0.0104786 0)
  (0.0165216 -0.00698187 0)
  (0.0221759 -0.000542087 0)
  (0.0291547 0.00874488 0)
  (0.0361175 0.0191475 0)
  (0.0446981 0.0290103 0)
  (0.0512893 0.0357196 0)
  (0.0634779 0.0452286 0)
  (0.068379 0.0478244 0)
  (0.113782 0.0629832 0)
  (-0.107094 0.120631 0)
  (0.439006 0.24594 0)
  (-0.0506166 0.0731796 0)
  (0.0524225 0.00237298 0)
  (0.0828101 -0.00625931 0)
  (0.0879368 -0.0250686 0)
  (0.108746 -0.0509553 0)
  (0.11897 -0.0765417 0)
  (0.116052 -0.0963078 0)
  (0.103008 -0.105773 0)
  (0.0837873 -0.103483 0)
  (0.0623395 -0.090539 0)
  (0.0414835 -0.0695175 0)
  (0.0233659 -0.04552 0)
  (0.00969594 -0.024131 0)
  (0.00163072 -0.0091374 0)
  (-0.00127282 -0.000891152 0)
  (-0.000792734 0.00158075 0)
  (-0.000543039 -0.000573758 0)
  (-0.00212655 -0.00442511 0)
  (-0.00572291 -0.00775451 0)
  (-0.0103396 -0.0099561 0)
  (-0.0149989 -0.0112123 0)
  (-0.0189837 -0.0119356 0)
  (-0.0217758 -0.0124592 0)
  (-0.0231314 -0.0130353 0)
  (-0.0232973 -0.0138701 0)
  (-0.0227793 -0.0147533 0)
  (-0.0219256 -0.0153443 0)
  (-0.0208882 -0.0153621 0)
  (-0.0196405 -0.0146005 0)
  (-0.0178806 -0.0128333 0)
  (-0.0147382 -0.00953688 0)
  (-0.00747187 -0.00378194 0)
  (0.00350537 0.00416018 0)
  (0.013495 0.0105429 0)
  (0.0220853 0.0135347 0)
  (0.0331038 0.0161889 0)
  (0.0421325 0.0148606 0)
  (0.114542 0.0611444 0)
  (-0.319701 0.18225 0)
  (0.524094 0.249144 0)
  (0.252287 0.176201 0)
  (0.260234 0.138923 0)
  (0.262157 0.0912044 0)
  (0.250948 0.0475782 0)
  (0.229286 0.00272461 0)
  (0.202155 -0.0362438 0)
  (0.170106 -0.0623275 0)
  (0.133637 -0.0736999 0)
  (0.0955964 -0.0722922 0)
  (0.0597698 -0.0612946 0)
  (0.0281402 -0.0434013 0)
  (0.00299555 -0.023933 0)
  (-0.0138009 -0.0089819 0)
  (-0.0219741 -0.00123532 0)
  (-0.0255917 0.00227489 0)
  (-0.0263148 0.00288949 0)
  (-0.0270463 0.00159291 0)
  (-0.0286671 -0.000508247 0)
  (-0.031623 -0.00253244 0)
  (-0.0352322 -0.0042647 0)
  (-0.0389258 -0.00572253 0)
  (-0.0423629 -0.00708824 0)
  (-0.0453164 -0.00845191 0)
  (-0.0477365 -0.00983614 0)
  (-0.0497563 -0.0112185 0)
  (-0.0515819 -0.0124454 0)
  (-0.0534136 -0.0133221 0)
  (-0.0555399 -0.0136694 0)
  (-0.0584598 -0.0132815 0)
  (-0.0628066 -0.0117384 0)
  (-0.0690024 -0.00802579 0)
  (-0.0772307 -0.000651403 0)
  (-0.0860762 0.0101767 0)
  (-0.098244 0.0242256 0)
  (-0.118982 0.0427803 0)
  (-0.147774 0.06713 0)
  (-0.183408 0.0953071 0)
  (-0.240294 0.122693 0)
  (-0.48107 0.142511 0)
  (0.23224 -0.00233922 0)
  (0.226991 0.023208 0)
  (0.213457 0.00976303 0)
  (0.193813 -0.0108139 0)
  (0.168117 -0.0269188 0)
  (0.134353 -0.0367012 0)
  (0.0951872 -0.0394079 0)
  (0.055295 -0.0356229 0)
  (0.0190353 -0.026295 0)
  (-0.0132038 -0.0112968 0)
  (-0.0316662 -0.000513734 0)
  (-0.0420162 0.00517912 0)
  (-0.0467191 0.00766129 0)
  (-0.0484229 0.00853496 0)
  (-0.0490554 0.00855061 0)
  (-0.0497713 0.00799701 0)
  (-0.0509956 0.00711558 0)
  (-0.0527757 0.00600279 0)
  (-0.0551046 0.00459335 0)
  (-0.0578754 0.00331851 0)
  (-0.0610832 0.00216066 0)
  (-0.0646893 0.00125244 0)
  (-0.0686961 0.000754154 0)
  (-0.073101 0.000851884 0)
  (-0.0778386 0.00180929 0)
  (-0.0827579 0.00391666 0)
  (-0.0877038 0.00736042 0)
  (-0.0927167 0.0119846 0)
  (-0.0980775 0.0168431 0)
  (-0.103913 0.020491 0)
  (-0.109079 0.0243662 0)
  (-0.113228 0.0309013 0)
  (-0.116571 0.0415269 0)
  (-0.119066 0.0565879 0)
  (-0.118291 0.0738296 0)
  (-0.10907 0.0802016 0)
  (-0.0964107 0.0390193 0)
  (-0.18995 -0.147214 0)
  (0.0640641 0.123441 0)
  (0.0194813 0.0626453 0)
  (0.0216172 0.0166269 0)
  (0.020788 -0.0161404 0)
  (0.0183579 -0.0331694 0)
  (0.00944159 -0.0393869 0)
  (-0.00852133 -0.0408509 0)
  (-0.0270534 -0.041571 0)
  (-0.0434749 -0.0423586 0)
  (-0.0548178 -0.0441326 0)
  (-0.0604999 -0.0469151 0)
  (-0.062987 -0.0490103 0)
  (-0.0638412 -0.0508615 0)
  (-0.0638305 -0.0524612 0)
  (-0.0635247 -0.0540954 0)
  (-0.0633115 -0.0560873 0)
  (-0.0634423 -0.0583837 0)
  (-0.0640461 -0.0606238 0)
  (-0.0651898 -0.0623871 0)
  (-0.0669038 -0.0635444 0)
  (-0.0691354 -0.0649398 0)
  (-0.0719892 -0.0668435 0)
  (-0.0756198 -0.0694802 0)
  (-0.080185 -0.0729938 0)
  (-0.085777 -0.0772866 0)
  (-0.0922696 -0.0818112 0)
  (-0.0991229 -0.0853476 0)
  (-0.105362 -0.0858717 0)
  (-0.10999 -0.0822897 0)
  (-0.112438 -0.0732407 0)
  (-0.112279 -0.0591997 0)
  (-0.108284 -0.0407855 0)
  (-0.0987553 -0.0186962 0)
  (-0.0821698 0.00565954 0)
  (-0.0585243 0.0282565 0)
  (-0.0310201 0.03764 0)
  (0.087567 -0.0403887 0)
  (-0.149882 -0.0946273 0)
  (-0.173006 -0.238411 0)
  (-0.281936 -0.0431703 0)
  (-0.211359 0.139746 0)
  (-0.173624 0.121955 0)
  (-0.123643 0.121673 0)
  (-0.100324 0.132294 0)
  (-0.0923514 0.142999 0)
  (-0.0916888 0.148352 0)
  (-0.0932376 0.151739 0)
  (-0.0939009 0.156511 0)
  (-0.0926929 0.163351 0)
  (-0.0899516 0.17157 0)
  (-0.0865659 0.178731 0)
  (-0.0833372 0.183481 0)
  (-0.0805985 0.18672 0)
  (-0.0784288 0.189108 0)
  (-0.0767894 0.191227 0)
  (-0.0756948 0.19345 0)
  (-0.0752213 0.195744 0)
  (-0.0754261 0.197747 0)
  (-0.0762832 0.198928 0)
  (-0.0777008 0.198971 0)
  (-0.0796445 0.199301 0)
  (-0.0820232 0.200423 0)
  (-0.0846949 0.202855 0)
  (-0.0874849 0.206996 0)
  (-0.0901982 0.212892 0)
  (-0.09263 0.219928 0)
  (-0.0945637 0.22653 0)
  (-0.0957406 0.230045 0)
  (-0.0957724 0.229661 0)
  (-0.0938688 0.224879 0)
  (-0.0887078 0.217013 0)
  (-0.0785767 0.207872 0)
  (-0.062049 0.199639 0)
  (-0.0393826 0.194813 0)
  (-0.0104579 0.194805 0)
  (0.0222606 0.19839 0)
  (0.123557 0.227616 0)
  (-0.26383 0.216331 0)
)
;

boundaryField
{
  floor
  {
    type noSlip;
  }
  ceiling
  {
    type noSlip;
  }
  sWall
  {
    type noSlip;
  }
  nWall
  {
    type noSlip;
  }
  sideWalls
  {
    type empty;
  }
  glass1
  {
    type noSlip;
  }
  glass2
  {
    type noSlip;
  }
  sun
  {
    type noSlip;
  }
  heatsource1
  {
    type noSlip;
  }
  heatsource2
  {
    type noSlip;
  }
  Table_master
  {
    type noSlip;
  }
  Table_slave
  {
    type noSlip;
  }
  inlet
  {
    type fixedValue;
    value uniform (0.277164 -0.114805 0);
  }
  outlet
  {
    type zeroGradient;
  }
} 	// ************************************************************************* //

