/*--------------------------------*- C++ -*----------------------------------*\
  =========                 |
  \\      /  F ield         | OpenFOAM: The Open Source CFD Toolbox
   \\    /   O peration     | Website:  https://openfoam.org
    \\  /    A nd           | Version:  6
     \\/     M anipulation  |
\*---------------------------------------------------------------------------*/
FoamFile
{
    version     2.0;
    format      ascii;
    class       surfaceScalarField;
    location    "1400";
    object      phi;
}
// * * * * * * * * * * * * * * * * * * * * * * * * * * * * * * * * * * * * * //

dimensions      [1 0 -1 0 0 0 0];

internalField   nonuniform List<scalar> 
852
(
-0.00258637
0.00264474
-0.00310558
0.000519233
-0.00365277
0.000547211
-0.00416799
0.000515235
-0.00461218
0.000444219
-0.00496815
0.000355989
-0.00521995
0.000251814
-0.00534835
0.000128425
-0.00533038
-1.79507e-05
-0.00513672
-0.000193634
-0.0047424
-0.000394302
-0.00413365
-0.00060873
-0.00328031
-0.000853313
-0.00203048
-0.00124981
-0.00202922
-0.000156023
0.000158525
0.000121127
-0.000277123
0.000458408
-0.000337255
0.000777214
-0.000318779
0.00110378
-0.000326536
0.00139426
-0.000290458
0.00152995
-0.000135665
0.00156005
-3.00774e-05
0.00155549
4.58963e-06
0.00153785
1.7672e-05
0.00151105
2.68166e-05
0.00147775
3.3336e-05
0.00143789
3.98835e-05
0.0013849
5.30117e-05
0.00129994
8.49863e-05
0.00115215
0.000147816
0.000932926
0.000219255
0.000672307
0.000260647
0.000675545
-0.00187876
0.00467881
-0.00259593
0.00123642
-0.00324833
0.00119963
-0.00378792
0.00105485
-0.0042412
0.000897518
-0.00460785
0.000722659
-0.00487695
0.000520938
-0.00503155
0.000283043
-0.00505101
1.52989e-06
-0.00491991
-0.000324706
-0.00462677
-0.000687424
-0.00416593
-0.00106956
-0.00354414
-0.00147508
-0.00288196
-0.00191197
-0.00274129
-0.00216987
-0.00096811
-0.00177321
-0.000968139
0.00065009
-0.000485977
0.000602477
-0.000229484
0.000575161
-0.000309913
0.000735541
-0.000479134
0.000986309
-0.000577279
0.00123819
-0.000542309
0.00129169
-0.000189146
0.00129292
-3.12759e-05
0.00129232
5.21262e-06
0.00129012
1.98967e-05
0.00128593
3.1035e-05
0.00128107
3.82256e-05
0.00127576
4.52167e-05
0.00126754
6.12586e-05
0.0012318
0.000120753
0.00108995
0.000289694
0.000844451
0.000464785
0.000547397
0.000557728
0.00123142
-0.00137485
0.00628777
-0.00212269
0.00198428
-0.00273707
0.00181404
-0.00321975
0.00153755
-0.00363211
0.0013099
-0.0039767
0.00106728
-0.00424209
0.000786346
-0.00441077
0.000451741
-0.00446291
5.36882e-05
-0.00438022
-0.000407372
-0.00415727
-0.000910353
-0.00380896
-0.00141784
-0.00338529
-0.00189873
-0.00299138
-0.00230586
-0.00263922
-0.00252201
-0.00184127
-0.00257113
-0.00280939
-0.000219324
-0.000259042
-6.52459e-05
-0.000383537
0.000182158
-0.000557293
0.000424164
-0.000721115
0.000667367
-0.000820456
0.00106945
-0.000944367
0.000880483
0.000849386
0.000854779
0.000874855
0.000906071
0.000944477
0.000989874
0.00105131
0.00117225
0.000990723
0.000471245
0.00074721
0.000708326
0.000432031
0.000872935
0.00167635
-0.00101987
0.00760604
-0.00173054
0.00269497
-0.00216117
0.00224469
-0.00252166
0.00189807
-0.00284858
0.00163683
-0.0031372
0.00135592
-0.00337445
0.00102362
-0.00354178
0.000619087
-0.00361461
0.000126546
-0.00356665
-0.000455313
-0.00339956
-0.00107742
-0.00315329
-0.00166409
-0.00289596
-0.00215604
-0.00269563
-0.00250616
-0.00254196
-0.00267566
-0.00244275
-0.00267032
-0.0030003
-0.00225183
-0.00167306
-0.00132035
-0.00097778
-0.000954298
-0.000487513
-0.00087378
-0.000115661
-0.000929121
0.000137433
-0.000974183
0.000272369
-0.000955367
0.000174945
-0.000846916
0.000631873
-0.000457055
0.000973705
-0.000341959
0.00127739
-0.000303808
0.00154948
-0.000272217
0.00177417
-0.000224817
0.00191986
-0.000145817
0.0019412
-2.14592e-05
0.00179742
0.000143649
0.00143978
0.000357513
0.00120746
0.0007036
0.000845141
0.00107067
0.000343624
0.00137448
0.0020366
-0.000756827
0.00871427
-0.00139859
0.00333676
-0.00153749
0.00238361
-0.00173339
0.00209399
-0.00194303
0.00184649
-0.00214015
0.00155307
-0.00230942
0.0011929
-0.00243616
0.000745853
-0.00249632
0.000186726
-0.0024498
-0.00050181
-0.00230607
-0.00122113
-0.00212249
-0.00184766
-0.00195732
-0.00232119
-0.00184318
-0.00262028
-0.00177867
-0.00274015
-0.00178453
-0.00266444
-0.00174259
-0.00229376
-0.00130281
-0.00176011
-0.000849437
-0.00140765
-0.000467358
-0.00125584
-0.000187076
-0.00120938
-6.00755e-06
-0.00115523
9.58676e-05
-0.00105722
0.00016991
-0.000920933
0.000426135
-0.000713253
0.000689643
-0.00060544
0.000938898
-0.000553036
0.00117458
-0.000507874
0.00138701
-0.000437219
0.0015528
-0.000311579
0.00163356
-0.000102191
0.0015963
0.000180932
0.00145421
0.00049963
0.00128202
0.000875819
0.00106597
0.00128675
0.000668902
0.00177158
0.000483424
0.00222211
-0.000965194
0.00144844
-0.00141289
0.000447519
-0.00136782
-0.000681779
0.00979173
-0.00121755
0.00387255
-0.000915129
0.00208121
-0.000852756
0.00203164
-0.000941198
0.00193496
-0.00104209
0.00165399
-0.0011134
0.00126423
-0.00115334
0.000785817
-0.00114716
0.000180569
-0.00105953
-0.000589428
-0.00092767
-0.00135297
-0.000809797
-0.00196551
-0.000741966
-0.00238901
-0.000734244
-0.00262798
-0.000779245
-0.00269514
-0.000852389
-0.00259128
-0.000841164
-0.00230497
-0.000682154
-0.00191911
-0.000471486
-0.0016183
-0.000286054
-0.00144125
-0.00015677
-0.00133864
-8.67141e-05
-0.00122526
-4.86292e-05
-0.00109527
1.80481e-06
-0.00097134
0.000137219
-0.00084864
0.000308661
-0.000776855
0.000491253
-0.000735601
0.000679585
-0.000696178
0.000870583
-0.000628189
0.00105569
-0.000496659
0.0012115
-0.000257974
0.00129326
9.92034e-05
0.00130635
0.000486565
0.00130827
0.000873926
0.00135612
0.00123892
0.00147875
0.00164898
0.00184757
0.00185332
0.00207682
0.00121922
0.00169887
0.00082549
0.00038541
-0.000879909
0.011106
-0.00093515
0.00392781
-2.85661e-05
0.00117464
0.000331219
0.00167188
0.000305516
0.00196068
0.000248661
0.00171086
0.000261434
0.00125148
0.000326064
0.000721208
0.000456407
5.02475e-05
0.000609557
-0.000742558
0.000704407
-0.0014478
0.00071631
-0.00197739
0.000647076
-0.00231975
0.000511731
-0.00249262
0.000332451
-0.00251584
0.000144573
-0.00240339
9.55372e-06
-0.00216994
-4.17514e-05
-0.00186779
-5.53159e-05
-0.00160472
-7.04657e-05
-0.00142608
-0.000105478
-0.00130361
-0.00016129
-0.00116942
-0.000215328
-0.00104121
-0.000242541
-0.000944101
-0.000215279
-0.000875875
-0.000151708
-0.0008404
-6.49107e-05
-0.000822371
4.12975e-05
-0.00080236
0.000169788
-0.000756653
0.000329353
-0.000656196
0.000529361
-0.000457955
0.000736596
-0.000108005
0.000922208
0.000300981
0.00111129
0.000684875
0.00138242
0.000967815
0.00179303
0.00123839
0.00240025
0.00124612
0.00290211
0.00071739
0.00292279
0.000804833
0.00336804
0.00212548
0.00946441
0.00261987
0.00343344
0.00283497
0.000959569
0.00272607
0.00178079
0.00247405
0.00221273
0.00232773
0.0018572
0.00230256
0.00127667
0.00238278
0.000641005
0.00253613
-0.000103084
0.00261569
-0.00082209
0.00255722
-0.00138931
0.00237092
-0.00179108
0.00209406
-0.00204288
0.00176369
-0.00216223
0.0014114
-0.00216354
0.00106692
-0.0020589
0.000761699
-0.0018647
0.000514072
-0.00162015
0.000302808
-0.00139345
0.000107264
-0.00123053
-8.24767e-05
-0.00111385
-0.000262188
-0.000989682
-0.000415872
-0.000887498
-0.000534457
-0.000825488
-0.000613878
-0.000796426
-0.000665286
-0.000788965
-0.000698727
-0.000788903
-0.000718644
-0.000782416
-0.0007204
-0.000754869
-0.000687392
-0.000689178
-0.000581636
-0.000563683
-0.000333676
-0.000355938
-7.62538e-06
-2.50423e-05
0.000333342
0.000343935
0.000710838
0.000590347
0.00116644
0.000782822
0.00163924
0.000773342
0.00184652
0.000510142
0.00110492
0.00154646
0.00471
0.00998979
0.0134121
0.0121228
0.00224891
0.00998728
0.00391635
0.00842131
0.00377872
0.00734003
0.0029385
0.00658919
0.00202753
0.00607958
0.00115064
0.00561004
0.000366475
0.005081
-0.000293034
0.00451364
-0.000821937
0.00393224
-0.00120966
0.003353
-0.00146363
0.0027889
-0.00159812
0.00225111
-0.00162573
0.00174916
-0.00155694
0.00129247
-0.00140801
0.00088796
-0.00121563
0.000526636
-0.00103211
0.000192187
-0.000896062
-0.000121302
-0.000800337
-0.000399547
-0.000711411
-0.000636983
-0.000650035
-0.000841673
-0.00062077
-0.00102215
-0.000615926
-0.00118951
-0.000621569
-0.00135467
-0.000623721
-0.00152803
-0.00060903
-0.00171947
-0.0005634
-0.00193782
-0.0004708
-0.00218912
-0.000312354
-0.00247363
-7.14022e-05
-0.00276024
0.00026159
-0.00310557
0.000689296
-0.00369385
0.00117865
-0.0046042
0.0016932
-0.00594072
0.00210989
-0.00757408
0.00214353
-0.00712107
0.00109348
-0.00214854
0.00321537
0.00341183
0.00413486
0.00299686
0.00542362
0.00248996
0.00584409
0.00251805
0.00586741
0.00200422
0.00576717
0.00125089
0.0055742
0.000559462
0.00526068
2.04941e-05
0.00482077
-0.000382006
0.00428958
-0.000678465
0.00370883
-0.000882863
0.00311326
-0.00100254
0.00252866
-0.00104113
0.0019695
-0.000997773
0.00144211
-0.000880604
0.000959397
-0.000732902
0.000530339
-0.000603043
0.00013774
-0.000503447
-0.000221738
-0.000440836
-0.000533476
-0.000399645
-0.00081028
-0.000373202
-0.0010682
-0.000362819
-0.0013178
-0.000366296
-0.00156487
-0.000374471
-0.00181131
-0.000377262
-0.00205599
-0.00036432
-0.00229495
-0.000324417
-0.00252018
-0.000245543
-0.00271921
-0.000113299
-0.00288259
9.2007e-05
-0.00300032
0.000379352
-0.00308001
0.000769007
-0.00313335
0.00123202
-0.00313157
0.00169144
-0.00303245
0.00201079
-0.00264689
0.00175799
-0.00140119
-0.000152188
-0.0034811
-0.000292269
0.00374421
0.00137631
0.00132828
0.00234976
0.00151651
0.00316612
0.0017017
0.0038025
0.00136784
0.00420261
0.000850789
0.00434732
0.000414763
0.00427844
8.93847e-05
0.00403299
-0.000136546
0.00365101
-0.000296477
0.00317685
-0.000408688
0.00265341
-0.00047909
0.00211954
-0.000507255
0.00160407
-0.000482289
0.00111201
-0.000388539
0.000646747
-0.000267624
0.000262013
-0.000218295
-4.04653e-05
-0.000200949
-0.000305183
-0.000176092
-0.000557628
-0.000147172
-0.000802881
-0.000127921
-0.00104846
-0.00011721
-0.00130107
-0.000113655
-0.00156109
-0.00011443
-0.00182197
-0.000116348
-0.00207114
-0.000115124
-0.00229083
-0.000104706
-0.00245883
-7.75152e-05
-0.00254626
-2.58386e-05
-0.00252841
7.41775e-05
-0.00239687
0.00024784
-0.00212526
0.000497431
-0.00169619
0.000802976
-0.00108611
0.00108139
-0.000136807
0.00106151
0.00113594
0.000485266
0.00158715
-0.000603369
-0.00181903
-0.00589327
-0.00803282
-0.00426068
-0.00292343
-0.00140305
0.000299133
0.00166476
0.00251216
0.00292273
0.00300728
0.00286532
0.00256284
0.00214751
0.00166109
0.00114571
0.000654419
0.000256098
-2.15441e-05
-0.000249506
-0.000460115
-0.000646171
-0.000803735
-0.000942473
-0.00107091
-0.00119618
-0.00132259
-0.00145123
-0.00157885
-0.00169614
-0.00178616
-0.0018243
-0.00176206
-0.00152573
-0.00103937
-0.000247056
0.000824062
0.00187535
0.00235015
0.00173587
)
;

boundaryField
{
    floor
    {
        type            calculated;
        value           nonuniform List<scalar> 
29
(
0
0
0
0
0
0
0
0
0
0
0
0
0
0
0
0
0
0
0
0
-3.21069e-06
-8.45241e-06
-1.28653e-05
-1.66057e-05
-1.24317e-06
-2.47543e-06
-5.56186e-06
-7.5856e-06
-6.86003e-06
)
;
    }
    ceiling
    {
        type            calculated;
        value           nonuniform List<scalar> 
43
(
-3.0631e-05
-2.93971e-05
-2.79328e-05
-8.95784e-06
-3.86121e-06
-4.81568e-07
2.2253e-06
3.40244e-06
4.20867e-06
4.83921e-06
5.4247e-06
6.01795e-06
6.64936e-06
7.34739e-06
8.1382e-06
9.01275e-06
9.79543e-06
1.00319e-05
9.686e-06
9.68552e-06
9.99324e-06
1.04208e-05
1.0846e-05
1.12528e-05
1.16441e-05
1.20093e-05
1.23168e-05
1.25256e-05
1.26035e-05
1.25372e-05
1.23264e-05
1.19656e-05
1.15337e-05
1.10977e-05
1.06889e-05
1.02998e-05
1.02523e-05
1.0496e-05
1.09323e-05
1.22273e-05
1.48018e-05
1.1103e-05
-4.01217e-05
)
;
    }
    sWall
    {
        type            calculated;
        value           uniform -0.000242994;
    }
    nWall
    {
        type            calculated;
        value           nonuniform List<scalar> 6(-4.52414e-05 -5.43315e-05 -5.98094e-05 -6.8607e-05 -7.48944e-05 -9.53612e-05);
    }
    sideWalls
    {
        type            empty;
        value           nonuniform 0();
    }
    glass1
    {
        type            calculated;
        value           nonuniform List<scalar> 9(-5.8342e-05 -0.000155293 -0.0002341 -0.000298383 -0.000351384 -0.000395665 -0.000434375 -0.000483835 -0.000540166);
    }
    glass2
    {
        type            calculated;
        value           nonuniform List<scalar> 2(-0.000237015 -0.000262504);
    }
    sun
    {
        type            calculated;
        value           uniform 0;
    }
    heatsource1
    {
        type            calculated;
        value           nonuniform List<scalar> 3(2.0367e-07 2.03623e-07 2.03633e-07);
    }
    heatsource2
    {
        type            calculated;
        value           nonuniform List<scalar> 4(5.07098e-08 5.09296e-08 0 0);
    }
    Table_master
    {
        type            calculated;
        value           nonuniform List<scalar> 9(-1.52827e-07 -1.52939e-07 -1.52965e-07 -1.52974e-07 -1.52977e-07 -1.52977e-07 -1.52973e-07 -1.52962e-07 -1.52929e-07);
    }
    Table_slave
    {
        type            calculated;
        value           nonuniform List<scalar> 9(1.52953e-07 1.52872e-07 1.52773e-07 1.52684e-07 1.52612e-07 1.52568e-07 1.52567e-07 1.52577e-07 1.52637e-07);
    }
    inlet
    {
        type            calculated;
        value           uniform -0.0043783;
    }
    outlet
    {
        type            calculated;
        value           nonuniform List<scalar> 2(0.0061669 0.00216895);
    }
}


// ************************************************************************* //
