/*--------------------------------*- C++ -*----------------------------------*\
  =========                 |
  \\      /  F ield         | OpenFOAM: The Open Source CFD Toolbox
   \\    /   O peration     | Website:  https://openfoam.org
    \\  /    A nd           | Version:  6
     \\/     M anipulation  |
\*---------------------------------------------------------------------------*/
FoamFile
{
    version     2.0;
    format      ascii;
    class       volScalarField;
    location    "900";
    object      alphat;
}
// * * * * * * * * * * * * * * * * * * * * * * * * * * * * * * * * * * * * * //

dimensions      [1 -1 -1 0 0 0 0];

internalField   nonuniform List<scalar> 
459
(
0.00125414
0.00137169
0.00139754
0.00146485
0.00152719
0.00158557
0.00164285
0.00169869
0.00173802
0.00175448
0.00174219
0.00169757
0.00162043
0.00151719
0.00140373
0.000551775
0.000675167
0.000759549
0.000754554
0.000728337
0.000693995
0.000651082
0.000608632
0.000570122
0.000535931
0.000505653
0.000478747
0.000454808
0.000433313
0.00041349
0.000394342
0.000374396
0.000359832
0.000327412
0.00170734
0.00418513
0.00401226
0.00467243
0.0053209
0.00596858
0.00653859
0.00696736
0.00735378
0.00766656
0.00786204
0.0078909
0.00767746
0.00703141
0.00526131
0.00143242
0.000842152
0.000596566
0.0012546
0.00173234
0.00207303
0.00225259
0.00224327
0.00180359
0.00155625
0.00137925
0.0012433
0.00113511
0.00104701
0.000971102
0.000900154
0.000831134
0.000769671
0.000716212
0.000835193
0.000426515
0.00208358
0.00571477
0.00498371
0.00625556
0.00689096
0.00736103
0.00772438
0.00801297
0.0083249
0.00864978
0.0089489
0.00916771
0.00924512
0.00909089
0.00846457
0.00652598
0.00142609
0.00119033
0.00171081
0.0021919
0.00261836
0.00290491
0.00282155
0.000932244
0.000822986
0.000735245
0.000664469
0.000606825
0.000559375
0.00052001
0.000487388
0.000460952
0.000496951
0.000575016
0.00093781
0.000492457
0.002444
0.00729714
0.00499907
0.00662625
0.00718831
0.00737851
0.00749935
0.00764457
0.00789128
0.00822397
0.00860109
0.00895486
0.00922137
0.00932883
0.0091947
0.00852604
0.00623017
0.0017062
0.00211528
0.0027304
0.00332185
0.00378631
0.00406548
0.00380144
0.00105167
0.000956892
0.000888843
0.000836877
0.000792772
0.000752574
0.000714035
0.000673714
0.000627104
0.000588354
0.000601812
0.00106797
0.000543617
0.00281116
0.00932744
0.00549226
0.00638053
0.00712718
0.0071801
0.00711461
0.00718861
0.00740534
0.0077442
0.0081675
0.00858247
0.00890063
0.00905145
0.00900981
0.00872713
0.00800797
0.00662811
0.00615676
0.00600266
0.00595069
0.00591693
0.00585098
0.00562013
0.00473614
0.00431045
0.00406201
0.00387026
0.00366953
0.00338194
0.0029968
0.0025303
0.00201196
0.00148888
0.00109705
0.00109908
0.000728551
0.000669656
0.000811433
0.000910736
0.00320022
0.0115377
0.00754969
0.00634993
0.00691396
0.00716826
0.00700295
0.00706361
0.00722715
0.00753065
0.00795905
0.00841408
0.00876437
0.00890892
0.0088247
0.00856695
0.0082261
0.0078752
0.00768189
0.00754063
0.00737874
0.00719077
0.00697594
0.00670304
0.00629928
0.00593711
0.00561602
0.00530935
0.00499872
0.00466211
0.00424227
0.00372301
0.00310363
0.00241851
0.00181271
0.00135655
0.00101892
0.000864183
0.00123155
0.00095011
0.00355354
0.0130791
0.0105606
0.00817467
0.00774392
0.00764208
0.00737785
0.00721334
0.0072671
0.00756575
0.00804223
0.00855046
0.00891962
0.00903118
0.00887395
0.00856215
0.00829678
0.00821257
0.00823407
0.00816957
0.00796322
0.007653
0.00727541
0.00685183
0.00640414
0.00598821
0.0056076
0.00525396
0.00492769
0.00463629
0.00437961
0.00403145
0.00354743
0.00295842
0.00239234
0.00188572
0.00151201
0.0013949
0.00142039
0.0010816
0.00361949
0.0116153
0.0103315
0.00955199
0.00884454
0.00803205
0.00740589
0.00716491
0.00733059
0.00781438
0.0084512
0.00903106
0.00935976
0.00934614
0.00903808
0.00863188
0.00839333
0.00840418
0.00842665
0.00818327
0.00774152
0.00718873
0.00659851
0.00603414
0.00553814
0.00512072
0.004767
0.00446852
0.00422879
0.00405676
0.0039608
0.00391112
0.0036657
0.00328709
0.00295373
0.0027809
0.00288131
0.00331316
0.0040701
0.00168893
0.00351965
0.00417646
0.00463779
0.00475096
0.00485414
0.00513528
0.00569396
0.00653776
0.0075673
0.00860405
0.00945614
0.00994378
0.00995357
0.00954719
0.00894276
0.00853277
0.00831019
0.0081198
0.007786
0.00724045
0.00656302
0.00585967
0.00521963
0.00468843
0.00426684
0.00393062
0.00365464
0.00342367
0.00322795
0.00305767
0.00290233
0.00276066
0.00264878
0.00256618
0.00253422
0.00254472
0.0025308
0.0024309
0.00227317
0.00158921
0.00175194
0.00359637
0.00586977
0.00775054
0.00920974
0.0103154
0.0110058
0.0112702
0.0111489
0.0106345
0.00984602
0.00888169
0.0080711
0.00757162
0.00716506
0.00666015
0.00603804
0.00537039
0.0047345
0.00418312
0.0037451
0.00340564
0.00313944
0.00292684
0.00275689
0.00262432
0.00252664
0.00246262
0.0024342
0.00243789
0.00245773
0.0024891
0.00252301
0.00253182
0.00247082
0.00232521
0.00210601
0.00132317
0.00234658
0.00604516
0.00899195
0.0101266
0.0106881
0.0108551
0.0106033
0.0100071
0.00918814
0.00826657
0.00740089
0.00663585
0.00602053
0.00549365
0.00496011
0.00443434
0.00396764
0.00358681
0.00329035
0.00306171
0.00287454
0.00271495
0.00257707
0.00246341
0.00237847
0.00232187
0.0022922
0.00228821
0.0023148
0.0023688
0.00244613
0.00253821
0.00262621
0.00268687
0.0026663
0.00269639
0.00274359
0.0013496
0.00208309
0.00220795
0.00229585
0.00245886
0.00237388
0.0022773
0.00221441
0.0021247
0.00199593
0.00183611
0.00165656
0.00147012
0.00128967
0.00113549
0.0010193
0.000936722
0.000878002
0.000835374
0.000804118
0.000781538
0.00076596
0.000756381
0.000752149
0.000753523
0.000761057
0.000774699
0.000794113
0.000819715
0.000852172
0.000892237
0.000938938
0.000992353
0.00105306
0.00112156
0.0011973
0.00128697
0.00131669
0.00128314
0.00120573
0.00112386
)
;

boundaryField
{
    floor
    {
        type            compressible::alphatWallFunction;
        Prt             0.85;
        value           nonuniform List<scalar> 
29
(
0.000198007
7.71309e-05
9.55572e-05
0.000107919
0.000107192
0.000103367
9.8331e-05
9.19955e-05
8.56781e-05
7.99001e-05
7.47297e-05
7.01166e-05
6.59881e-05
6.22902e-05
5.89488e-05
5.58486e-05
5.28359e-05
4.96773e-05
4.73575e-05
4.21484e-05
4.21478e-05
5.78879e-05
6.80957e-05
7.58961e-05
0.000198005
7.713e-05
8.38723e-05
0.000168833
0.000238526
)
;
    }
    ceiling
    {
        type            compressible::alphatWallFunction;
        Prt             0.85;
        value           nonuniform List<scalar> 
43
(
0.000287825
0.000303964
0.00031527
0.000336237
0.00032544
0.000313084
0.000305006
0.000293431
0.000276717
0.000255802
0.000232063
0.000207108
0.000182613
0.000161375
0.00014515
0.00013349
0.000125125
0.00011901
0.000114504
0.000111235
0.000108974
0.00010758
0.000106964
0.000107164
0.000108261
0.000110244
0.000113058
0.000116756
0.000121426
0.00012716
0.000133807
0.000141361
0.000149889
0.000159445
0.000169932
0.000182251
0.000186312
0.000181728
0.000171097
0.000159768
0.000468992
0.000548882
0.000321602
)
;
    }
    sWall
    {
        type            compressible::alphatWallFunction;
        Prt             0.85;
        value           uniform 0.000286617;
    }
    nWall
    {
        type            compressible::alphatWallFunction;
        Prt             0.85;
        value           nonuniform List<scalar> 6(0.000129479 0.000135066 0.000153544 0.000186872 0.00019047 0.000159447);
    }
    sideWalls
    {
        type            empty;
    }
    glass1
    {
        type            compressible::alphatWallFunction;
        Prt             0.85;
        value           nonuniform List<scalar> 9(0.000173336 0.000233591 0.000282394 0.000328343 0.000374479 0.000422728 0.000466065 0.000474235 0.000462285);
    }
    glass2
    {
        type            compressible::alphatWallFunction;
        Prt             0.85;
        value           nonuniform List<scalar> 2(0.000234692 0.00022153);
    }
    sun
    {
        type            compressible::alphatWallFunction;
        Prt             0.85;
        value           nonuniform List<scalar> 
14
(
0.000177636
0.000193666
0.000197173
0.000206272
0.000214657
0.000222475
0.000230114
0.000237534
0.000242743
0.000244919
0.000243293
0.000237383
0.000227124
0.00021331
)
;
    }
    heatsource1
    {
        type            compressible::alphatWallFunction;
        Prt             0.85;
        value           nonuniform List<scalar> 3(9.48463e-05 0.000115544 0.00012978);
    }
    heatsource2
    {
        type            compressible::alphatWallFunction;
        Prt             0.85;
        value           nonuniform List<scalar> 4(0.00020201 0.000119968 0.000119967 0.000201151);
    }
    Table_master
    {
        type            compressible::alphatWallFunction;
        Prt             0.85;
        value           nonuniform List<scalar> 9(0.000132835 0.000117207 0.000104479 9.40774e-05 8.55062e-05 7.83755e-05 7.24028e-05 6.74102e-05 6.33334e-05);
    }
    Table_slave
    {
        type            compressible::alphatWallFunction;
        Prt             0.85;
        value           nonuniform List<scalar> 9(0.000149676 0.000136333 0.000126657 0.00011921 0.000112846 0.000107009 0.000101377 9.54457e-05 8.85347e-05);
    }
    inlet
    {
        type            fixedValue;
        value           uniform 1.94e-05;
    }
    outlet
    {
        type            zeroGradient;
    }
}


// ************************************************************************* //
