/*--------------------------------*- C++ -*----------------------------------*\
  =========                 |
  \\      /  F ield         | OpenFOAM: The Open Source CFD Toolbox
   \\    /   O peration     | Website:  https://openfoam.org
    \\  /    A nd           | Version:  6
     \\/     M anipulation  |
\*---------------------------------------------------------------------------*/
FoamFile
{
    version     2.0;
    format      ascii;
    class       volScalarField;
    location    "100";
    object      nut;
}
// * * * * * * * * * * * * * * * * * * * * * * * * * * * * * * * * * * * * * //

dimensions      [0 2 -1 0 0 0 0];

internalField   nonuniform List<scalar> 
459
(
0.000808966
0.000859004
0.000823156
0.000837195
0.000851524
0.000866068
0.000882398
0.000895908
0.000907368
0.000917313
0.000925121
0.000929072
0.000926443
0.000913174
0.000881678
0.000258559
0.000289619
0.000315439
0.000332894
0.00034658
0.000357958
0.000368081
0.000377539
0.000387185
0.000398449
0.000412038
0.000427773
0.000445046
0.000470809
0.000506542
0.000533195
0.000507291
0.00045987
0.000413152
0.00124438
0.00316358
0.00314398
0.00370934
0.00409066
0.00435833
0.00449943
0.00457242
0.0045907
0.00456633
0.00449003
0.00432394
0.00399298
0.00336751
0.00229025
0.000938491
0.000632094
0.0002948
0.000512046
0.000567208
0.000611785
0.000647303
0.000673879
0.000686018
0.000669989
0.000675986
0.000712098
0.000786205
0.000907686
0.00108171
0.00126654
0.00150035
0.00188505
0.00180747
0.00169316
0.000559087
0.00157252
0.00449996
0.00408389
0.00480287
0.00537386
0.00595068
0.00643085
0.00667933
0.00671616
0.00661752
0.00642884
0.00613418
0.0056649
0.00490438
0.00373697
0.00225629
0.000952963
0.000482874
0.00117367
0.00106962
0.000968564
0.000855894
0.000662367
0.000334586
0.000350225
0.000388214
0.000435445
0.000487863
0.000543689
0.000604722
0.00067744
0.00077684
0.00242995
0.00245099
0.00224696
0.000701737
0.00165073
0.00461415
0.00453533
0.00549829
0.00605775
0.00621233
0.00683818
0.00751132
0.00784727
0.00787727
0.00775857
0.00754435
0.00719703
0.00661124
0.00563212
0.00412527
0.00224986
0.000943339
0.00221156
0.00264294
0.00244132
0.00215877
0.00178705
0.00130938
0.000877563
0.000872868
0.000869428
0.000866026
0.000863565
0.00086356
0.000868807
0.000885264
0.000926325
0.00300756
0.0028837
0.00215548
0.000798306
0.00226936
0.00309211
0.00344019
0.00414299
0.00501616
0.00564807
0.00646786
0.00737567
0.0082211
0.00858635
0.00868795
0.0086947
0.00865208
0.00853529
0.00829116
0.00787425
0.00728652
0.00659185
0.00607133
0.00579896
0.00572844
0.00571079
0.00560984
0.00545426
0.00527374
0.00517649
0.00507199
0.00495427
0.00482361
0.00468213
0.00453481
0.00439198
0.00427446
0.00425371
0.00365783
0.00274496
0.0017192
0.000871094
0.00084463
0.00079192
0.00341926
0.00313521
0.00306659
0.00341063
0.00420705
0.00505911
0.00567355
0.00644018
0.00770088
0.00855093
0.00896189
0.00919304
0.00937902
0.00954333
0.00965004
0.00963682
0.00944164
0.00905103
0.00857966
0.00819425
0.00795835
0.00782018
0.00771669
0.00761145
0.00748293
0.00733113
0.00715582
0.00695939
0.006743
0.00650689
0.00625037
0.00597165
0.005666
0.0053174
0.00487403
0.00436556
0.00382064
0.00328528
0.00283097
0.000988872
0.00402066
0.00400437
0.00339328
0.00321152
0.00378648
0.00462232
0.00519377
0.00561732
0.0064211
0.00763739
0.00843282
0.00888954
0.00925502
0.00961204
0.00994771
0.0101934
0.0102614
0.0101068
0.00979152
0.0094475
0.00916693
0.00895639
0.0087897
0.00863509
0.00846639
0.00827254
0.0080538
0.00781202
0.00754835
0.00726342
0.00695765
0.00663204
0.00628937
0.0059336
0.00556644
0.00519063
0.00479901
0.00439175
0.00415225
0.00116335
0.00469193
0.00537866
0.00535388
0.00353265
0.00369977
0.00452831
0.00501082
0.00523345
0.00559625
0.00629799
0.00714428
0.00777224
0.00827935
0.00878059
0.00929443
0.00976384
0.0100931
0.0102008
0.0101085
0.00990416
0.00967381
0.00945647
0.00925824
0.00906773
0.00886902
0.00865218
0.00841456
0.00815584
0.00787631
0.00757681
0.00725918
0.00692695
0.00658559
0.00624087
0.00589637
0.00555629
0.00523446
0.00495813
0.00488685
0.00133104
0.0056616
0.00730418
0.0132649
0.00518957
0.0037783
0.0048652
0.00517984
0.00519888
0.00528085
0.0055587
0.00601144
0.00646743
0.00694169
0.00746657
0.00804144
0.00862173
0.00912557
0.0094704
0.00963103
0.00964076
0.00955528
0.00941871
0.00925678
0.00907957
0.00888786
0.00868008
0.00845546
0.00821361
0.00795434
0.00767797
0.00738594
0.00708134
0.0067687
0.00645207
0.00613242
0.00580812
0.00548352
0.00519084
0.00492811
0.00138056
0.0215916
0.0127229
0.00427299
0.00499044
0.00531676
0.00526888
0.00527824
0.00542379
0.00566388
0.00595362
0.00632317
0.00676592
0.00725693
0.00776129
0.00823553
0.00863189
0.0089151
0.00907634
0.00913095
0.00910435
0.00902133
0.00890085
0.00875494
0.00859043
0.008411
0.00821839
0.00801322
0.00779555
0.00756561
0.00732425
0.00707307
0.0068136
0.00654517
0.00626122
0.0059416
0.00553243
0.00478627
0.00149076
0.00800507
0.0108317
0.00704852
0.00523191
0.00456181
0.00437357
0.00445156
0.0047303
0.00515347
0.00569599
0.00630499
0.00691767
0.00747789
0.0079495
0.00831795
0.00858313
0.00875296
0.00884046
0.00886186
0.00883412
0.00877263
0.0086896
0.00859354
0.00848954
0.00838007
0.00826562
0.00814545
0.00801822
0.00788243
0.00773676
0.00757984
0.00740935
0.00722049
0.00700433
0.00674299
0.00637825
0.0055986
0.00187765
0.00141011
0.00167526
0.00462017
0.00418634
0.0036298
0.0031502
0.00278349
0.00250776
0.00229851
0.0021391
0.00202161
0.00194182
0.00189687
0.00188213
0.00188995
0.00191084
0.0019359
0.00195854
0.00197492
0.00198359
0.00198482
0.00197976
0.00196994
0.00195684
0.00194169
0.00192545
0.00190876
0.001892
0.00187532
0.00185872
0.00184213
0.00182539
0.00180838
0.00179084
0.00177227
0.00175162
0.00172718
0.00169488
0.00163145
0.001427
)
;

boundaryField
{
    floor
    {
        type            nutkWallFunction;
        Cmu             0.09;
        kappa           0.41;
        E               9.8;
        value           nonuniform List<scalar> 
29
(
0.000106711
2.76225e-05
3.19198e-05
3.54464e-05
3.78099e-05
3.96518e-05
4.11763e-05
4.2527e-05
4.37844e-05
4.50623e-05
4.65489e-05
4.83352e-05
5.03945e-05
5.26481e-05
5.59841e-05
6.05719e-05
6.39686e-05
6.06616e-05
5.45399e-05
4.84227e-05
4.84226e-05
6.71623e-05
8.49089e-05
9.67343e-05
0.000106711
2.76224e-05
3.26082e-05
5.74079e-05
0.000113973
)
;
    }
    ceiling
    {
        type            nutkWallFunction;
        Cmu             0.09;
        kappa           0.41;
        E               9.8;
        value           nonuniform List<scalar> 
43
(
0.000168168
0.000197957
0.000506436
0.000462707
0.000405931
0.000356297
0.000317834
0.000288572
0.000266144
0.000248914
0.000236128
0.000227399
0.000222463
0.000220839
0.000221693
0.000223983
0.000226728
0.000229203
0.00023099
0.000231934
0.000232063
0.000231506
0.000230428
0.00022899
0.000227327
0.000225544
0.000223709
0.000221865
0.000220028
0.0002182
0.000216369
0.000214521
0.000212641
0.000210701
0.000208644
0.000206357
0.000203645
0.000200057
0.000192992
0.000170011
0.000609865
0.000769321
0.00083665
)
;
    }
    sWall
    {
        type            nutkWallFunction;
        Cmu             0.09;
        kappa           0.41;
        E               9.8;
        value           uniform 0.000168201;
    }
    nWall
    {
        type            nutkWallFunction;
        Cmu             0.09;
        kappa           0.41;
        E               9.8;
        value           nonuniform List<scalar> 6(9.59222e-05 0.000119437 0.000139818 0.000177234 0.00022026 0.00017002);
    }
    sideWalls
    {
        type            empty;
    }
    glass1
    {
        type            nutkWallFunction;
        Cmu             0.09;
        kappa           0.41;
        E               9.8;
        value           nonuniform List<scalar> 9(9.79904e-05 0.000149298 0.000186569 0.000195326 0.000263113 0.000384476 0.000446148 0.000513888 0.000610096);
    }
    glass2
    {
        type            nutkWallFunction;
        Cmu             0.09;
        kappa           0.41;
        E               9.8;
        value           nonuniform List<scalar> 2(0.000159078 0.000164735);
    }
    sun
    {
        type            nutkWallFunction;
        Cmu             0.09;
        kappa           0.41;
        E               9.8;
        value           nonuniform List<scalar> 
14
(
9.79864e-05
0.000104007
9.96988e-05
0.000101389
0.000103111
0.000104855
0.000106809
0.000108422
0.000109788
0.000110972
0.0001119
0.000112369
0.000112054
0.000110473
)
;
    }
    heatsource1
    {
        type            nutkWallFunction;
        Cmu             0.09;
        kappa           0.41;
        E               9.8;
        value           nonuniform List<scalar> 3(0.000105489 0.000102295 9.59222e-05);
    }
    heatsource2
    {
        type            nutkWallFunction;
        Cmu             0.09;
        kappa           0.41;
        E               9.8;
        value           nonuniform List<scalar> 4(0.000113463 7.63205e-05 7.63205e-05 0.000115153);
    }
    Table_master
    {
        type            nutkWallFunction;
        Cmu             0.09;
        kappa           0.41;
        E               9.8;
        value           nonuniform List<scalar> 9(3.80199e-05 4.01214e-05 4.51674e-05 5.13581e-05 5.81348e-05 6.5257e-05 7.29437e-05 8.1981e-05 9.41453e-05);
    }
    Table_slave
    {
        type            nutkWallFunction;
        Cmu             0.09;
        kappa           0.41;
        E               9.8;
        value           nonuniform List<scalar> 9(0.000106221 0.000105668 0.000105263 0.000104862 0.000104573 0.000104578 0.000105213 0.000107188 0.000112087);
    }
    inlet
    {
        type            calculated;
        value           uniform 0.0215916;
    }
    outlet
    {
        type            calculated;
        value           nonuniform List<scalar> 2(0.00141011 0.00167526);
    }
}


// ************************************************************************* //
