/*--------------------------------*- C++ -*----------------------------------*\
  =========                 |
  \\      /  F ield         | OpenFOAM: The Open Source CFD Toolbox
   \\    /   O peration     | Website:  https://openfoam.org
    \\  /    A nd           | Version:  6
     \\/     M anipulation  |
\*---------------------------------------------------------------------------*/
FoamFile
{
    version     2.0;
    format      ascii;
    class       surfaceScalarField;
    location    "110";
    object      phi;
}
// * * * * * * * * * * * * * * * * * * * * * * * * * * * * * * * * * * * * * //

dimensions      [1 0 -1 0 0 0 0];

internalField   nonuniform List<scalar> 
852
(
0.00274494
-0.00275955
0.00378794
-0.00104315
0.00498041
-0.00119262
0.00576605
-0.000785775
0.00610789
-0.000341971
0.00618579
-7.80268e-05
0.00611208
7.36007e-05
0.00593123
0.000180737
0.00566445
0.000266686
0.00531921
0.000345149
0.00488467
0.000434451
0.00432427
0.000560324
0.00355403
0.000770178
0.00234573
0.00120823
0.0023408
-0.000122261
0.000114773
-0.000484762
0.000362344
-0.000104832
-0.000380072
0.000560424
-0.000665383
0.00109755
-0.00053726
0.0014637
-0.000366292
0.00167708
-0.000213526
0.00179282
-0.000115888
0.00187076
-7.81011e-05
0.00193231
-6.1719e-05
0.0019821
-4.99643e-05
0.00201947
-3.75571e-05
0.00203655
-1.72735e-05
0.00201294
2.34124e-05
0.00190642
0.000106315
0.00164556
0.000260649
0.00116236
0.000482981
0.000273064
0.000889088
0.000262848
0.00138689
-0.00418792
0.00283539
-0.00249182
0.00395214
-0.00230954
0.00448963
-0.00132344
0.00471189
-0.000564397
0.00475301
-0.000119291
0.0046709
0.00015557
0.00450669
0.000344814
0.00428815
0.000485109
0.00402711
0.000606075
0.00372409
0.000737374
0.00337505
0.000909274
0.00299029
0.00115486
0.00270355
0.00149491
0.00310712
0.00193718
0.00146857
0.00163845
0.00146848
-0.000108092
0.000206367
0.000377534
-0.000123445
0.00093232
-0.00093498
0.00131517
-0.00104835
0.00161103
-0.00083324
0.00179981
-0.000555193
0.00184009
-0.000253935
0.00185301
-0.000128946
0.00186612
-9.13577e-05
0.0018777
-7.34482e-05
0.00188724
-5.96693e-05
0.00189524
-4.57239e-05
0.00189941
-2.16289e-05
0.0018909
3.17372e-05
0.00182773
0.00016928
0.00157229
0.000515888
0.0011671
0.000887964
0.00071096
0.00134502
0.00094743
0.000671615
-0.00492749
0.001938
-0.0037584
0.00275833
-0.00313006
0.00300954
-0.00157485
0.00307134
-0.00062638
0.0030367
-8.4826e-05
0.00294371
0.000248395
0.0028327
0.000455677
0.00271961
0.000598059
0.00260506
0.0007205
0.00248771
0.00085461
0.00237249
0.0010244
0.00227844
0.00124881
0.00223263
0.00154064
0.00220381
0.00196594
0.00160381
0.00223839
0.00307225
0.000168911
1.18171e-05
0.00142255
-0.00137719
0.00187016
-0.00138269
0.00204025
-0.00121854
0.0021436
-0.000936698
0.002207
-0.000618717
0.00195309
0.00182417
0.00173283
0.00165939
0.00159972
0.00155398
0.00153232
0.00156401
0.00173324
0.00141837
0.000830552
0.0011543
0.00115182
0.000882496
0.00161662
0.00178989
0.000152247
-0.00517453
0.00087303
-0.0044794
0.00134078
-0.00359804
0.001394
-0.00162828
0.00132971
-0.000562304
0.00125036
-5.66758e-06
0.00121331
0.000285254
0.00122247
0.000446351
0.00125606
0.000564308
0.00130117
0.000675245
0.00135576
0.000799885
0.00142633
0.000953708
0.00152488
0.00115015
0.00166473
0.00140071
0.00189727
0.00173332
0.00223793
0.00189766
0.00339352
0.0019166
0.00274479
0.000615748
0.00324974
-0.000493201
0.00286055
-0.000988067
0.00266858
-0.0011908
0.00252876
-0.00107882
0.00242691
-0.000834967
0.00233576
-0.0005277
0.00250588
-0.00017041
0.00252182
-1.62388e-05
0.00245545
6.60574e-05
0.00233192
0.000123222
0.00216039
0.000171214
0.00194268
0.000217388
0.00167234
0.000270014
0.0013292
0.000342793
0.000859808
0.000469045
0.000909112
0.000781031
0.000948931
0.00111179
0.00107453
0.00149081
0.00281394
-0.000397536
-0.0048977
-0.000382729
-0.00449443
-3.00147e-05
-0.003951
3.29501e-05
-0.0016915
-6.90569e-05
-0.000460533
-0.000110593
3.56466e-05
-6.28413e-05
0.000237292
3.37029e-05
0.000349612
0.00015709
0.000440737
0.000298785
0.000533377
0.000460214
0.000638298
0.00064962
0.000764159
0.000882397
0.000917241
0.00118977
0.00109323
0.00163979
0.0012832
0.00220471
0.00133265
0.0029106
0.00121064
0.00318951
0.000336767
0.0030913
-0.000395071
0.00286555
-0.000762411
0.00257101
-0.000896369
0.00230738
-0.000815321
0.00208697
-0.000614697
0.00191719
-0.000358082
0.00183784
-9.12283e-05
0.00172547
9.59409e-05
0.0015831
0.000208241
0.00142399
0.00028213
0.00125202
0.000342986
0.00106586
0.000403335
0.000863734
0.00047193
0.000650041
0.000556269
0.000473266
0.000645599
0.000501654
0.000752417
0.000791251
0.000821971
0.00158802
0.000693828
0.00282045
0.00158131
0.00120875
0.0016113
-0.000116752
0.00132508
-0.000175084
-0.0010135
-0.00402951
-0.00130616
-0.004202
-0.0010334
-0.00422402
-0.000888555
-0.00183661
-0.000875847
-0.000473507
-0.000850481
1.00285e-05
-0.000784663
0.000171234
-0.000678323
0.000243045
-0.000538063
0.000300261
-0.000367858
0.000362968
-0.000164889
0.000435139
7.94493e-05
0.000519649
0.000374591
0.000621939
0.000738451
0.00072922
0.00120154
0.000819979
0.0017249
0.000809174
0.00229814
0.000637282
0.00250583
0.000128966
0.00241051
-0.000299881
0.00219065
-0.000542687
0.00190054
-0.000606404
0.00161043
-0.000525389
0.0013519
-0.000356357
0.00113822
-0.000144597
0.000975559
7.12164e-05
0.000838192
0.000233086
0.000708636
0.000337569
0.000578934
0.000411601
0.000446364
0.000475321
0.00031124
0.000538224
0.000179572
0.000603361
7.0539e-05
0.000665064
2.31419e-05
0.000692759
0.000126039
0.000649286
0.000388419
0.000559377
0.000683954
0.000398098
0.000948625
0.00131644
0.000498941
0.00206079
-0.000434975
0.00225877
-0.000666148
-0.0015406
-0.00265582
-0.00207796
-0.00366488
-0.0017624
-0.00453985
-0.0014659
-0.00213342
-0.00132877
-0.000610926
-0.00124282
-7.62169e-05
-0.00115729
8.54398e-05
-0.00105021
0.000135703
-0.000915306
0.000165115
-0.000751104
0.000198533
-0.000555492
0.000239306
-0.000322667
0.000286616
-3.98407e-05
0.000338917
0.000296589
0.000392609
0.000684191
0.000432202
0.00108765
0.000405542
0.0014466
0.000278175
0.00155068
2.47189e-05
0.00144988
-0.000199266
0.00123226
-0.000325252
0.000960752
-0.000335104
0.00068436
-0.000249219
0.000433105
-0.000105338
0.000227192
6.10704e-05
8.22641e-05
0.000215889
-1.87764e-05
0.000333868
-0.000103574
0.000422107
-0.000183954
0.000491723
-0.000261565
0.000552675
-0.000331171
0.000607575
-0.000380433
0.00065237
-0.000388715
0.000673099
-0.000335311
0.000639116
-0.000214706
0.000528461
-6.50736e-05
0.000409555
2.80031e-05
0.000304852
0.000231431
0.00111282
6.89519e-05
0.00222307
-0.000191989
0.00251949
-0.00090995
-0.00177473
-0.00106527
-0.00273001
-0.00270984
-0.00236943
-0.0049007
-0.00175909
-0.00274409
-0.0015413
-0.000829034
-0.00145024
-0.000167587
-0.00136988
4.77933e-06
-0.0012738
3.93445e-05
-0.0011577
4.8735e-05
-0.00101998
6.05624e-05
-0.000859548
7.86233e-05
-0.000674969
0.000101801
-0.000464545
0.000128267
-0.00022625
0.000154094
3.48872e-05
0.000170851
0.000279762
0.000160455
0.000450315
0.000107408
0.000468742
6.07181e-06
0.000355965
-8.67189e-05
0.000156638
-0.000126168
-8.02529e-05
-9.84677e-05
-0.00031261
-1.71314e-05
-0.000505993
8.77675e-05
-0.00063977
0.000194562
-0.000718222
0.000294055
-0.000765234
0.000380596
-0.000796829
0.000453422
-0.000819708
0.000514326
-0.000831692
0.000564388
-0.000824602
0.000600221
-0.000785379
0.000612894
-0.000699243
0.000586722
-0.000562249
0.000501903
-0.000393798
0.000359817
-0.000207181
0.000222771
-6.31222e-05
0.000160631
0.000367669
0.000681867
0.000838421
0.00175214
0.00177821
0.00157949
0.000545711
-0.00131597
-0.00407388
-0.00215931
-0.00681549
-0.00139327
-0.00351048
-0.00154114
-0.000681493
-0.00159625
-0.000112793
-0.00156615
-2.5638e-05
-0.00150382
-2.32867e-05
-0.00142573
-2.96521e-05
-0.00133555
-2.98981e-05
-0.00123416
-2.3037e-05
-0.00112334
-9.2803e-06
-0.00100706
1.17333e-05
-0.000886921
3.37002e-05
-0.000768959
5.2636e-05
-0.000673415
6.46549e-05
-0.000627665
6.13961e-05
-0.000660354
3.84906e-05
-0.00076691
1.95586e-05
-0.000921042
2.76773e-05
-0.00108433
6.45196e-05
-0.00122107
0.000119307
-0.0013147
0.00018109
-0.00136646
0.000246017
-0.00138352
0.000310807
-0.00137536
0.000372133
-0.00134922
0.000426992
-0.00130763
0.000472454
-0.00124825
0.000504732
-0.00116575
0.000517454
-0.00105393
0.000500826
-0.000909517
0.000442075
-0.00073856
0.000330732
-0.000552812
0.000173871
-0.000333939
3.70947e-06
-8.10217e-05
-9.24718e-05
0.000416092
0.000184585
0.00119523
0.000972817
0.00193997
0.000834557
0.00213987
0.00162295
-0.00215478
-0.00109456
-0.000793322
-0.0017128
-6.35851e-05
-0.00180497
-2.09335e-05
-0.00179782
-3.30865e-05
-0.00177114
-5.02747e-05
-0.00174295
-5.81358e-05
-0.00171586
-5.72764e-05
-0.00168838
-5.08168e-05
-0.00165932
-3.8628e-05
-0.00163132
-1.65552e-05
-0.00160619
8.26992e-06
-0.00158803
3.418e-05
-0.00158329
5.96151e-05
-0.00160096
7.87596e-05
-0.00165061
8.78225e-05
-0.00172576
9.43828e-05
-0.00180664
0.000108232
-0.00187385
0.000131403
-0.00191585
0.00016097
-0.00192921
0.00019413
-0.00191395
0.000230427
-0.00187215
0.000268688
-0.00180686
0.000306536
-0.00172096
0.000340791
-0.0016166
0.000367798
-0.00149542
0.000383267
-0.00135978
0.000381549
-0.00121456
0.000355343
-0.00106943
0.000296694
-0.000939644
0.000200703
-0.000838789
7.27824e-05
-0.000759342
-7.59666e-05
-0.000690726
-0.000161314
-0.000600809
9.44553e-05
-0.000324771
0.000696571
-9.96601e-05
0.000609228
0.00197944
-0.00224449
2.85456e-05
-0.00243971
-0.000598399
-0.00218209
-0.000321509
-0.00205529
-0.000148033
-0.00200203
-8.66555e-05
-0.00199371
-5.88925e-05
-0.00201164
-4.05175e-05
-0.00204369
-2.55453e-05
-0.002083
-1.18262e-05
-0.00212339
1.44391e-06
-0.00215576
1.54819e-05
-0.00218005
3.22267e-05
-0.00219857
5.23642e-05
-0.00221242
7.31298e-05
-0.00222576
9.1751e-05
-0.002244
0.000105713
-0.00226658
0.000116612
-0.00228643
0.000127727
-0.00229562
0.000140241
-0.00228886
0.000153864
-0.00226346
0.00016839
-0.00221748
0.000184108
-0.00214971
0.000200596
-0.00206
0.000216501
-0.00194933
0.000229808
-0.00181997
0.000238133
-0.00167579
0.000238796
-0.00152328
0.000228748
-0.00137318
0.000204963
-0.00124259
0.000165821
-0.00115539
0.000113235
-0.00113562
5.27458e-05
-0.00121512
3.27447e-06
-0.00137158
-5.10778e-06
-0.00136051
8.31366e-05
-0.000999708
0.000335531
-0.000912293
0.000521568
0.000989192
-0.00192852
-0.000413925
-0.000487778
-0.00117784
-0.00158908
-0.00182581
-0.00200035
-0.00214657
-0.00227406
-0.00238639
-0.00248493
-0.00257023
-0.00264147
-0.00269596
-0.00273027
-0.00274378
-0.00273867
-0.00271968
-0.00269
-0.00264947
-0.00259674
-0.00253071
-0.00245043
-0.00235466
-0.00224257
-0.00211463
-0.00197333
-0.00182348
-0.00167255
-0.00153104
-0.00141245
-0.00133197
-0.00130307
-0.00133396
-0.0014142
-0.00150288
-0.00150241
-0.00124695
-0.000803797
)
;

boundaryField
{
    floor
    {
        type            calculated;
        value           nonuniform List<scalar> 
29
(
0
0
0
0
0
0
0
0
0
0
0
0
0
0
0
0
0
0
0
0
1.00284e-05
2.61824e-05
3.98354e-05
5.02869e-05
4.88205e-06
7.30536e-06
1.63035e-05
2.54479e-05
3.29328e-05
)
;
    }
    ceiling
    {
        type            calculated;
        value           nonuniform List<scalar> 
43
(
0.000148817
0.000150439
0.000102112
9.13997e-05
8.94487e-05
8.84038e-05
8.75811e-05
8.70055e-05
8.66396e-05
8.64382e-05
8.63682e-05
8.63798e-05
8.63652e-05
8.6348e-05
8.63057e-05
8.62627e-05
8.62637e-05
8.63562e-05
8.65538e-05
8.68318e-05
8.71494e-05
8.74683e-05
8.77584e-05
8.7996e-05
8.81606e-05
8.82293e-05
8.81739e-05
8.79602e-05
8.75523e-05
8.6922e-05
8.60673e-05
8.50461e-05
8.40298e-05
8.33372e-05
8.32155e-05
8.32787e-05
8.23755e-05
7.9787e-05
7.81406e-05
8.48751e-05
5.12459e-05
4.78579e-05
6.08915e-05
)
;
    }
    sWall
    {
        type            calculated;
        value           uniform 0.000152492;
    }
    nWall
    {
        type            calculated;
        value           nonuniform List<scalar> 6(5.77182e-05 5.57818e-05 5.15608e-05 6.05419e-05 7.77123e-05 0.000100245);
    }
    sideWalls
    {
        type            empty;
        value           nonuniform 0();
    }
    glass1
    {
        type            calculated;
        value           nonuniform List<scalar> 9(1.44596e-05 4.13001e-05 6.77689e-05 9.45975e-05 0.000120495 0.000145098 0.000166698 0.000183964 0.000199263);
    }
    glass2
    {
        type            calculated;
        value           nonuniform List<scalar> 2(0.000322323 0.000345579);
    }
    sun
    {
        type            calculated;
        value           uniform 0;
    }
    heatsource1
    {
        type            calculated;
        value           nonuniform List<scalar> 3(2.01557e-07 2.01933e-07 2.01603e-07);
    }
    heatsource2
    {
        type            calculated;
        value           nonuniform List<scalar> 4(5.07104e-08 5.09025e-08 0 0);
    }
    Table_master
    {
        type            calculated;
        value           nonuniform List<scalar> 9(-1.517e-07 -1.51835e-07 -1.51873e-07 -1.51892e-07 -1.51899e-07 -1.51897e-07 -1.51885e-07 -1.51852e-07 -1.51768e-07);
    }
    Table_slave
    {
        type            calculated;
        value           nonuniform List<scalar> 9(1.51323e-07 1.5135e-07 1.51318e-07 1.51309e-07 1.51319e-07 1.51347e-07 1.5139e-07 1.51449e-07 1.51534e-07);
    }
    inlet
    {
        type            calculated;
        value           uniform -0.00628379;
    }
    outlet
    {
        type            calculated;
        value           nonuniform List<scalar> 2(0.0016265 -0.00166568);
    }
}


// ************************************************************************* //
