// -*- C++ -*-
// File generated by PyFoam - sorry for the ugliness

FoamFile
{
 version 2.0;
 format ascii;
 class volVectorField;
 location "500";
 object U;
}

dimensions [ 0 1 -1 0 0 0 0 ];

internalField nonuniform List<vector> 459
(
  (0.000797915 0.306028 0)
  (0.217789 -0.246024 0)
  (0.32909 -0.164216 0)
  (0.441908 -0.102036 0)
  (0.503966 -0.0651405 0)
  (0.52138 -0.0423745 0)
  (0.511737 -0.0248434 0)
  (0.485361 -0.00963448 0)
  (0.445117 0.00396862 0)
  (0.392004 0.0165504 0)
  (0.32713 0.0290362 0)
  (0.250957 0.0432337 0)
  (0.164382 0.0625017 0)
  (0.0458813 0.0751912 0)
  (-0.0830526 -0.0140482 0)
  (0.0245194 0.0172871 0)
  (-0.0373763 -0.00583596 0)
  (-0.0255447 -0.00684182 0)
  (-0.0245879 -0.00326707 0)
  (-0.0239326 -0.00113528 0)
  (-0.0247982 -0.00114252 0)
  (-0.0260196 -0.00313601 0)
  (-0.023452 -0.00464081 0)
  (-0.0197864 -0.00577648 0)
  (-0.0162638 -0.0061537 0)
  (-0.0120904 -0.00752642 0)
  (-0.00475424 -0.0104327 0)
  (0.00489037 -0.0168902 0)
  (0.0166142 -0.012745 0)
  (0.0265013 -0.0098273 0)
  (0.0329658 -0.00755698 0)
  (0.0368566 -0.00667128 0)
  (0.0433851 -0.00130992 0)
  (-0.0132234 0.0185672 0)
  (0.563306 -0.257748 0)
  (0.324649 -0.283524 0)
  (0.375438 -0.176627 0)
  (0.438378 -0.083675 0)
  (0.464514 -0.0277255 0)
  (0.467666 0.00964302 0)
  (0.451481 0.0382087 0)
  (0.421536 0.0613361 0)
  (0.378761 0.0800288 0)
  (0.324191 0.0953874 0)
  (0.259769 0.108831 0)
  (0.187985 0.122253 0)
  (0.116525 0.136662 0)
  (0.0327881 0.133825 0)
  (-0.0147813 0.0211424 0)
  (-0.0123708 -0.0211886 0)
  (0.000631014 -0.0086793 0)
  (0.107334 0.0117005 0)
  (0.0554927 0.0082581 0)
  (0.037218 0.00460532 0)
  (0.028579 0.00341639 0)
  (0.0232238 0.00386732 0)
  (0.0173191 0.00567872 0)
  (0.01249 0.00484395 0)
  (0.00650114 9.80785e-05 0)
  (0.000689782 -0.00476511 0)
  (-0.00214517 -0.00432125 0)
  (-0.00162024 -0.00449679 0)
  (0.00662676 -0.00984706 0)
  (0.00379551 -0.0182012 0)
  (0.00448012 -0.0127016 0)
  (0.00861655 -0.00967772 0)
  (0.00992539 -0.00860851 0)
  (0.0101491 -0.0121274 0)
  (0.0298186 -0.000526027 0)
  (-0.0775562 0.0413963 0)
  (0.607727 -0.471904 0)
  (0.141747 -0.364472 0)
  (0.250415 -0.205963 0)
  (0.302871 -0.105452 0)
  (0.310117 -0.0470906 0)
  (0.308943 -0.00289584 0)
  (0.301406 0.0389973 0)
  (0.283997 0.0778217 0)
  (0.25471 0.111954 0)
  (0.214026 0.141042 0)
  (0.164029 0.16526 0)
  (0.1078 0.185386 0)
  (0.0565865 0.19949 0)
  (0.00127425 0.177655 0)
  (-0.0084216 0.0414349 0)
  (-0.00265168 -0.0163483 0)
  (-0.00875639 -0.0205648 0)
  (0.0885794 -0.0233385 0)
  (-0.0155578 -0.00447716 0)
  (-0.00237783 0.0042749 0)
  (0.00380137 0.00452225 0)
  (0.0100138 0.0041877 0)
  (0.0146259 0.00416565 0)
  (0.026791 0.00476446 0)
  (0.0318029 0.00225887 0)
  (0.0326812 -0.000275796 0)
  (0.0301217 -0.00260141 0)
  (0.0263117 -0.00500451 0)
  (0.0223314 -0.00891944 0)
  (0.00426684 -0.0153567 0)
  (-0.017235 -0.00756552 0)
  (-0.0220313 -0.00110268 0)
  (-0.02257 0.00358041 0)
  (-0.0341647 0.00709417 0)
  (-0.0625335 0.0168808 0)
  (-0.144403 0.0293906 0)
  (0.631329 -0.614813 0)
  (-0.054948 -0.393357 0)
  (0.148113 -0.20477 0)
  (0.175568 -0.108579 0)
  (0.162698 -0.049424 0)
  (0.158237 0.00266943 0)
  (0.156383 0.0531171 0)
  (0.14674 0.100309 0)
  (0.127455 0.142985 0)
  (0.0990644 0.180304 0)
  (0.063299 0.211327 0)
  (0.0236142 0.234733 0)
  (-0.00694752 0.240339 0)
  (-0.0308785 0.188642 0)
  (-0.019656 0.0423194 0)
  (-0.0246507 0.00475857 0)
  (-0.037082 0.0216368 0)
  (-0.0415574 0.0553741 0)
  (-0.0391221 -0.00445632 0)
  (-0.0446726 -0.0009379 0)
  (-0.0389836 -1.17966e-06 0)
  (-0.0363854 0.00077871 0)
  (-0.0361989 9.13448e-05 0)
  (-0.037638 -0.0022532 0)
  (-0.0387216 -0.00406662 0)
  (-0.0337168 -0.00675898 0)
  (-0.0269019 -0.00875651 0)
  (-0.0183689 -0.0104041 0)
  (-0.00896968 -0.0117389 0)
  (0.00294194 -0.0122728 0)
  (0.0129315 -0.0115227 0)
  (0.0217299 -0.00982455 0)
  (0.0303614 -0.00578919 0)
  (0.0335361 0.00200336 0)
  (0.0363465 0.0084306 0)
  (0.0394072 0.0111949 0)
  (-0.0335902 0.0130416 0)
  (0.628583 -0.684319 0)
  (-0.188702 -0.410917 0)
  (0.0971259 -0.210456 0)
  (0.071181 -0.105585 0)
  (0.0352306 -0.0472025 0)
  (0.0256365 0.00657349 0)
  (0.0290933 0.0616925 0)
  (0.023196 0.114889 0)
  (0.0106493 0.165084 0)
  (-0.00825063 0.210579 0)
  (-0.0301331 0.244229 0)
  (-0.0503561 0.263026 0)
  (-0.0571731 0.25139 0)
  (-0.0544527 0.175219 0)
  (-0.0371983 0.0401439 0)
  (-0.0440744 0.00494005 0)
  (-0.0479609 -0.00171368 0)
  (-0.0509012 -0.00358989 0)
  (-0.0539806 -0.00617667 0)
  (-0.0572448 -0.00332833 0)
  (-0.057065 -0.00172524 0)
  (-0.0559957 -0.000656027 0)
  (-0.0540373 -0.000739414 0)
  (-0.0512576 -0.00220584 0)
  (-0.0474272 -0.00464509 0)
  (-0.0426579 -0.00817518 0)
  (-0.0374494 -0.0111532 0)
  (-0.0316494 -0.0134893 0)
  (-0.0254457 -0.0151228 0)
  (-0.0188675 -0.0156566 0)
  (-0.012146 -0.0149961 0)
  (-0.00486834 -0.0134052 0)
  (0.00521603 -0.0104289 0)
  (0.0179161 -0.00789524 0)
  (0.0357533 -0.00473318 0)
  (0.062347 0.00229806 0)
  (0.0782188 0.0156501 0)
  (0.116838 0.0128961 0)
  (0.126081 0.0251878 0)
  (-0.0561808 0.062114 0)
  (0.579229 -0.697509 0)
  (-0.235789 -0.418731 0)
  (0.0459495 -0.199377 0)
  (-0.0291314 -0.067899 0)
  (-0.0715402 -0.0276819 0)
  (-0.0819313 0.0178055 0)
  (-0.0820087 0.069141 0)
  (-0.0850283 0.124391 0)
  (-0.0897516 0.177768 0)
  (-0.096028 0.224122 0)
  (-0.101847 0.256506 0)
  (-0.102446 0.267257 0)
  (-0.0896565 0.239515 0)
  (-0.0679395 0.150225 0)
  (-0.0473993 0.0413511 0)
  (-0.0507083 0.0150955 0)
  (-0.0532379 0.00759579 0)
  (-0.0549419 0.00270855 0)
  (-0.0568859 -0.00123093 0)
  (-0.0583575 -0.00209579 0)
  (-0.0582756 -0.0023244 0)
  (-0.0570889 -0.00261866 0)
  (-0.0550605 -0.00371934 0)
  (-0.052568 -0.00586348 0)
  (-0.0499637 -0.00882432 0)
  (-0.0475614 -0.0122225 0)
  (-0.0454801 -0.0152531 0)
  (-0.0436602 -0.0176246 0)
  (-0.0421417 -0.0191803 0)
  (-0.0408632 -0.0198123 0)
  (-0.0396012 -0.0196693 0)
  (-0.0378433 -0.0191907 0)
  (-0.0344993 -0.0189876 0)
  (-0.0283416 -0.0203537 0)
  (-0.0175874 -0.0239517 0)
  (0.00119763 -0.0294897 0)
  (0.02444 -0.0354705 0)
  (0.054763 -0.0252063 0)
  (0.099561 0.0273372 0)
  (-0.0880907 0.113811 0)
  (0.462767 -0.642878 0)
  (-0.222314 -0.387037 0)
  (-0.0614677 -0.167428 0)
  (-0.108357 -0.0287866 0)
  (-0.165686 -0.0111801 0)
  (-0.173197 0.0240059 0)
  (-0.172235 0.0712725 0)
  (-0.169102 0.12518 0)
  (-0.164137 0.177905 0)
  (-0.157347 0.222447 0)
  (-0.14745 0.250598 0)
  (-0.1311 0.252228 0)
  (-0.103977 0.212017 0)
  (-0.0715964 0.119965 0)
  (-0.0507764 0.0379786 0)
  (-0.0500491 0.0165693 0)
  (-0.0495177 0.00864115 0)
  (-0.0489983 0.00355069 0)
  (-0.0488496 -0.000174921 0)
  (-0.0487724 -0.00206312 0)
  (-0.0482969 -0.00309271 0)
  (-0.0474808 -0.00399705 0)
  (-0.0465307 -0.00536012 0)
  (-0.0457891 -0.00740068 0)
  (-0.0456351 -0.0099777 0)
  (-0.0464148 -0.0126892 0)
  (-0.0483697 -0.0150058 0)
  (-0.0516798 -0.0166528 0)
  (-0.0564829 -0.0175769 0)
  (-0.0627263 -0.0179011 0)
  (-0.0701911 -0.0179558 0)
  (-0.0783531 -0.0182966 0)
  (-0.0864525 -0.0198823 0)
  (-0.0937865 -0.0242989 0)
  (-0.0995449 -0.0332542 0)
  (-0.102341 -0.0477365 0)
  (-0.100435 -0.065159 0)
  (-0.0856885 -0.0705358 0)
  (0.0453104 -0.00440975 0)
  (-0.143419 0.191516 0)
  (0.281995 -0.504017 0)
  (-0.311446 -0.301913 0)
  (-0.263079 -0.139874 0)
  (-0.20195 0.0235275 0)
  (-0.264134 -0.00684417 0)
  (-0.247428 0.0212663 0)
  (-0.236369 0.0656602 0)
  (-0.224006 0.11667 0)
  (-0.208604 0.166203 0)
  (-0.189423 0.20676 0)
  (-0.165887 0.229454 0)
  (-0.136703 0.223312 0)
  (-0.100821 0.175843 0)
  (-0.0647186 0.0894834 0)
  (-0.0452827 0.0308826 0)
  (-0.0408788 0.013721 0)
  (-0.0368454 0.00656458 0)
  (-0.0335068 0.00216234 0)
  (-0.0310936 -0.000823528 0)
  (-0.0298397 -0.00247534 0)
  (-0.0290762 -0.003414 0)
  (-0.028672 -0.00418023 0)
  (-0.0286882 -0.00515885 0)
  (-0.0293559 -0.00646491 0)
  (-0.0309949 -0.00791187 0)
  (-0.0339751 -0.00905721 0)
  (-0.0387506 -0.00936639 0)
  (-0.045954 -0.00850695 0)
  (-0.0562503 -0.00648724 0)
  (-0.0699374 -0.00346216 0)
  (-0.0878485 -0.000233833 0)
  (-0.110404 0.00179482 0)
  (-0.137131 0.00106611 0)
  (-0.166946 -0.00350333 0)
  (-0.198352 -0.0116703 0)
  (-0.228334 -0.0212893 0)
  (-0.254594 -0.0283446 0)
  (-0.27705 -0.0226293 0)
  (-0.329583 0.00997353 0)
  (-0.523027 0.081168 0)
  (0.0147532 -0.348753 0)
  (-0.6255 -0.278902 0)
  (-0.805826 -0.248724 0)
  (-0.236022 -0.0728033 0)
  (-0.343721 -0.0453835 0)
  (-0.292371 0.000204544 0)
  (-0.268422 0.0492735 0)
  (-0.247384 0.098265 0)
  (-0.222679 0.143356 0)
  (-0.192797 0.178785 0)
  (-0.158285 0.196361 0)
  (-0.12019 0.185597 0)
  (-0.0797864 0.136971 0)
  (-0.043383 0.0625284 0)
  (-0.0264436 0.0217846 0)
  (-0.0199368 0.00858521 0)
  (-0.0132601 0.00303629 0)
  (-0.00801218 0.000280557 0)
  (-0.00497174 -0.0010921 0)
  (-0.00328776 -0.00170074 0)
  (-0.00250125 -0.00199578 0)
  (-0.00235571 -0.00225382 0)
  (-0.00278548 -0.00265247 0)
  (-0.00385621 -0.00321361 0)
  (-0.00564417 -0.00373694 0)
  (-0.00814188 -0.00378214 0)
  (-0.0112652 -0.00277776 0)
  (-0.0149437 -0.000254146 0)
  (-0.0186213 0.00397103 0)
  (-0.02328 0.00967311 0)
  (-0.0292512 0.0162901 0)
  (-0.0366151 0.0225308 0)
  (-0.0455139 0.0264143 0)
  (-0.0562475 0.0253778 0)
  (-0.0704454 0.0164143 0)
  (-0.0921982 -0.00283253 0)
  (-0.110812 -0.0321739 0)
  (-0.10912 -0.074818 0)
  (-0.137188 -0.139848 0)
  (-0.490988 -0.214996 0)
  (-1.80354 -0.262456 0)
  (-0.0731807 -0.191694 0)
  (-0.316757 -0.0867264 0)
  (-0.282734 -0.0205365 0)
  (-0.263866 0.031672 0)
  (-0.240396 0.0749696 0)
  (-0.209684 0.112418 0)
  (-0.171377 0.141052 0)
  (-0.127983 0.154254 0)
  (-0.0829814 0.142927 0)
  (-0.0382991 0.099586 0)
  (0.000734974 0.0378754 0)
  (0.013005 0.0100351 0)
  (0.0186647 0.000172321 0)
  (0.0229663 -0.00364346 0)
  (0.0256597 -0.00423995 0)
  (0.0272555 -0.00360112 0)
  (0.0280381 -0.0026927 0)
  (0.0282526 -0.00187638 0)
  (0.0280421 -0.00126168 0)
  (0.0274353 -0.000878935 0)
  (0.0263903 -0.000696435 0)
  (0.0248803 -0.00057201 0)
  (0.0229986 -0.000202618 0)
  (0.0210285 0.000851214 0)
  (0.0194172 0.00300786 0)
  (0.0184424 0.00632084 0)
  (0.0183481 0.0112486 0)
  (0.0194636 0.0172929 0)
  (0.0217584 0.0232639 0)
  (0.0249186 0.02764 0)
  (0.0285362 0.029001 0)
  (0.0321859 0.026476 0)
  (0.0358508 0.0203178 0)
  (0.0460728 0.0128603 0)
  (0.0631644 -0.000381087 0)
  (0.125482 -0.062099 0)
  (-0.143478 -0.171679 0)
  (-0.427035 0.07102 0)
  (0.00797981 -0.18481 0)
  (-0.226144 -0.102585 0)
  (-0.240404 -0.0584025 0)
  (-0.238531 -0.0178802 0)
  (-0.217434 0.0225839 0)
  (-0.181871 0.0560841 0)
  (-0.135444 0.0818083 0)
  (-0.0826055 0.0943553 0)
  (-0.0280385 0.0846244 0)
  (0.0302407 0.0375778 0)
  (0.0623684 -0.00705055 0)
  (0.0715581 -0.034218 0)
  (0.0714696 -0.0458985 0)
  (0.0689813 -0.0496879 0)
  (0.0665386 -0.0502017 0)
  (0.0644474 -0.0496082 0)
  (0.0626795 -0.0488074 0)
  (0.0611642 -0.0480734 0)
  (0.059794 -0.0474303 0)
  (0.0584439 -0.0468142 0)
  (0.0570013 -0.0461165 0)
  (0.0554013 -0.0451933 0)
  (0.0536781 -0.0438703 0)
  (0.0520765 -0.0418985 0)
  (0.0512399 -0.0380516 0)
  (0.0515042 -0.0320312 0)
  (0.053665 -0.0243937 0)
  (0.058341 -0.0162204 0)
  (0.0655988 -0.00887905 0)
  (0.0748751 -0.00377819 0)
  (0.0850976 -0.00231611 0)
  (0.0948119 -0.00605621 0)
  (0.102542 -0.0166599 0)
  (0.106422 -0.0297763 0)
  (0.101805 -0.0447161 0)
  (0.139228 -0.0736462 0)
  (-0.198374 -0.111441 0)
  (0.726585 0.175967 0)
  (0.0557836 -0.300746 0)
  (-0.282601 0.157396 0)
  (-0.00125952 0.0373567 0)
  (-0.170025 0.0890465 0)
  (-0.19274 0.107127 0)
  (-0.195984 0.111351 0)
  (-0.176638 0.11283 0)
  (-0.136975 0.11994 0)
  (-0.0835512 0.12921 0)
  (-0.0156192 0.135502 0)
  (0.0540906 0.128983 0)
  (0.102544 0.121433 0)
  (0.127929 0.123297 0)
  (0.133855 0.131579 0)
  (0.129414 0.136735 0)
  (0.123198 0.138971 0)
  (0.117743 0.139882 0)
  (0.11297 0.140306 0)
  (0.108684 0.140543 0)
  (0.104885 0.140679 0)
  (0.101573 0.140704 0)
  (0.0987164 0.140541 0)
  (0.0962786 0.140059 0)
  (0.0942514 0.139089 0)
  (0.0926727 0.137446 0)
  (0.091698 0.13494 0)
  (0.0914856 0.130095 0)
  (0.0926444 0.122767 0)
  (0.0958656 0.113681 0)
  (0.101689 0.104046 0)
  (0.110282 0.0950546 0)
  (0.12114 0.0873931 0)
  (0.132869 0.0812062 0)
  (0.143121 0.0764619 0)
  (0.148988 0.0734866 0)
  (0.145659 0.0683055 0)
  (0.130037 0.0599983 0)
  (0.156777 0.0423641 0)
  (-0.249561 0.0175818 0)
)
;

boundaryField
{
  floor
  {
    type noSlip;
  }
  ceiling
  {
    type noSlip;
  }
  sWall
  {
    type noSlip;
  }
  nWall
  {
    type noSlip;
  }
  sideWalls
  {
    type empty;
  }
  glass1
  {
    type noSlip;
  }
  glass2
  {
    type noSlip;
  }
  sun
  {
    type noSlip;
  }
  heatsource1
  {
    type noSlip;
  }
  heatsource2
  {
    type noSlip;
  }
  Table_master
  {
    type noSlip;
  }
  Table_slave
  {
    type noSlip;
  }
  inlet
  {
    type fixedValue;
    value uniform (0.1 0 0);
  }
  outlet
  {
    type zeroGradient;
  }
} 	// ************************************************************************* //

