/*--------------------------------*- C++ -*----------------------------------*\
  =========                 |
  \\      /  F ield         | OpenFOAM: The Open Source CFD Toolbox
   \\    /   O peration     | Website:  https://openfoam.org
    \\  /    A nd           | Version:  6
     \\/     M anipulation  |
\*---------------------------------------------------------------------------*/
FoamFile
{
    version     2.0;
    format      ascii;
    class       surfaceScalarField;
    location    "1300";
    object      phi;
}
// * * * * * * * * * * * * * * * * * * * * * * * * * * * * * * * * * * * * * //

dimensions      [1 0 -1 0 0 0 0];

internalField   nonuniform List<scalar> 
852
(
-0.00293579
0.00299203
-0.00397355
0.00103776
-0.0047619
0.000788358
-0.00537875
0.000616845
-0.00579495
0.0004162
-0.00598798
0.000193031
-0.00593606
-5.19199e-05
-0.00562158
-0.000314478
-0.00505653
-0.000565048
-0.00429236
-0.000764174
-0.00340937
-0.000882985
-0.00249624
-0.000913132
-0.00162776
-0.000868485
-0.000826156
-0.000801601
-0.000824718
-0.000674117
0.000676799
-0.000342702
-0.000331415
0.000265502
-0.000608204
0.000738756
-0.000473254
0.00105221
-0.000313455
0.00124653
-0.000194319
0.00135179
-0.000105257
0.00140397
-5.21779e-05
0.00143342
-2.94519e-05
0.00145121
-1.77887e-05
0.00146112
-9.91775e-06
0.00146432
-3.20063e-06
0.00145855
5.77312e-06
0.00143545
2.31038e-05
0.00137257
6.28793e-05
0.00123201
0.000140561
0.000999119
0.000232889
0.000706998
0.000292121
0.000710606
-0.00209409
0.00523753
-0.00309857
0.00204224
-0.00390372
0.00159351
-0.00450732
0.00122044
-0.00491366
0.00082254
-0.00510927
0.000388648
-0.00506901
-9.2188e-05
-0.00477823
-0.000605256
-0.00425992
-0.00108336
-0.00357505
-0.00144904
-0.00280557
-0.00165246
-0.002032
-0.0016867
-0.00132663
-0.00157386
-0.000777929
-0.0013503
-0.000574259
-0.00102839
-7.85871e-05
-0.000495723
-7.86383e-05
0.000380896
0.000303535
0.000804932
-0.000755451
0.00105321
-0.000856478
0.00126154
-0.000681588
0.00141631
-0.000468227
0.00150649
-0.000284494
0.00152036
-0.000119131
0.00152407
-5.58839e-05
0.00152852
-3.3909e-05
0.00153234
-2.16083e-05
0.00153491
-1.24823e-05
0.0015361
-4.39367e-06
0.0015353
6.57807e-06
0.00152865
2.97488e-05
0.00148744
0.000104089
0.00131252
0.000315478
0.00101004
0.000535371
0.000628387
0.000673775
0.00134828
-0.0014655
0.00693458
-0.00232824
0.00290499
-0.00303619
0.00230146
-0.00354702
0.00173127
-0.00389661
0.00117213
-0.00406716
0.000559196
-0.0040141
-0.000145247
-0.00371508
-0.000904274
-0.00321458
-0.00158385
-0.00258812
-0.00207551
-0.00191734
-0.00232324
-0.00126651
-0.00233753
-0.000686506
-0.00215386
-0.000229063
-0.00180774
7.56493e-05
-0.0013331
0.000277022
-0.000697095
0.000198383
0.00148274
-0.0011712
0.0016967
-0.000969408
0.00167631
-0.000836087
0.00167699
-0.000682268
0.00169866
-0.000489904
0.00170963
-0.000295462
0.00159065
0.00153492
0.00150117
0.00147971
0.00146738
0.00146314
0.00146987
0.00149978
0.00160402
0.00132374
0.000595758
0.000982862
0.000876246
0.000549317
0.00110732
0.00191177
-0.00102349
0.00825788
-0.00170512
0.00358662
-0.00216609
0.00276242
-0.002493
0.00205818
-0.00271645
0.00139558
-0.00280458
0.00064733
-0.00268285
-0.000266978
-0.00233835
-0.00124878
-0.00185409
-0.00206812
-0.00131329
-0.00261631
-0.00078321
-0.00285332
-0.000299634
-0.00282111
0.000119552
-0.00257305
0.000469132
-0.00215732
0.000776025
-0.00163999
0.00114456
-0.00106563
0.00190311
-0.000560172
0.00243954
-0.000529163
0.00203778
-0.000769446
0.00191159
-0.000843226
0.00180258
-0.000727074
0.00170983
-0.000589523
0.00165986
-0.000439928
0.00164061
-0.00027621
0.00175401
-0.000113552
0.0018261
-7.22464e-05
0.00188473
-5.87856e-05
0.00193021
-4.56315e-05
0.00194851
-1.84545e-05
0.00191846
2.98949e-05
0.00181555
0.000102759
0.00160741
0.000207992
0.00124002
0.000367239
0.00110997
0.000725801
0.00082419
0.00116203
0.000387693
0.00154382
0.00231805
-0.000717666
0.0093333
-0.001234
0.00410295
-0.00132076
0.00284918
-0.00137223
0.00210965
-0.00139322
0.00141657
-0.00130447
0.000558581
-0.00102525
-0.000546198
-0.000617032
-0.001657
-0.000185378
-0.00249977
0.000203195
-0.00300488
0.00052175
-0.00317188
0.000767574
-0.00306693
0.000953468
-0.00275894
0.00110771
-0.00231157
0.00126086
-0.00179314
0.00146444
-0.00126921
0.00174863
-0.00084436
0.00188654
-0.000667068
0.0017895
-0.000672412
0.00161544
-0.000669162
0.00146932
-0.000580957
0.0013503
-0.0004705
0.00126921
-0.000358834
0.00123905
-0.000246057
0.00128068
-0.000155178
0.00132844
-0.000120005
0.00138128
-0.00011163
0.00143568
-0.000100026
0.00148105
-6.38255e-05
0.00149794
1.30072e-05
0.0014658
0.000134896
0.00137269
0.000301101
0.00121919
0.000520745
0.00108524
0.000859749
0.000941644
0.00130562
0.000623298
0.00186216
0.000552026
0.00238932
-0.000968973
0.0015208
-0.00143191
0.00046273
-0.00138493
-0.000626455
0.0103664
-0.000979789
0.00445628
-0.000552991
0.00242238
-0.000187262
0.00174392
9.42924e-05
0.00113501
0.000483442
0.000169431
0.000981264
-0.00104402
0.00140184
-0.00207758
0.0016879
-0.00278582
0.00183507
-0.00315205
0.00187276
-0.00320957
0.00182938
-0.00302355
0.00173508
-0.00266464
0.00162596
-0.00220245
0.0015351
-0.00170228
0.00148819
-0.0012223
0.00147939
-0.000835555
0.00142514
-0.000612818
0.00128148
-0.000528752
0.00109179
-0.000479471
0.000925106
-0.000414275
0.00079831
-0.000343704
0.000717359
-0.000277883
0.000689746
-0.000218443
0.000712289
-0.000177722
0.000760849
-0.000168565
0.000824674
-0.000175455
0.000899023
-0.000174375
0.000978363
-0.000143166
0.00105088
-5.95077e-05
0.00109899
8.67848e-05
0.00111824
0.000281848
0.00111645
0.000522539
0.00114101
0.00083519
0.00123977
0.00120686
0.00142599
0.00167594
0.00186883
0.00194647
0.00212978
0.00125985
0.00174119
0.000851323
0.000412824
-0.000680614
0.0114979
-0.000559269
0.00433494
0.000576562
0.00128655
0.00137229
0.000948193
0.00205733
0.000449974
0.00275802
-0.000531258
0.00330161
-0.00158761
0.00358836
-0.00236433
0.00362296
-0.00282042
0.00345073
-0.00297982
0.00313369
-0.00289252
0.00273291
-0.00262278
0.0023016
-0.00223333
0.00188643
-0.00178727
0.00152286
-0.00133872
0.00122707
-0.000926512
0.000997596
-0.000606081
0.000799406
-0.000414628
0.000599889
-0.000329235
0.0004102
-0.000289782
0.00025531
-0.000259384
0.00014493
-0.000233325
8.01349e-05
-0.000213088
6.12691e-05
-0.000199577
8.1621e-05
-0.000198074
0.000126306
-0.00021325
0.000185851
-0.000235
0.000259263
-0.000247788
0.000350723
-0.000234626
0.000465149
-0.000173934
0.000590539
-3.86048e-05
0.000716112
0.000156275
0.000852484
0.000386168
0.00103773
0.000649943
0.00132013
0.000924461
0.0017612
0.00123488
0.00242763
0.00128004
0.00296849
0.000718986
0.0029918
0.000828011
0.00346581
0.00259458
0.00940787
0.00329985
0.00362967
0.0037034
0.000883004
0.00439369
0.000257903
0.00520852
-0.000364859
0.00583703
-0.00115977
0.00605776
-0.00180834
0.00589952
-0.00220609
0.00543903
-0.00235993
0.0047684
-0.00230919
0.00398291
-0.00210703
0.00316654
-0.00180641
0.0023807
-0.00144749
0.00167434
-0.00108092
0.00108026
-0.000744641
0.000604965
-0.000451214
0.000253945
-0.000255061
-1.10531e-06
-0.000159577
-0.000196954
-0.000133387
-0.000350495
-0.000136241
-0.000466494
-0.000143385
-0.000547279
-0.00015254
-0.000596432
-0.000163935
-0.000617453
-0.000178557
-0.000616892
-0.000198634
-0.000604924
-0.000225217
-0.000587454
-0.000252469
-0.000563473
-0.00027177
-0.000524624
-0.000273474
-0.000452201
-0.000246357
-0.000317386
-0.00017342
-0.000135576
-2.55349e-05
7.84132e-05
0.000172178
0.000347756
0.0003806
0.000684164
0.000588053
0.00112829
0.000790749
0.00161759
0.000790745
0.00182633
0.000510244
0.0010863
0.00156804
0.00480144
0.00996129
0.0135829
0.0124538
0.00201207
0.0117474
0.000964313
0.0110916
0.000291008
0.0102112
-0.000279439
0.00906615
-0.000663246
0.00776091
-0.000900851
0.00638967
-0.000988686
0.00502595
-0.000945474
0.00373673
-0.000817817
0.00257465
-0.000644322
0.00156053
-0.000433375
0.00071883
-0.000239213
5.64357e-05
-8.22466e-05
-0.00041048
1.57016e-05
-0.000698798
3.32564e-05
-0.000877214
1.88391e-05
-0.00100353
-7.07375e-06
-0.00110495
-3.48188e-05
-0.0011878
-6.05297e-05
-0.00125478
-8.55592e-05
-0.00130948
-0.000109245
-0.00135609
-0.000131947
-0.00140108
-0.000153644
-0.0014529
-0.000173392
-0.00151912
-0.000186251
-0.0016068
-0.000184093
-0.00172453
-0.000155736
-0.00188274
-8.81481e-05
-0.00208733
3.11683e-05
-0.00232524
0.000212374
-0.00262256
0.000469495
-0.00306104
0.00081908
-0.00373236
0.00125938
-0.0047034
0.00176179
-0.0060904
0.00217775
-0.00777542
0.00219526
-0.00730367
0.00109629
-0.00222641
0.00467808
0.00351154
0.00379168
0.00185071
0.00417362
-9.09336e-05
0.00418023
-0.000286045
0.0037766
-0.000259614
0.00314622
-0.000270474
0.0023956
-0.000238068
0.00159257
-0.00014244
0.000779234
-4.48092e-06
7.6786e-06
0.000127234
-0.00063156
0.000205863
-0.00108358
0.000212807
-0.00137065
0.000204827
-0.00153422
0.000179265
-0.00163676
0.000135803
-0.00171032
9.23972e-05
-0.00177174
5.43448e-05
-0.00182972
2.316e-05
-0.00188895
-1.30259e-06
-0.00195125
-2.32531e-05
-0.00201731
-4.31847e-05
-0.002089
-6.02612e-05
-0.0021695
-7.31409e-05
-0.00226141
-8.14821e-05
-0.00236566
-8.20046e-05
-0.00248117
-6.85842e-05
-0.00260398
-3.29226e-05
-0.00272644
3.43134e-05
-0.0028365
0.000141231
-0.00293086
0.000306732
-0.0030172
0.000555837
-0.00310091
0.000902784
-0.00317766
0.00133613
-0.00320226
0.00178639
-0.00312222
0.00209771
-0.00275818
0.00183122
-0.00149667
-0.000165215
-0.00365109
-0.000539335
0.00411561
0.00029661
0.00101477
-8.13443e-05
0.000287021
-0.000454155
8.67653e-05
-0.000783233
6.94641e-05
-0.00114293
8.92192e-05
-0.00150883
0.000127832
-0.00182817
0.0001769
-0.00205428
0.000221635
-0.00218074
0.000253688
-0.00223785
0.000262982
-0.00226303
0.000237986
-0.00226136
0.000203152
-0.00224939
0.000167293
-0.00224612
0.000132536
-0.00225648
0.000102759
-0.00228013
7.7998e-05
-0.00231453
5.75553e-05
-0.00235651
4.06783e-05
-0.00240729
2.75252e-05
-0.00246587
1.53924e-05
-0.00253017
4.03817e-06
-0.00259753
-5.77169e-06
-0.00266584
-1.31771e-05
-0.00273132
-1.65259e-05
-0.00278713
-1.2774e-05
-0.00282237
2.31503e-06
-0.00282678
3.87224e-05
-0.00279026
0.00010472
-0.00269124
0.000207709
-0.00249843
0.000363028
-0.00218507
0.000589419
-0.00173198
0.00088304
-0.00111125
0.00116566
-0.000151696
0.00113816
0.00114345
0.00053607
0.00158089
-0.000602658
-0.00199135
-0.00722919
-0.0101301
-0.00597167
-0.00493696
-0.00463877
-0.00454509
-0.00447134
-0.00437982
-0.00425129
-0.00407506
-0.00385533
-0.00360468
-0.00334587
-0.00311309
-0.00291604
-0.00275557
-0.00263042
-0.00253547
-0.00246562
-0.00241647
-0.00238438
-0.00236557
-0.00235898
-0.00236377
-0.00237836
-0.00240027
-0.00242542
-0.00244665
-0.0024526
-0.00242188
-0.0023249
-0.00212465
-0.00176879
-0.00118627
-0.000309872
0.000849355
0.00198106
0.00251044
0.00190069
)
;

boundaryField
{
    floor
    {
        type            calculated;
        value           nonuniform List<scalar> 
29
(
0
0
0
0
0
0
0
0
0
0
0
0
0
0
0
0
0
0
0
0
-3.60744e-06
-9.29007e-06
-1.41674e-05
-1.85868e-05
-1.43746e-06
-2.68137e-06
-7.63259e-06
-8.00007e-06
-7.25998e-06
)
;
    }
    ceiling
    {
        type            calculated;
        value           nonuniform List<scalar> 
43
(
-4.54251e-05
-4.41017e-05
-4.27904e-05
-1.99466e-05
-1.1167e-05
-6.91036e-06
-4.28618e-06
-2.30415e-06
-6.94993e-07
6.72885e-07
1.89708e-06
3.04525e-06
4.16432e-06
5.20788e-06
6.10346e-06
6.82306e-06
7.38218e-06
7.81419e-06
8.1491e-06
8.40102e-06
8.58587e-06
8.71821e-06
8.80175e-06
8.83438e-06
8.81147e-06
8.73879e-06
8.62131e-06
8.46023e-06
8.2562e-06
8.00936e-06
7.73864e-06
7.45686e-06
7.17369e-06
6.8958e-06
6.64055e-06
6.43161e-06
6.45572e-06
6.69247e-06
7.08587e-06
8.31647e-06
1.10998e-05
8.05052e-06
-6.4734e-05
)
;
    }
    sWall
    {
        type            calculated;
        value           uniform -0.000274934;
    }
    nWall
    {
        type            calculated;
        value           nonuniform List<scalar> 6(-4.71832e-05 -5.65614e-05 -6.11875e-05 -7.19852e-05 -7.88531e-05 -9.89693e-05);
    }
    sideWalls
    {
        type            empty;
        value           nonuniform 0();
    }
    glass1
    {
        type            calculated;
        value           nonuniform List<scalar> 9(-5.62383e-05 -0.000151413 -0.000231558 -0.000299802 -0.000357756 -0.000406644 -0.000450911 -0.000504532 -0.000564517);
    }
    glass2
    {
        type            calculated;
        value           nonuniform List<scalar> 2(-0.000249329 -0.000275825);
    }
    sun
    {
        type            calculated;
        value           uniform 0;
    }
    heatsource1
    {
        type            calculated;
        value           nonuniform List<scalar> 3(2.03958e-07 2.03914e-07 2.03932e-07);
    }
    heatsource2
    {
        type            calculated;
        value           nonuniform List<scalar> 4(5.10978e-08 5.12198e-08 0 0);
    }
    Table_master
    {
        type            calculated;
        value           nonuniform List<scalar> 9(-1.52968e-07 -1.53049e-07 -1.53079e-07 -1.53098e-07 -1.53112e-07 -1.53122e-07 -1.53125e-07 -1.53119e-07 -1.53086e-07);
    }
    Table_slave
    {
        type            calculated;
        value           nonuniform List<scalar> 9(1.52846e-07 1.52871e-07 1.52855e-07 1.52841e-07 1.52836e-07 1.52839e-07 1.52855e-07 1.52898e-07 1.52977e-07);
    }
    inlet
    {
        type            calculated;
        value           uniform -0.00617756;
    }
    outlet
    {
        type            calculated;
        value           nonuniform List<scalar> 2(0.00754955 0.00294498);
    }
}


// ************************************************************************* //
