// -*- C++ -*-
// File generated by PyFoam - sorry for the ugliness

FoamFile
{
 version 2.0;
 format ascii;
 class volScalarField;
 location "720";
 object T;
}

dimensions [ 0 0 0 1 0 0 0 ];

internalField nonuniform List<scalar> 459
(
  300.303
  300.318
  300.324
  300.328
  300.332
  300.336
  300.341
  300.353
  300.375
  300.386
  300.392
  300.394
  300.393
  300.391
  300.38
  300.427
  300.457
  300.49
  300.505
  300.512
  300.517
  300.52
  300.522
  300.524
  300.525
  300.527
  300.529
  300.53
  300.532
  300.534
  300.535
  300.537
  300.536
  300.503
  300.314
  300.326
  300.331
  300.333
  300.333
  300.333
  300.337
  300.354
  300.385
  300.407
  300.421
  300.428
  300.428
  300.422
  300.407
  300.409
  300.414
  300.47
  300.485
  300.502
  300.518
  300.531
  300.541
  300.548
  300.554
  300.56
  300.566
  300.572
  300.577
  300.583
  300.587
  300.589
  300.587
  300.58
  300.568
  300.575
  300.318
  300.327
  300.329
  300.327
  300.323
  300.32
  300.324
  300.345
  300.384
  300.417
  300.44
  300.451
  300.453
  300.447
  300.434
  300.427
  300.422
  300.471
  300.486
  300.503
  300.523
  300.541
  300.555
  300.56
  300.566
  300.573
  300.58
  300.587
  300.595
  300.602
  300.609
  300.614
  300.613
  300.606
  300.593
  300.594
  300.319
  300.327
  300.327
  300.322
  300.315
  300.309
  300.311
  300.336
  300.381
  300.426
  300.46
  300.476
  300.479
  300.473
  300.459
  300.446
  300.435
  300.441
  300.457
  300.479
  300.509
  300.539
  300.564
  300.583
  300.599
  300.612
  300.625
  300.637
  300.65
  300.662
  300.675
  300.689
  300.701
  300.665
  300.638
  300.618
  300.61
  300.321
  300.327
  300.326
  300.321
  300.313
  300.302
  300.302
  300.326
  300.377
  300.436
  300.482
  300.505
  300.509
  300.501
  300.486
  300.471
  300.459
  300.465
  300.483
  300.512
  300.546
  300.579
  300.607
  300.629
  300.647
  300.663
  300.676
  300.688
  300.699
  300.709
  300.718
  300.726
  300.729
  300.703
  300.671
  300.649
  300.629
  300.634
  300.66
  300.743
  300.323
  300.326
  300.326
  300.321
  300.31
  300.297
  300.295
  300.319
  300.376
  300.449
  300.508
  300.539
  300.545
  300.535
  300.519
  300.504
  300.496
  300.509
  300.534
  300.568
  300.604
  300.636
  300.662
  300.682
  300.699
  300.711
  300.722
  300.731
  300.739
  300.746
  300.753
  300.757
  300.755
  300.733
  300.708
  300.696
  300.658
  300.65
  300.68
  300.734
  300.324
  300.326
  300.325
  300.319
  300.302
  300.289
  300.288
  300.315
  300.381
  300.468
  300.542
  300.58
  300.588
  300.576
  300.56
  300.55
  300.552
  300.574
  300.605
  300.64
  300.673
  300.701
  300.722
  300.738
  300.749
  300.756
  300.762
  300.768
  300.774
  300.778
  300.781
  300.781
  300.775
  300.761
  300.742
  300.721
  300.678
  300.665
  300.692
  300.733
  300.33
  300.326
  300.321
  300.301
  300.284
  300.275
  300.28
  300.315
  300.396
  300.501
  300.588
  300.631
  300.638
  300.628
  300.619
  300.618
  300.631
  300.659
  300.69
  300.72
  300.746
  300.767
  300.78
  300.787
  300.791
  300.794
  300.798
  300.8
  300.803
  300.804
  300.803
  300.799
  300.792
  300.78
  300.764
  300.74
  300.704
  300.681
  300.701
  300.737
  300.314
  300.317
  300.277
  300.259
  300.253
  300.256
  300.276
  300.329
  300.433
  300.558
  300.655
  300.69
  300.696
  300.695
  300.697
  300.705
  300.723
  300.748
  300.773
  300.793
  300.808
  300.817
  300.822
  300.824
  300.825
  300.825
  300.825
  300.825
  300.823
  300.821
  300.817
  300.811
  300.802
  300.79
  300.776
  300.757
  300.731
  300.706
  300.717
  300.745
  300.174
  300.199
  300.224
  300.256
  300.306
  300.393
  300.537
  300.669
  300.726
  300.747
  300.756
  300.762
  300.77
  300.781
  300.795
  300.812
  300.826
  300.836
  300.843
  300.846
  300.847
  300.847
  300.845
  300.843
  300.841
  300.838
  300.834
  300.829
  300.822
  300.814
  300.804
  300.792
  300.779
  300.764
  300.748
  300.733
  300.736
  300.745
  300.447
  300.449
  300.461
  300.485
  300.531
  300.6
  300.679
  300.74
  300.772
  300.788
  300.798
  300.806
  300.815
  300.824
  300.834
  300.843
  300.851
  300.856
  300.858
  300.858
  300.858
  300.856
  300.853
  300.85
  300.846
  300.841
  300.835
  300.828
  300.82
  300.81
  300.8
  300.788
  300.777
  300.766
  300.757
  300.749
  300.749
  300.75
  300.578
  300.574
  300.571
  300.592
  300.616
  300.645
  300.681
  300.721
  300.757
  300.783
  300.799
  300.808
  300.816
  300.823
  300.83
  300.836
  300.842
  300.846
  300.849
  300.85
  300.85
  300.848
  300.846
  300.843
  300.839
  300.835
  300.83
  300.824
  300.817
  300.809
  300.799
  300.789
  300.777
  300.766
  300.757
  300.75
  300.745
  300.742
  300.742
  300.74
)
;

boundaryField
{
  floor
  {
    type wallHeatTransfer;
    Tinf uniform 297.948;
    alphaWall uniform 0.24;
    value nonuniform List<scalar> 29
(
  299.922
  299.98
  300.045
  300.064
  300.063
  300.049
  300.031
  300.007
  299.982
  299.958
  299.936
  299.915
  299.895
  299.876
  299.858
  299.841
  299.821
  299.805
  299.805
  299.898
  299.898
  300.03
  300.093
  300.15
  299.922
  299.98
  300.114
  300.123
  300.005
)
;
  }
  ceiling
  {
    type wallHeatTransfer;
    Tinf uniform 297.948;
    alphaWall uniform 0.24;
    value nonuniform List<scalar> 43
(
  300.353
  300.361
  300.374
  300.405
  300.425
  300.446
  300.474
  300.505
  300.533
  300.553
  300.565
  300.572
  300.579
  300.586
  300.592
  300.599
  300.604
  300.608
  300.611
  300.612
  300.611
  300.609
  300.607
  300.604
  300.6
  300.596
  300.592
  300.587
  300.581
  300.575
  300.567
  300.558
  300.549
  300.539
  300.53
  300.521
  300.517
  300.517
  300.514
  300.487
  299.996
  300.046
  300.289
)
;
  }
  sWall
  {
    type wallHeatTransfer;
    Tinf uniform 300.167;
    alphaWall uniform 0.36;
    value uniform 300.527;
  }
  nWall
  {
    type wallHeatTransfer;
    Tinf uniform 299.15;
    alphaWall uniform 0.36;
    value nonuniform List<scalar> 6
(
  300.439
  300.489
  300.537
  300.581
  300.564
  300.533
)
;
  }
  sideWalls
  {
    type empty;
  }
  glass1
  {
    type wallHeatTransfer;
    Tinf uniform 300.167;
    alphaWall uniform 4.3;
    value nonuniform List<scalar> 9
(
  300.189
  300.192
  300.192
  300.193
  300.194
  300.196
  300.2
  300.206
  300.206
)
;
  }
  glass2
  {
    type wallHeatTransfer;
    Tinf uniform 299.15;
    alphaWall uniform 4.3;
    value nonuniform List<scalar> 2
(
  299.844
  299.884
)
;
  }
  sun
  {
    type wallHeatTransfer;
    Tinf uniform 297.948;
    alphaWall uniform 0.24;
    value nonuniform List<scalar> 14
(
  299.772
  299.84
  299.879
  299.905
  299.929
  299.953
  299.976
  300.002
  300.025
  300.027
  300.02
  300.003
  299.983
  299.958
)
;
  }
  heatsource1
  {
    type fixedGradient;
    gradient uniform 0;
  }
  heatsource2
  {
    type fixedGradient;
    gradient uniform 0;
  }
  Table_master
  {
    type zeroGradient;
  }
  Table_slave
  {
    type zeroGradient;
  }
  inlet
  {
    type fixedValue;
    value uniform 300.15;
  }
  outlet
  {
    type zeroGradient;
  }
} 	// ************************************************************************* //

