/*--------------------------------*- C++ -*----------------------------------*\
  =========                 |
  \\      /  F ield         | OpenFOAM: The Open Source CFD Toolbox
   \\    /   O peration     | Website:  https://openfoam.org
    \\  /    A nd           | Version:  6
     \\/     M anipulation  |
\*---------------------------------------------------------------------------*/
FoamFile
{
    version     2.0;
    format      ascii;
    class       volScalarField;
    location    "1000";
    object      nut;
}
// * * * * * * * * * * * * * * * * * * * * * * * * * * * * * * * * * * * * * //

dimensions      [0 2 -1 0 0 0 0];

internalField   nonuniform List<scalar> 
459
(
0.00106995
0.00116823
0.00118949
0.00124635
0.00129884
0.00134775
0.00139541
0.00144333
0.00147811
0.00149451
0.00148737
0.0014533
0.0013922
0.00130997
0.00122057
0.000471179
0.000579573
0.000648909
0.000640624
0.000616222
0.000585777
0.000549445
0.000513974
0.000481852
0.000453306
0.000427987
0.000405447
0.000385389
0.000367334
0.000350645
0.000334482
0.000317579
0.00030527
0.000277817
0.00145998
0.00354689
0.00339022
0.00394643
0.00449068
0.00503722
0.00552666
0.0058879
0.006217
0.00648779
0.00666125
0.00669068
0.00650548
0.00593316
0.00438314
0.00124055
0.000752539
0.000514677
0.00106485
0.00145284
0.00172107
0.00185507
0.00184213
0.00149933
0.00129954
0.00115505
0.00104336
0.000954044
0.000881061
0.000817379
0.000757825
0.000700148
0.000649206
0.000604777
0.000706218
0.000363547
0.00178533
0.00484682
0.00420435
0.00529767
0.00584327
0.00624689
0.00655839
0.00679661
0.00705516
0.00732744
0.00758253
0.00777182
0.00784201
0.00772143
0.00721851
0.00560941
0.00121426
0.00103936
0.00146859
0.00185359
0.00218345
0.00239665
0.00232163
0.000786331
0.000695441
0.000622386
0.000563366
0.000515217
0.000475523
0.000442548
0.000415169
0.000392887
0.000422246
0.000486562
0.000790297
0.000420129
0.00209835
0.00620983
0.00421093
0.0056197
0.00611948
0.00628885
0.00638566
0.00649398
0.00668961
0.00696048
0.00727801
0.00758077
0.0078148
0.00792725
0.00783485
0.00730687
0.00552065
0.00146906
0.00182084
0.00233254
0.0028028
0.00315517
0.00335656
0.00313517
0.000885232
0.00080653
0.000749993
0.000706826
0.000670184
0.000636756
0.000604745
0.000571264
0.000532506
0.000499423
0.000509008
0.000896326
0.000463832
0.00241805
0.00796465
0.00463387
0.0053951
0.00607053
0.00612895
0.00606563
0.00610033
0.0062718
0.00654307
0.0068996
0.00725636
0.00754095
0.00768807
0.00766936
0.00744053
0.00684407
0.00563211
0.00520288
0.00503521
0.0049498
0.0048845
0.00480579
0.00461345
0.00391125
0.00357402
0.00337835
0.00322703
0.00306648
0.00283236
0.00251551
0.0021295
0.0016984
0.00125858
0.000926317
0.000923753
0.000617679
0.000573861
0.000696036
0.000780411
0.00275713
0.00987567
0.00640361
0.00534102
0.00583829
0.00607198
0.00594308
0.00598662
0.00611911
0.00636305
0.0067158
0.00710459
0.00741955
0.00756699
0.00751372
0.00729345
0.00697819
0.00663145
0.00641471
0.00624629
0.00606946
0.00588509
0.00569609
0.00547771
0.00516737
0.00489163
0.0046461
0.004409
0.00416571
0.00389822
0.00355746
0.00312982
0.00261439
0.00203906
0.00152671
0.00113929
0.000857024
0.000729069
0.00104237
0.000812806
0.00306652
0.0112195
0.0090085
0.00690245
0.00650173
0.00646334
0.00627639
0.00613854
0.00616382
0.00639069
0.0067772
0.00721037
0.00754598
0.00767122
0.00755779
0.00728232
0.00700448
0.00685383
0.0068017
0.00669903
0.00649514
0.00622056
0.00590577
0.00556937
0.00522737
0.00491597
0.00463142
0.00436483
0.00411599
0.00389104
0.00368967
0.00340037
0.00299148
0.00249317
0.00201353
0.00158279
0.00126615
0.00116422
0.00118548
0.00091789
0.0031271
0.0100122
0.0088836
0.0081893
0.00762714
0.00695683
0.0063902
0.00612919
0.00621302
0.00658083
0.00710196
0.00760481
0.00791918
0.00794552
0.00770033
0.00732416
0.00703698
0.00694795
0.00690452
0.00666467
0.00627014
0.0058009
0.00532354
0.00488894
0.00452173
0.0042181
0.00396011
0.00373992
0.00356106
0.00343242
0.0033629
0.00332672
0.00310164
0.00277324
0.00248249
0.00232733
0.00240156
0.00276174
0.00341934
0.00144342
0.00304451
0.00361237
0.00401571
0.00412953
0.00420124
0.0043975
0.00481434
0.00547363
0.00630846
0.00717639
0.00791632
0.00837979
0.00845519
0.00815138
0.00762583
0.00717057
0.00690536
0.00667995
0.00635037
0.00585972
0.00527938
0.00470833
0.00421595
0.00382416
0.00351902
0.00327394
0.00306789
0.00289
0.00273408
0.00259369
0.00246154
0.00233838
0.00223947
0.00216616
0.00213866
0.00215071
0.00214505
0.00206718
0.00193707
0.00136194
0.00149876
0.00307221
0.00484404
0.00635478
0.00756662
0.00852868
0.00917258
0.00946653
0.00943294
0.00908035
0.0084398
0.007621
0.00685509
0.00632648
0.00591638
0.0054471
0.00489985
0.00433601
0.00382211
0.00340142
0.00307747
0.00282742
0.00262812
0.00246477
0.00233014
0.00222189
0.00213978
0.00208434
0.00205832
0.00205939
0.00207434
0.00210009
0.00212974
0.00214003
0.00209237
0.00197221
0.00179005
0.00113666
0.00198774
0.00506344
0.00755813
0.00850406
0.00901069
0.00921468
0.00907177
0.00862221
0.00795583
0.00717263
0.00639369
0.00569644
0.00511248
0.00460924
0.00412122
0.00366529
0.00328409
0.00298881
0.00276612
0.00259061
0.00244174
0.00230994
0.00219408
0.0020999
0.00202794
0.00197848
0.00195098
0.00194391
0.00196322
0.00200618
0.00206947
0.00214624
0.00222095
0.00227316
0.00225916
0.00228983
0.00234058
0.00115952
0.00177563
0.00188198
0.0019574
0.00210783
0.0020394
0.00195286
0.00189812
0.00182433
0.00171866
0.00158572
0.00143402
0.00127439
0.00111831
0.00098099
0.00087502
0.000799861
0.000747822
0.000711548
0.00068605
0.000668277
0.00065642
0.000649383
0.000646863
0.000649191
0.000656603
0.000668493
0.000685142
0.000706918
0.000734386
0.000768358
0.000807826
0.000852871
0.000904032
0.000961817
0.00102588
0.00110135
0.00112829
0.00110071
0.00103453
0.000965435
)
;

boundaryField
{
    floor
    {
        type            nutkWallFunction;
        Cmu             0.09;
        kappa           0.41;
        E               9.8;
        value           nonuniform List<scalar> 
29
(
0.000146379
5.60097e-05
6.97847e-05
7.84273e-05
7.74004e-05
7.43672e-05
7.05623e-05
6.59899e-05
6.149e-05
5.73819e-05
5.37022e-05
5.04143e-05
4.74664e-05
4.48256e-05
4.24335e-05
4.02088e-05
3.80411e-05
3.57597e-05
3.40882e-05
3.03276e-05
3.03276e-05
4.19297e-05
4.93888e-05
5.50623e-05
0.000146379
5.60096e-05
6.15803e-05
0.000125348
0.000174661
)
;
    }
    ceiling
    {
        type            nutkWallFunction;
        Cmu             0.09;
        kappa           0.41;
        E               9.8;
        value           nonuniform List<scalar> 
43
(
0.000208699
0.000220383
0.000228628
0.000245069
0.000237685
0.000228273
0.000222294
0.000214198
0.000202537
0.000187751
0.000170708
0.000152555
0.000134558
0.000118486
0.000105906
9.68774e-05
9.05677e-05
8.61389e-05
8.30098e-05
8.08207e-05
7.93564e-05
7.84859e-05
7.81739e-05
7.84624e-05
7.93796e-05
8.08482e-05
8.28992e-05
8.55729e-05
8.89314e-05
9.30648e-05
9.784e-05
0.000103256
0.000109368
0.000116223
0.000123768
0.000132588
0.000135719
0.000132513
0.000124782
0.000116651
0.000344782
0.000403488
0.00023181
)
;
    }
    sWall
    {
        type            nutkWallFunction;
        Cmu             0.09;
        kappa           0.41;
        E               9.8;
        value           uniform 0.000208756;
    }
    nWall
    {
        type            nutkWallFunction;
        Cmu             0.09;
        kappa           0.41;
        E               9.8;
        value           nonuniform List<scalar> 6(9.45261e-05 9.84413e-05 0.000111019 0.0001367 0.000139349 0.000116657);
    }
    sideWalls
    {
        type            empty;
    }
    glass1
    {
        type            nutkWallFunction;
        Cmu             0.09;
        kappa           0.41;
        E               9.8;
        value           nonuniform List<scalar> 9(0.000129025 0.000173855 0.00021021 0.000244506 0.000278971 0.000315002 0.000347476 0.000353803 0.000345203);
    }
    glass2
    {
        type            nutkWallFunction;
        Cmu             0.09;
        kappa           0.41;
        E               9.8;
        value           nonuniform List<scalar> 2(0.000171839 0.000162605);
    }
    sun
    {
        type            nutkWallFunction;
        Cmu             0.09;
        kappa           0.41;
        E               9.8;
        value           nonuniform List<scalar> 
14
(
0.000128927
0.000140343
0.000142798
0.000149341
0.000155351
0.000160927
0.000166338
0.000171759
0.000175682
0.000177526
0.000176723
0.000172884
0.000165974
0.000156622
)
;
    }
    heatsource1
    {
        type            nutkWallFunction;
        Cmu             0.09;
        kappa           0.41;
        E               9.8;
        value           nonuniform List<scalar> 3(6.90694e-05 8.42385e-05 9.45261e-05);
    }
    heatsource2
    {
        type            nutkWallFunction;
        Cmu             0.09;
        kappa           0.41;
        E               9.8;
        value           nonuniform List<scalar> 4(0.000148671 9.11448e-05 9.11448e-05 0.000145647);
    }
    Table_master
    {
        type            nutkWallFunction;
        Cmu             0.09;
        kappa           0.41;
        E               9.8;
        value           nonuniform List<scalar> 9(9.52414e-05 8.4165e-05 7.51368e-05 6.77496e-05 6.16529e-05 5.65739e-05 5.23145e-05 4.87477e-05 4.58229e-05);
    }
    Table_slave
    {
        type            nutkWallFunction;
        Cmu             0.09;
        kappa           0.41;
        E               9.8;
        value           nonuniform List<scalar> 9(0.000107124 9.76819e-05 9.08322e-05 8.55614e-05 8.1057e-05 7.6922e-05 7.29377e-05 6.87428e-05 6.38491e-05);
    }
    inlet
    {
        type            calculated;
        value           uniform 0.000100623;
    }
    outlet
    {
        type            calculated;
        value           nonuniform List<scalar> 2(0.00177563 0.00188198);
    }
}


// ************************************************************************* //
