/*--------------------------------*- C++ -*----------------------------------*\
  =========                 |
  \\      /  F ield         | OpenFOAM: The Open Source CFD Toolbox
   \\    /   O peration     | Website:  https://openfoam.org
    \\  /    A nd           | Version:  6
     \\/     M anipulation  |
\*---------------------------------------------------------------------------*/
FoamFile
{
    version     2.0;
    format      ascii;
    class       volScalarField;
    location    "200";
    object      epsilon;
}
// * * * * * * * * * * * * * * * * * * * * * * * * * * * * * * * * * * * * * //

dimensions      [0 2 -3 0 0 0 0];

internalField   nonuniform List<scalar> 
459
(
0.000140564
0.000151131
0.000113459
0.000126411
0.00014186
0.0001576
0.000173486
0.000189808
0.000207228
0.00022597
0.000242317
0.000254696
0.000261837
0.000262981
0.000254933
1.9083e-05
2.55049e-05
2.68197e-05
1.33861e-05
6.17504e-06
4.62961e-06
4.23749e-06
3.98043e-06
4.68709e-06
6.14152e-06
8.29803e-06
1.09309e-05
1.37541e-05
1.64602e-05
2.19489e-05
3.11219e-05
3.88836e-05
3.622e-05
2.51954e-05
0.000718553
0.00166392
0.000155808
9.88061e-05
0.000101833
0.000108351
0.000115952
0.000125417
0.000137773
0.000153642
0.000171584
0.000190706
0.000209221
0.00022431
0.000240381
0.000316328
0.000102416
4.14455e-05
8.67052e-05
6.35375e-05
3.44113e-05
1.83194e-05
1.11298e-05
6.87735e-06
5.64603e-06
7.77595e-06
1.20593e-05
1.83228e-05
2.59127e-05
3.52898e-05
4.81771e-05
6.27523e-05
6.99702e-05
7.85492e-05
0.000102699
4.98716e-05
0.00183132
0.0055398
0.000387582
0.000114211
0.000103193
0.00010891
0.000117652
0.000128975
0.00014314
0.000160137
0.000178545
0.000197081
0.000214961
0.000232169
0.000252098
0.000289424
0.000383394
0.000232588
0.000194055
9.51982e-05
7.09575e-05
6.33553e-05
6.16705e-05
1.48701e-05
9.69936e-06
1.40926e-05
1.98745e-05
2.73838e-05
3.75217e-05
5.20395e-05
7.4766e-05
0.000114056
9.31097e-05
0.000106296
0.000124369
0.000114572
0.00358127
0.0120494
0.000920385
0.000151057
0.000111283
0.000116445
0.000127318
0.000141169
0.000157839
0.000177132
0.000196591
0.000213774
0.000228916
0.000243974
0.000262817
0.000295247
0.000365121
0.000501469
0.000220182
0.000117446
8.7885e-05
8.08812e-05
8.49691e-05
0.000100395
0.000139476
0.000139421
0.00014133
0.000143905
0.00014743
0.000153043
0.000163205
0.000183521
0.000223315
0.000177754
0.000218606
0.000311175
0.000402899
0.00593714
0.0204451
0.00192338
0.000219393
0.000122873
0.000126815
0.000142394
0.000162994
0.000187993
0.000216471
0.000241621
0.00025959
0.00027247
0.000282327
0.000287361
0.000282468
0.000262869
0.000218752
0.000144417
0.000105334
8.6672e-05
8.00274e-05
8.00496e-05
8.42214e-05
9.10476e-05
9.7869e-05
0.000106941
0.000118978
0.000135024
0.000157054
0.000188276
0.000232919
0.000294252
0.000361431
0.00047108
0.000576102
0.000647386
0.00100807
0.000720668
0.00048328
0.00887194
0.0279488
0.00358321
0.000379317
0.000155231
0.000150295
0.000171999
0.00020414
0.000245333
0.000292783
0.000322243
0.000335028
0.000341168
0.00034747
0.000352357
0.00034559
0.000314353
0.000257853
0.000194784
0.000147044
0.000117922
0.000103499
9.85231e-05
9.96465e-05
0.00010502
0.000114346
0.000128664
0.000148971
0.000177026
0.000216247
0.000272242
0.000352223
0.000462862
0.000606852
0.000787965
0.000990452
0.00111008
0.00101686
0.000625147
0.000568754
0.0123681
0.0311454
0.0067928
0.00117999
0.000390874
0.000278327
0.000286764
0.000328946
0.000395566
0.000455801
0.000462541
0.00044458
0.000422824
0.000408968
0.000404071
0.000397017
0.000369842
0.00031795
0.000255753
0.00020092
0.000161838
0.000138203
0.000126503
0.00012361
0.000127874
0.00013962
0.000160237
0.000191153
0.000234073
0.000291724
0.000368724
0.000471
0.00060297
0.000761976
0.000931617
0.00107105
0.0011095
0.00101633
0.00080984
0.000527023
0.0133601
0.0407337
0.0171074
0.0072373
0.00284692
0.00132011
0.000936441
0.000847984
0.000853831
0.000782144
0.000687854
0.000597594
0.000522296
0.000466464
0.00043128
0.000411366
0.00038848
0.000348469
0.000297015
0.000245929
0.000204114
0.000174664
0.000156985
0.000149499
0.000151497
0.000164335
0.000191083
0.000235194
0.000300234
0.000387998
0.000496367
0.000617195
0.000737684
0.00084994
0.000954663
0.00106319
0.00119187
0.00133581
0.00145524
0.000972965
0.0122209
0.0212166
0.0169103
0.0115966
0.00743306
0.00466681
0.00303097
0.00211812
0.00155434
0.00117841
0.000920859
0.000738938
0.000606978
0.000510209
0.000440482
0.000392211
0.000357815
0.000326749
0.000293139
0.000257656
0.000224439
0.000197225
0.000177931
0.000167137
0.000165278
0.000174144
0.000198203
0.000240705
0.000307526
0.000402141
0.000525416
0.000679992
0.000867421
0.00109725
0.00137604
0.00164243
0.00178419
0.00209135
0.00313341
0.00141342
0.00993573
0.0105938
0.00685058
0.00453291
0.00309832
0.00219786
0.00161518
0.00122332
0.000950322
0.00075484
0.000610979
0.000502559
0.00041964
0.0003562
0.000308172
0.000271737
0.00024319
0.000219666
0.000199756
0.000183362
0.000171113
0.000163878
0.000162659
0.000168949
0.000185286
0.000214818
0.000262026
0.00033083
0.000423783
0.000536142
0.000658261
0.000780124
0.000888548
0.000961286
0.000963439
0.000896735
0.00150154
0.00134195
0.00730547
0.00821718
0.00531759
0.00370206
0.0026549
0.00195207
0.00147142
0.00113606
0.000897182
0.000721246
0.000587475
0.000482849
0.000399253
0.000331728
0.000277257
0.000233855
0.000199962
0.000174157
0.000155153
0.000141905
0.000133722
0.000130313
0.000131811
0.000138896
0.000153121
0.00017716
0.000214537
0.000269072
0.000341953
0.000426738
0.00050996
0.000576622
0.000613713
0.00061007
0.000569787
0.000547099
0.00106499
0.000912283
0.00244286
0.00345113
0.00474654
0.00520468
0.00368651
0.00286092
0.00226441
0.00181408
0.00146683
0.00119453
0.000987571
0.000822919
0.000688263
0.000576487
0.000483208
0.000405521
0.000341308
0.000288825
0.000246492
0.000212812
0.000186414
0.000166119
0.00015102
0.000140526
0.00013439
0.000132749
0.000136255
0.000146283
0.000165101
0.000199894
0.000257781
0.000338697
0.000430052
0.000509608
0.000556256
0.00055675
0.000529838
0.000490957
0.000490667
0.000416368
)
;

boundaryField
{
    floor
    {
        Cmu             0.09;
        kappa           0.41;
        E               9.8;
        type            epsilonWallFunction;
        value           nonuniform List<scalar> 
29
(
0.000254933
1.9083e-05
2.55049e-05
2.68197e-05
1.33861e-05
6.17504e-06
4.62961e-06
4.23749e-06
3.98043e-06
4.68709e-06
6.14152e-06
8.29803e-06
1.09309e-05
1.37541e-05
1.64602e-05
2.19489e-05
3.11219e-05
3.88836e-05
3.622e-05
2.51954e-05
2.51954e-05
4.98716e-05
0.000114572
0.000402899
0.000254933
1.9083e-05
4.14455e-05
0.000232588
0.000501469
)
;
    }
    ceiling
    {
        Cmu             0.09;
        kappa           0.41;
        E               9.8;
        type            epsilonWallFunction;
        value           nonuniform List<scalar> 
43
(
0.00244286
0.00345113
0.00474654
0.00520468
0.00368651
0.00286092
0.00226441
0.00181408
0.00146683
0.00119453
0.000987571
0.000822919
0.000688263
0.000576487
0.000483208
0.000405521
0.000341308
0.000288825
0.000246492
0.000212812
0.000186414
0.000166119
0.00015102
0.000140526
0.00013439
0.000132749
0.000136255
0.000146283
0.000165101
0.000199894
0.000257781
0.000338697
0.000430052
0.000509608
0.000556256
0.00055675
0.000529838
0.000490957
0.000490667
0.000416368
0.0122209
0.0212166
0.00730547
)
;
    }
    sWall
    {
        Cmu             0.09;
        kappa           0.41;
        E               9.8;
        type            epsilonWallFunction;
        value           uniform 0.00244286;
    }
    nWall
    {
        Cmu             0.09;
        kappa           0.41;
        E               9.8;
        type            epsilonWallFunction;
        value           nonuniform List<scalar> 6(0.00048328 0.000568754 0.000527023 0.00134195 0.000912283 0.000416368);
    }
    sideWalls
    {
        type            empty;
    }
    glass1
    {
        Cmu             0.09;
        kappa           0.41;
        E               9.8;
        type            epsilonWallFunction;
        value           nonuniform List<scalar> 9(0.000140564 0.000718553 0.00183132 0.00358127 0.00593714 0.00887194 0.0123681 0.0133601 0.0122209);
    }
    glass2
    {
        Cmu             0.09;
        kappa           0.41;
        E               9.8;
        type            epsilonWallFunction;
        value           nonuniform List<scalar> 2(0.000972965 0.00141342);
    }
    sun
    {
        Cmu             0.09;
        kappa           0.41;
        E               9.8;
        type            epsilonWallFunction;
        value           nonuniform List<scalar> 
14
(
0.000140564
0.000151131
0.000113459
0.000126411
0.00014186
0.0001576
0.000173486
0.000189808
0.000207228
0.00022597
0.000242317
0.000254696
0.000261837
0.000262981
)
;
    }
    heatsource1
    {
        Cmu             0.09;
        kappa           0.41;
        E               9.8;
        type            epsilonWallFunction;
        value           nonuniform List<scalar> 3(0.00100807 0.000720668 0.00048328);
    }
    heatsource2
    {
        Cmu             0.09;
        kappa           0.41;
        E               9.8;
        type            epsilonWallFunction;
        value           nonuniform List<scalar> 4(0.000316328 0.000102416 0.000102416 0.000383394);
    }
    Table_master
    {
        Cmu             0.09;
        kappa           0.41;
        E               9.8;
        type            epsilonWallFunction;
        value           nonuniform List<scalar> 9(1.48701e-05 9.69936e-06 1.40926e-05 1.98745e-05 2.73838e-05 3.75217e-05 5.20395e-05 7.4766e-05 0.000114056);
    }
    Table_slave
    {
        Cmu             0.09;
        kappa           0.41;
        E               9.8;
        type            epsilonWallFunction;
        value           nonuniform List<scalar> 9(0.000139476 0.000139421 0.00014133 0.000143905 0.00014743 0.000153043 0.000163205 0.000183521 0.000223315);
    }
    inlet
    {
        type            turbulentMixingLengthDissipationRateInlet;
        mixingLength    0.01;
        phi             phi;
        k               k;
        value           uniform 3.77337e-06;
    }
    outlet
    {
        type            zeroGradient;
    }
}


// ************************************************************************* //
