/*--------------------------------*- C++ -*----------------------------------*\
  =========                 |
  \\      /  F ield         | OpenFOAM: The Open Source CFD Toolbox
   \\    /   O peration     | Website:  https://openfoam.org
    \\  /    A nd           | Version:  6
     \\/     M anipulation  |
\*---------------------------------------------------------------------------*/
FoamFile
{
    version     2.0;
    format      ascii;
    class       volScalarField;
    location    "530";
    object      epsilon;
}
// * * * * * * * * * * * * * * * * * * * * * * * * * * * * * * * * * * * * * //

dimensions      [0 2 -3 0 0 0 0];

internalField   nonuniform List<scalar> 
459
(
9.73309e-05
0.000134876
0.000156203
0.00018533
0.000216628
0.000252598
0.00029269
0.000330705
0.000359889
0.000369956
0.000340266
0.000265616
0.000193853
0.000131163
8.63869e-05
2.15541e-05
5.89963e-05
7.22358e-05
7.64718e-05
7.53237e-05
6.97395e-05
5.92884e-05
4.91636e-05
4.08496e-05
3.42273e-05
2.89427e-05
2.47299e-05
2.1308e-05
1.84568e-05
1.59932e-05
1.37456e-05
1.15302e-05
8.61134e-06
6.13517e-06
0.000189492
0.00022876
0.000122834
0.000126007
0.000136665
0.00015629
0.000185076
0.000216809
0.00024227
0.000251845
0.000236413
0.000193482
0.000151874
0.00011826
8.86818e-05
0.000143891
7.93598e-05
7.42415e-05
0.000141318
8.09627e-05
6.60272e-05
5.811e-05
5.29342e-05
5.38411e-05
4.52123e-05
3.67424e-05
2.97489e-05
2.41808e-05
1.98225e-05
1.64053e-05
1.3712e-05
1.17178e-05
1.07074e-05
1.14967e-05
9.4498e-06
1.06131e-05
0.000301131
0.000424206
0.000122286
0.000111354
0.000122424
0.000145541
0.000178813
0.000214095
0.000243286
0.000258806
0.000249876
0.000214894
0.000174537
0.000138225
0.000105612
0.0001006
0.000128822
9.33289e-05
9.90333e-05
8.0143e-05
6.95872e-05
6.18365e-05
6.05227e-05
0.00014316
9.64223e-05
6.74153e-05
4.90313e-05
3.699e-05
2.88608e-05
2.32483e-05
1.93523e-05
1.67927e-05
1.30312e-05
1.24277e-05
1.12972e-05
1.36526e-05
0.000441643
0.000773854
0.000146845
0.000104385
0.000115099
0.000143834
0.000185405
0.000223696
0.000256942
0.000278769
0.000272879
0.000238635
0.000194487
0.000155043
0.000122916
0.000105427
0.000105977
0.000186981
0.000134113
0.000103867
8.81207e-05
7.75863e-05
6.93022e-05
6.87957e-05
0.000188804
0.000143166
0.000116604
9.94316e-05
8.6782e-05
7.5785e-05
6.59441e-05
5.65179e-05
4.65993e-05
2.74007e-05
1.85766e-05
1.83093e-05
1.90178e-05
0.000627538
0.00133734
0.00023051
0.000107997
0.000115
0.000161034
0.000216621
0.000255565
0.000292572
0.000317803
0.000309452
0.000266769
0.000209938
0.000160542
0.000125871
0.000106248
0.00010453
0.000113818
0.000109869
0.00010535
9.90062e-05
9.03475e-05
8.0435e-05
7.194e-05
7.27656e-05
6.92278e-05
6.56292e-05
6.191e-05
5.76635e-05
5.2579e-05
4.68418e-05
4.09001e-05
3.51231e-05
2.77465e-05
2.11541e-05
2.23515e-05
2.10893e-05
2.84894e-05
2.94074e-05
3.07502e-05
0.000886427
0.00205736
0.000481261
0.000162477
0.000142638
0.000233221
0.000286393
0.000318296
0.000354873
0.000380573
0.000365199
0.00030523
0.000227346
0.000161976
0.000121081
0.000103693
0.000105464
0.000115713
0.00012226
0.000122332
0.000116345
0.000105822
9.31769e-05
8.13532e-05
7.40682e-05
7.06635e-05
6.88211e-05
6.66668e-05
6.34609e-05
5.88894e-05
5.27323e-05
4.53484e-05
3.81511e-05
3.16337e-05
2.57707e-05
2.4466e-05
2.47054e-05
2.7713e-05
0.000109275
7.37209e-05
0.00119884
0.00259419
0.00107597
0.000477569
0.000372733
0.000411595
0.000410451
0.000420185
0.000453276
0.000476035
0.000444748
0.000357222
0.000250304
0.000166517
0.000120758
0.000108022
0.000116053
0.000131075
0.000140394
0.000140265
0.000132331
0.000119651
0.000105675
9.37388e-05
8.6642e-05
8.40823e-05
8.28854e-05
8.11197e-05
7.84121e-05
7.50009e-05
7.09722e-05
6.499e-05
5.77193e-05
5.15474e-05
4.71655e-05
4.55883e-05
4.66445e-05
5.34383e-05
0.000165969
0.000127114
0.00129946
0.00328213
0.00179851
0.00119719
0.000920086
0.000709871
0.000592802
0.00056962
0.000601518
0.000615262
0.000550803
0.0004194
0.000274933
0.000176748
0.000134533
0.000129815
0.000141667
0.00015649
0.000162929
0.000159474
0.000149612
0.000137394
0.00012633
0.000118505
0.000114424
0.000112596
0.000110626
0.000107406
0.000103591
0.000101087
0.000101947
0.000107168
0.000113829
0.000122529
0.000141776
0.000172829
0.000224309
0.00028319
0.00103639
0.000286982
0.00124462
0.00209259
0.00159105
0.00119891
0.000923515
0.000749353
0.000698527
0.000749051
0.000820239
0.000809453
0.000669339
0.000470221
0.000289023
0.000211841
0.000188124
0.000187579
0.000196558
0.000205409
0.000207733
0.000203423
0.000197154
0.000191252
0.000187532
0.000185674
0.000184535
0.000182028
0.00017582
0.00016501
0.000151312
0.000139221
0.000134124
0.000139919
0.000158097
0.000188331
0.000233163
0.000296488
0.000378835
0.000476998
0.000583481
0.000327904
0.000300326
0.000444192
0.000607865
0.000813579
0.0010548
0.0012301
0.0012356
0.00103415
0.000679714
0.000460795
0.000373549
0.00034869
0.000345711
0.000351877
0.000360773
0.000368785
0.000374357
0.000377983
0.000380873
0.000385638
0.000392709
0.000397802
0.000399327
0.000394532
0.000378877
0.000348697
0.000304329
0.00025342
0.000208728
0.000184062
0.000176155
0.000187281
0.000218389
0.000269352
0.000334097
0.000396117
0.000446945
0.000410288
0.000409869
0.00327879
0.00356812
0.00353574
0.00304954
0.00253226
0.00199809
0.00151069
0.001129
0.000916864
0.000829035
0.000804425
0.000806624
0.000822374
0.000847791
0.000880297
0.000915423
0.000949622
0.000981576
0.00101011
0.0010337
0.00105323
0.00106977
0.00108028
0.00107391
0.00103728
0.000961564
0.000852478
0.000725576
0.000594823
0.000482586
0.000400162
0.000352742
0.000336711
0.000340711
0.000356757
0.000740412
0.000535999
0.000869439
0.00100635
0.00116191
0.0018958
0.00182217
0.00159339
0.00136723
0.00121034
0.00106735
0.000924478
0.00079857
0.000713444
0.000667953
0.000647628
0.000641177
0.00064158
0.000644036
0.00064545
0.000644608
0.000641666
0.000637136
0.000631526
0.000625435
0.000619244
0.000610443
0.00059507
0.000570439
0.000536152
0.000496232
0.000454851
0.000415182
0.000381871
0.000356166
0.000339319
0.000331439
0.000330644
0.000330561
0.000316946
0.000311475
0.000292535
)
;

boundaryField
{
    floor
    {
        Cmu             0.09;
        kappa           0.41;
        E               9.8;
        type            epsilonWallFunction;
        value           nonuniform List<scalar> 
29
(
8.63869e-05
2.15541e-05
5.89963e-05
7.22358e-05
7.64718e-05
7.53237e-05
6.97395e-05
5.92884e-05
4.91636e-05
4.08496e-05
3.42273e-05
2.89427e-05
2.47299e-05
2.1308e-05
1.84568e-05
1.59932e-05
1.37456e-05
1.15302e-05
8.61134e-06
6.13517e-06
6.13517e-06
1.06131e-05
1.36526e-05
1.90178e-05
8.63869e-05
2.15541e-05
7.42415e-05
9.33289e-05
0.000186981
)
;
    }
    ceiling
    {
        Cmu             0.09;
        kappa           0.41;
        E               9.8;
        type            epsilonWallFunction;
        value           nonuniform List<scalar> 
43
(
0.000869439
0.00100635
0.00116191
0.0018958
0.00182217
0.00159339
0.00136723
0.00121034
0.00106735
0.000924478
0.00079857
0.000713444
0.000667953
0.000647628
0.000641177
0.00064158
0.000644036
0.00064545
0.000644608
0.000641666
0.000637136
0.000631526
0.000625435
0.000619244
0.000610443
0.00059507
0.000570439
0.000536152
0.000496232
0.000454851
0.000415182
0.000381871
0.000356166
0.000339319
0.000331439
0.000330644
0.000330561
0.000316946
0.000311475
0.000292535
0.00124462
0.00209259
0.000409869
)
;
    }
    sWall
    {
        Cmu             0.09;
        kappa           0.41;
        E               9.8;
        type            epsilonWallFunction;
        value           uniform 0.000869439;
    }
    nWall
    {
        Cmu             0.09;
        kappa           0.41;
        E               9.8;
        type            epsilonWallFunction;
        value           nonuniform List<scalar> 6(3.07502e-05 7.37209e-05 0.000127114 0.000410288 0.000535999 0.000292535);
    }
    sideWalls
    {
        type            empty;
    }
    glass1
    {
        Cmu             0.09;
        kappa           0.41;
        E               9.8;
        type            epsilonWallFunction;
        value           nonuniform List<scalar> 9(9.73309e-05 0.000189492 0.000301131 0.000441643 0.000627538 0.000886427 0.00119884 0.00129946 0.00124462);
    }
    glass2
    {
        Cmu             0.09;
        kappa           0.41;
        E               9.8;
        type            epsilonWallFunction;
        value           nonuniform List<scalar> 2(0.000286982 0.000327904);
    }
    sun
    {
        Cmu             0.09;
        kappa           0.41;
        E               9.8;
        type            epsilonWallFunction;
        value           nonuniform List<scalar> 
14
(
9.73309e-05
0.000134876
0.000156203
0.00018533
0.000216628
0.000252598
0.00029269
0.000330705
0.000359889
0.000369956
0.000340266
0.000265616
0.000193853
0.000131163
)
;
    }
    heatsource1
    {
        Cmu             0.09;
        kappa           0.41;
        E               9.8;
        type            epsilonWallFunction;
        value           nonuniform List<scalar> 3(2.84894e-05 2.94074e-05 3.07502e-05);
    }
    heatsource2
    {
        Cmu             0.09;
        kappa           0.41;
        E               9.8;
        type            epsilonWallFunction;
        value           nonuniform List<scalar> 4(0.000143891 7.93598e-05 7.93598e-05 0.000128822);
    }
    Table_master
    {
        Cmu             0.09;
        kappa           0.41;
        E               9.8;
        type            epsilonWallFunction;
        value           nonuniform List<scalar> 9(0.00014316 9.64223e-05 6.74153e-05 4.90313e-05 3.699e-05 2.88608e-05 2.32483e-05 1.93523e-05 1.67927e-05);
    }
    Table_slave
    {
        Cmu             0.09;
        kappa           0.41;
        E               9.8;
        type            epsilonWallFunction;
        value           nonuniform List<scalar> 9(0.000188804 0.000143166 0.000116604 9.94316e-05 8.6782e-05 7.5785e-05 6.59441e-05 5.65179e-05 4.65993e-05);
    }
    inlet
    {
        type            turbulentMixingLengthDissipationRateInlet;
        mixingLength    0.01;
        phi             phi;
        k               k;
        value           uniform 0.000101881;
    }
    outlet
    {
        type            zeroGradient;
    }
}


// ************************************************************************* //
