/*--------------------------------*- C++ -*----------------------------------*\
  =========                 |
  \\      /  F ield         | OpenFOAM: The Open Source CFD Toolbox
   \\    /   O peration     | Website:  https://openfoam.org
    \\  /    A nd           | Version:  6
     \\/     M anipulation  |
\*---------------------------------------------------------------------------*/
FoamFile
{
    version     2.0;
    format      ascii;
    class       surfaceScalarField;
    location    "1800";
    object      phi;
}
// * * * * * * * * * * * * * * * * * * * * * * * * * * * * * * * * * * * * * //

dimensions      [1 0 -1 0 0 0 0];

internalField   nonuniform List<scalar> 
852
(
-0.00300791
0.00306273
-0.00416312
0.00115516
-0.00499929
0.000836109
-0.00560039
0.000601048
-0.00593404
0.000333586
-0.0059727
3.86072e-05
-0.00569239
-0.000280364
-0.00509971
-0.000592738
-0.00425561
-0.000844156
-0.00326182
-0.000993849
-0.00223238
-0.00102949
-0.00128089
-0.000951538
-0.000517796
-0.000763151
-6.34038e-05
-0.000454445
-6.19565e-05
-0.000824361
0.00082651
-0.000642403
-0.000182007
-5.38034e-05
-0.000588648
0.000514856
-0.000568708
0.000945807
-0.000431
0.001249
-0.000303241
0.00142693
-0.000177975
0.00151631
-8.94315e-05
0.00156934
-5.30833e-05
0.00160568
-3.63832e-05
0.00163035
-2.47231e-05
0.00164527
-1.49631e-05
0.00164858
-3.36309e-06
0.00163101
1.75212e-05
0.00156788
6.30827e-05
0.00141652
0.000151307
0.00115012
0.000266351
0.00076891
0.000381167
0.000771648
-0.00215227
0.00536343
-0.00323137
0.00223419
-0.00407137
0.00167605
-0.00466218
0.0011918
-0.004993
0.000664348
-0.00503971
8.52675e-05
-0.00477913
-0.000541
-0.00423245
-0.00113948
-0.0034764
-0.00160027
-0.00261603
-0.00185427
-0.00175117
-0.0018944
-0.000969705
-0.00173306
-0.000334873
-0.00139804
0.0001135
-0.000902869
0.000430059
-0.000378566
0.000383707
4.62485e-05
0.000383598
0.000101994
0.000730984
0.000554219
-0.00063428
0.000893286
-0.000927764
0.00116947
-0.00084494
0.00139831
-0.000659884
0.001557
-0.000461983
0.00159136
-0.000212381
0.00159959
-9.77056e-05
0.00160867
-6.22088e-05
0.00161613
-4.38997e-05
0.00162111
-2.97453e-05
0.00162414
-1.80419e-05
0.00162459
-3.86353e-06
0.00161852
2.35425e-05
0.00157638
0.000105178
0.00139869
0.000328947
0.00108376
0.000581234
0.000665342
0.000799538
0.00144447
-0.00150294
0.00709431
-0.00240548
0.00313668
-0.00314036
0.00241088
-0.00364425
0.00169563
-0.00392438
0.000944423
-0.00394209
0.000102922
-0.00365687
-0.000826272
-0.00311706
-0.00167935
-0.00242489
-0.0022925
-0.00168689
-0.00259233
-0.000977842
-0.00260351
-0.000355147
-0.00235581
0.000156532
-0.00190977
0.000554333
-0.00130072
0.000814364
-0.000638646
0.000799268
6.12943e-05
0.00118281
0.0014777
-0.000739168
0.00174659
-0.000903215
0.00176452
-0.000945737
0.00178639
-0.000866862
0.00183042
-0.000703959
0.00190752
-0.000539124
0.00169525
0.00159765
0.00153554
0.00149175
0.00146211
0.00144418
0.00144042
0.00146407
0.00156935
0.00131133
0.000586916
0.000989195
0.000903324
0.000564344
0.00122434
0.00202052
-0.00103919
0.00842975
-0.00172688
0.00382431
-0.00220633
0.00289027
-0.00252898
0.00201823
-0.0026842
0.00109958
-0.00258764
6.31221e-06
-0.00221026
-0.00120371
-0.00166641
-0.00222326
-0.0010668
-0.00289216
-0.000493555
-0.00316564
1.79614e-05
-0.00311508
0.000447682
-0.00278558
0.000801444
-0.00226358
0.0011187
-0.00161802
0.00141326
-0.000933253
0.00176088
-0.000286377
0.00274454
0.000199106
0.0028748
-0.000123709
0.00261523
-0.000479638
0.00242769
-0.000715731
0.00223032
-0.00074841
0.00205638
-0.000692962
0.00192747
-0.000575097
0.00178912
-0.000400821
0.00193757
-0.000148643
0.00199308
-5.56965e-05
0.00201468
-2.17965e-05
0.00201275
1.73887e-06
0.00198184
3.07122e-05
0.001911
7.06527e-05
0.00178206
0.000128752
0.00156498
0.00021689
0.00120433
0.000360457
0.00108139
0.000709815
0.000826027
0.00115865
0.000449244
0.00160108
0.0024853
-0.000717538
0.0095019
-0.00121118
0.00431789
-0.00129578
0.00297482
-0.0013261
0.00204849
-0.00122374
0.000997167
-0.000885275
-0.000332209
-0.000392673
-0.00169637
0.000108695
-0.00272469
0.000536243
-0.00331977
0.000869268
-0.00349872
0.00111101
-0.00335688
0.00129042
-0.00296503
0.00143408
-0.00240728
0.0015771
-0.00176109
0.00175342
-0.00110962
0.00201087
-0.000543869
0.00238407
-0.000174132
0.00245712
-0.000196811
0.00235169
-0.00037425
0.00214291
-0.000506997
0.00192787
-0.000533415
0.0017284
-0.000493534
0.00156151
-0.000408251
0.00144406
-0.000283412
0.00143514
-0.000139752
0.0014347
-5.52952e-05
0.00143103
-1.81622e-05
0.0014261
6.63361e-06
0.00141625
4.05227e-05
0.00139118
9.56852e-05
0.00133762
0.000182285
0.00124273
0.000311745
0.00110347
0.000499682
0.000995095
0.000818149
0.000890304
0.0012634
0.000656033
0.00183531
0.000700444
0.00244085
-0.000897273
0.00159748
-0.0013691
0.000471586
-0.00132541
-0.000612006
0.0105179
-0.000918503
0.00462433
-0.000456367
0.00251262
-1.23258e-05
0.0016044
0.000527144
0.000457643
0.00118057
-0.000985685
0.00171807
-0.00223393
0.00206437
-0.00307106
0.00222987
-0.00348532
0.00226068
-0.0035296
0.00218957
-0.00328583
0.0020623
-0.0028378
0.0019235
-0.00226854
0.00181226
-0.0016499
0.00175814
-0.00105554
0.00177829
-0.000564056
0.00185341
-0.000249291
0.00183162
-0.000175062
0.00169462
-0.000237299
0.00149277
-0.000305187
0.00128691
-0.000327587
0.00110076
-0.000307427
0.000947756
-0.000255283
0.000843389
-0.000179082
0.00080102
-9.74179e-05
0.000793782
-4.80911e-05
0.000805132
-2.95457e-05
0.000830535
-1.88027e-05
0.000864139
6.88647e-06
0.000897342
6.24498e-05
0.000923775
0.00015582
0.000941529
0.000293958
0.000952629
0.000488549
0.000998823
0.000771919
0.00112587
0.00113632
0.00134584
0.0016153
0.00181104
0.0019756
0.00207034
0.00133814
0.00168058
0.000861304
0.000408121
-0.000625766
0.0115925
-0.000428433
0.00442694
0.000833941
0.00125019
0.00186543
0.000572854
0.00282004
-0.000497023
0.00357967
-0.00174537
0.00399131
-0.00264563
0.00406952
-0.00314933
0.00388442
-0.00330028
0.00352051
-0.00316574
0.00305388
-0.00281925
0.00255565
-0.00233962
0.00208651
-0.00179943
0.00168722
-0.00125064
0.00138345
-0.000751803
0.00118601
-0.000366657
0.00107111
-0.000134425
0.000960873
-6.48596e-05
0.000815773
-9.22358e-05
0.000647747
-0.000137197
0.000481373
-0.00016125
0.000333191
-0.00015928
0.000214673
-0.000136799
0.000137189
-0.00010163
0.000107012
-6.72731e-05
0.000111614
-5.27242e-05
0.00013863
-5.65929e-05
0.000184997
-6.51996e-05
0.000253276
-6.14226e-05
0.000340326
-2.463e-05
0.000438754
5.73627e-05
0.000552073
0.000180609
0.000689956
0.000350635
0.000882115
0.000579728
0.00117554
0.000842854
0.00162212
0.00116868
0.00228997
0.00130772
0.00281171
0.000816365
0.00285817
0.0008148
0.00332482
0.00274065
0.00935432
0.00354101
0.00362653
0.00420911
0.000582045
0.00532393
-0.00054202
0.00622275
-0.0013959
0.00656786
-0.00209053
0.0064383
-0.00251614
0.00593715
-0.00264825
0.00518091
-0.0025441
0.00428635
-0.00227123
0.00335172
-0.00188466
0.00246102
-0.00144897
0.00167864
-0.00101708
0.00103661
-0.000608638
0.000557806
-0.000273033
0.000246605
-5.54873e-05
6.72571e-05
4.48912e-05
-4.96732e-05
5.20382e-05
-0.000157269
1.53266e-05
-0.000270374
-2.41248e-05
-0.000381546
-5.01103e-05
-0.000479907
-6.09504e-05
-0.000556685
-6.00505e-05
-0.000604872
-5.34733e-05
-0.000622556
-4.96179e-05
-0.000618457
-5.68522e-05
-0.000600994
-7.40842e-05
-0.000571958
-9.42631e-05
-0.000525298
-0.000108111
-0.000447104
-0.000102852
-0.000329659
-6.01111e-05
-0.000179508
3.04287e-05
1.3931e-05
0.000157167
0.000275793
0.000317835
0.000619307
0.000499308
0.00109135
0.000696595
0.00163673
0.000762305
0.00182992
0.00062314
0.000920904
0.00172378
0.0044775
0.0099047
0.0135225
0.012471
0.00163349
0.0118113
0.000117654
0.010925
-0.000509633
0.00974652
-0.000912142
0.00832877
-0.00109845
0.00679337
-0.00111291
0.00525107
-0.00100184
0.00379233
-0.000812532
0.00247243
-0.000564785
0.00134183
-0.00031839
0.000422501
-9.77749e-05
-0.00025449
6.83333e-05
-0.000672182
0.000144633
-0.000886217
0.000158519
-0.000987147
0.000145791
-0.00104877
0.000113633
-0.00110649
7.30109e-05
-0.0011678
3.71636e-05
-0.00123052
1.25741e-05
-0.00128976
-1.73487e-06
-0.00134029
-9.54967e-06
-0.00137914
-1.46505e-05
-0.00140853
-2.02528e-05
-0.00143724
-2.81735e-05
-0.00147552
-3.58275e-05
-0.00153297
-3.68399e-05
-0.00161913
-2.19811e-05
-0.00174128
1.92776e-05
-0.00189818
9.67625e-05
-0.00209
0.000222216
-0.00234698
0.00041412
-0.00272127
0.000692088
-0.00329016
0.00106817
-0.00413346
0.00153986
-0.00538661
0.00201543
-0.00703325
0.00226975
-0.00696602
0.00165652
-0.00223353
0.00463165
0.00324318
0.00351438
0.00123486
0.00365927
-0.000654551
0.00345165
-0.000704525
0.00283834
-0.000485146
0.00202369
-0.00029826
0.00112244
-0.000100594
0.000214921
9.49793e-05
-0.000579802
0.000229932
-0.00116628
0.000268075
-0.00153997
0.000275893
-0.00174041
0.000268744
-0.00183907
0.000243274
-0.00188917
0.000208592
-0.0019166
0.000173193
-0.0019416
0.000138599
-0.00197483
0.00010622
-0.0020167
7.90064e-05
-0.00206274
5.85896e-05
-0.00210876
4.42562e-05
-0.0021527
3.43707e-05
-0.00219521
2.78259e-05
-0.00223885
2.33645e-05
-0.00228816
2.1115e-05
-0.00234715
2.3138e-05
-0.00241712
3.31021e-05
-0.00249561
5.64867e-05
-0.00257705
0.000100689
-0.00265654
0.000176221
-0.00273324
0.000298894
-0.00280487
0.000485722
-0.00286801
0.000755197
-0.00291305
0.00111318
-0.00290242
0.0015292
-0.00279454
0.00190752
-0.00223137
0.00170654
-0.000763926
0.000189052
-0.00292785
-0.000285234
0.00360059
0.000285708
0.000663902
-0.00047183
0.000103012
-0.00119133
1.49884e-05
-0.00175702
8.05475e-05
-0.00221023
0.000154947
-0.00253246
0.000221627
-0.00271243
0.00027494
-0.00278479
0.000302277
-0.00280509
0.000288355
-0.00278476
0.000255541
-0.00273642
0.000220381
-0.00268066
0.000187494
-0.00263145
0.000159354
-0.00259501
0.000136733
-0.00257457
0.000118125
-0.00257059
0.000102218
-0.00258051
8.89054e-05
-0.0026004
7.84598e-05
-0.00262697
7.07983e-05
-0.00265811
6.54915e-05
-0.00269224
6.19334e-05
-0.00272822
5.93185e-05
-0.00276446
5.73334e-05
-0.00279805
5.6699e-05
-0.00282438
5.94161e-05
-0.00283698
6.90613e-05
-0.00282722
9.0901e-05
-0.002783
0.000131974
-0.00268545
0.000201313
-0.00250978
0.00031003
-0.00222833
0.000473715
-0.00181303
0.000697852
-0.00119759
0.000913726
-0.000114628
0.000824532
0.0016355
-4.36074e-05
0.00317775
-0.00135323
0.0003258
-0.00691643
-0.00980308
-0.00616317
-0.00548495
-0.00537623
-0.00535954
-0.00527978
-0.00512763
-0.00491057
-0.00464184
-0.00434735
-0.00406827
-0.00382331
-0.00361456
-0.00343954
-0.00329334
-0.00317033
-0.00306644
-0.0029789
-0.00290509
-0.0028421
-0.0027871
-0.00273773
-0.0026922
-0.00264956
-0.00260912
-0.0025695
-0.00252724
-0.00247531
-0.00240142
-0.00228622
-0.00210134
-0.00180732
-0.00134914
-0.000666319
0.000232821
0.00104271
0.000982942
-0.000387603
)
;

boundaryField
{
    floor
    {
        type            calculated;
        value           nonuniform List<scalar> 
29
(
0
0
0
0
0
0
0
0
0
0
0
0
0
0
0
0
0
0
0
0
-2.78463e-06
-7.52507e-06
-1.17509e-05
-1.55877e-05
-1.49259e-06
-2.1972e-06
-6.51661e-06
-7.59746e-06
-6.60512e-06
)
;
    }
    ceiling
    {
        type            calculated;
        value           nonuniform List<scalar> 
43
(
-4.17681e-05
-4.0563e-05
-3.93134e-05
-1.43202e-05
-5.70779e-06
-1.71469e-06
7.78751e-07
2.78792e-06
4.55506e-06
6.19311e-06
7.77012e-06
9.25684e-06
1.05542e-05
1.16131e-05
1.24547e-05
1.31338e-05
1.37048e-05
1.42076e-05
1.46622e-05
1.50743e-05
1.54467e-05
1.57852e-05
1.60971e-05
1.6387e-05
1.66521e-05
1.68795e-05
1.7048e-05
1.71331e-05
1.71152e-05
1.69853e-05
1.6746e-05
1.64081e-05
1.59876e-05
1.55063e-05
1.50048e-05
1.45593e-05
1.46175e-05
1.61342e-05
1.72959e-05
1.64638e-05
1.17188e-05
8.64233e-06
-7.2182e-05
)
;
    }
    sWall
    {
        type            calculated;
        value           uniform -0.000271741;
    }
    nWall
    {
        type            calculated;
        value           nonuniform List<scalar> 6(-4.39217e-05 -5.2986e-05 -5.85628e-05 -6.9636e-05 -7.59204e-05 -7.82875e-05);
    }
    sideWalls
    {
        type            empty;
        value           nonuniform 0();
    }
    glass1
    {
        type            calculated;
        value           nonuniform List<scalar> 9(-5.48814e-05 -0.000148483 -0.000228002 -0.000296304 -0.000354665 -0.000404004 -0.000448884 -0.000502572 -0.000562155);
    }
    glass2
    {
        type            calculated;
        value           nonuniform List<scalar> 2(-0.000231808 -0.000255022);
    }
    sun
    {
        type            calculated;
        value           uniform 0;
    }
    heatsource1
    {
        type            calculated;
        value           nonuniform List<scalar> 3(2.03429e-07 2.03425e-07 2.03447e-07);
    }
    heatsource2
    {
        type            calculated;
        value           nonuniform List<scalar> 4(5.10566e-08 5.11248e-08 0 0);
    }
    Table_master
    {
        type            calculated;
        value           nonuniform List<scalar> 9(-1.52639e-07 -1.52757e-07 -1.52793e-07 -1.52815e-07 -1.52828e-07 -1.52835e-07 -1.52836e-07 -1.52824e-07 -1.52782e-07);
    }
    Table_slave
    {
        type            calculated;
        value           nonuniform List<scalar> 9(1.52499e-07 1.52539e-07 1.52531e-07 1.52528e-07 1.52526e-07 1.52534e-07 1.52558e-07 1.52603e-07 1.52679e-07);
    }
    inlet
    {
        type            calculated;
        value           uniform -0.00624136;
    }
    outlet
    {
        type            calculated;
        value           nonuniform List<scalar> 2(0.00722993 0.00292721);
    }
}


// ************************************************************************* //
