/*--------------------------------*- C++ -*----------------------------------*\
  =========                 |
  \\      /  F ield         | OpenFOAM: The Open Source CFD Toolbox
   \\    /   O peration     | Website:  https://openfoam.org
    \\  /    A nd           | Version:  6
     \\/     M anipulation  |
\*---------------------------------------------------------------------------*/
FoamFile
{
    version     2.0;
    format      ascii;
    class       volScalarField;
    location    "1900";
    object      alphat;
}
// * * * * * * * * * * * * * * * * * * * * * * * * * * * * * * * * * * * * * //

dimensions      [1 -1 -1 0 0 0 0];

internalField   nonuniform List<scalar> 
459
(
0.00116974
0.00126974
0.00128593
0.00134427
0.00139758
0.00144654
0.00149324
0.00154032
0.00157986
0.00160345
0.00160505
0.00157972
0.0015265
0.00145259
0.00137188
0.000507591
0.000625159
0.000684824
0.000665926
0.000636278
0.0006033
0.000567647
0.00053378
0.000503143
0.00047576
0.000451304
0.000429501
0.000409962
0.000392177
0.00037557
0.000359316
0.000342145
0.000332564
0.000306097
0.00161943
0.00372791
0.00348892
0.00404733
0.00457003
0.00510398
0.00560487
0.00600106
0.00633511
0.00662152
0.00681392
0.00684906
0.00662823
0.0059456
0.00422997
0.00138956
0.000916282
0.000569484
0.00107719
0.0014158
0.00163806
0.00173873
0.00172551
0.00146665
0.00129996
0.00117448
0.00107481
0.000993276
0.000923327
0.00086019
0.000801125
0.000744786
0.000696305
0.000651222
0.000781767
0.000416114
0.00199897
0.00510481
0.00423692
0.00545058
0.00600015
0.0063983
0.00670074
0.00693636
0.0071712
0.00742943
0.00768153
0.00787959
0.00795299
0.00782602
0.00734393
0.00599287
0.00134127
0.00115995
0.00154242
0.00185202
0.00210217
0.00225756
0.00218748
0.000798885
0.000714447
0.000646119
0.0005905
0.00054479
0.000506836
0.000475075
0.000448481
0.000426573
0.00045838
0.000525029
0.000875682
0.000487904
0.00236826
0.0066705
0.00418574
0.0057881
0.00634042
0.00650575
0.00656249
0.00663146
0.00677611
0.00701039
0.00730409
0.0076163
0.00786488
0.00799572
0.00794625
0.00748189
0.00581863
0.00154305
0.00192594
0.00240104
0.00277863
0.00303615
0.00318228
0.00299091
0.000892184
0.000824335
0.00077788
0.000743718
0.000714448
0.000685136
0.000656613
0.000625819
0.000588735
0.000554343
0.000559895
0.00100912
0.00054283
0.00274585
0.00871266
0.00463313
0.00548102
0.00630419
0.00638692
0.00627726
0.00621196
0.00632534
0.00655714
0.00687484
0.00724892
0.00756235
0.00773695
0.00772119
0.0074664
0.00682933
0.00556694
0.00503823
0.00476858
0.00460405
0.00450658
0.00445095
0.00434088
0.00380297
0.00357426
0.00345488
0.00335782
0.00323714
0.00304713
0.00273881
0.00234193
0.00188743
0.00141488
0.00104154
0.00102543
0.000721194
0.000681082
0.000822147
0.000920101
0.00314477
0.0109303
0.00659577
0.00524822
0.00587781
0.00621377
0.00622174
0.00603661
0.0061538
0.0063685
0.0066855
0.00706338
0.00740067
0.00758206
0.00753071
0.00724192
0.00678025
0.0062559
0.00589019
0.00562954
0.00542301
0.00527006
0.0051547
0.00503695
0.00485725
0.00470298
0.00456039
0.00441014
0.00424126
0.00404472
0.00376266
0.00336705
0.00285686
0.00225948
0.00170429
0.00124676
0.000970534
0.000842841
0.00121782
0.00095815
0.00351789
0.0125467
0.00966956
0.00688121
0.00619902
0.00625617
0.00632893
0.00625591
0.00625268
0.00640031
0.00671103
0.00711061
0.00746445
0.00763028
0.00751917
0.00714631
0.00664686
0.00622591
0.00599027
0.00582599
0.0056362
0.00541197
0.00517362
0.00495538
0.00477205
0.00462346
0.00448485
0.00434326
0.0041978
0.0040546
0.00391485
0.00366522
0.00326051
0.00273985
0.00222436
0.00174093
0.00140752
0.00131088
0.00135488
0.00107566
0.00359461
0.011449
0.00999041
0.00895647
0.00811099
0.00756707
0.00698268
0.00653298
0.00638274
0.00654484
0.00693163
0.00738948
0.00774011
0.00782888
0.00758241
0.00706026
0.00646538
0.00606375
0.00589357
0.00562737
0.00524917
0.00485842
0.00453574
0.00430718
0.00415206
0.00403556
0.00393308
0.00383904
0.00375977
0.00370757
0.00369619
0.00370266
0.0034733
0.00311431
0.00279058
0.00262588
0.00274322
0.00321228
0.00402584
0.00170141
0.0035018
0.00418025
0.00469781
0.00492312
0.00504728
0.00508148
0.00521009
0.00554391
0.00608952
0.00677355
0.00745753
0.00797989
0.00819954
0.0080217
0.00745172
0.00667646
0.00606425
0.00564741
0.00525206
0.00475534
0.00426209
0.00388112
0.00362754
0.00346495
0.00335211
0.00325996
0.0031732
0.0030857
0.00299445
0.00289631
0.00278789
0.00267011
0.00257025
0.00249672
0.00247622
0.00250168
0.00250374
0.00241581
0.00226355
0.00159831
0.00202206
0.00386554
0.00509015
0.00598442
0.0068313
0.00759487
0.00824995
0.00873286
0.00895878
0.00885629
0.00840182
0.00758945
0.00653349
0.00559325
0.00497943
0.00446236
0.00391774
0.00342973
0.00308222
0.00286235
0.00272508
0.00263351
0.0025656
0.00251013
0.00246256
0.00242204
0.00238974
0.00236843
0.00236247
0.00238089
0.00240822
0.00244403
0.00248238
0.00249609
0.00243879
0.00229252
0.00207245
0.00132132
0.00243339
0.0053013
0.00707947
0.00779197
0.00842569
0.00890449
0.00902567
0.00892262
0.00846499
0.00762479
0.00656497
0.00549871
0.00461223
0.00392961
0.00336638
0.002893
0.00255857
0.00234779
0.00220804
0.00211624
0.00205873
0.00202466
0.00200888
0.00200926
0.00202496
0.00205537
0.0020991
0.00215291
0.00222016
0.00230365
0.00240134
0.00250709
0.00260495
0.00267385
0.00266335
0.00270009
0.00269831
0.00134387
0.00228455
0.00227799
0.00232768
0.00244996
0.00231413
0.0021653
0.00203438
0.00190749
0.00179251
0.00166207
0.00150923
0.00133092
0.00114121
0.000964185
0.000822926
0.000726872
0.000670306
0.000641481
0.000630528
0.000630976
0.00063923
0.000652539
0.000669413
0.000689623
0.000713146
0.000740084
0.000770655
0.000805247
0.000844545
0.000889776
0.00094133
0.000998355
0.00106166
0.00113208
0.0012097
0.00130262
0.00133517
0.00130364
0.00122264
0.00113703
)
;

boundaryField
{
    floor
    {
        type            compressible::alphatWallFunction;
        Prt             0.85;
        value           nonuniform List<scalar> 
29
(
0.000193685
7.04092e-05
8.81395e-05
9.69762e-05
9.41875e-05
8.97933e-05
8.48758e-05
7.95222e-05
7.43981e-05
6.97276e-05
6.5523e-05
6.17418e-05
5.8349e-05
5.52898e-05
5.24889e-05
4.98586e-05
4.72695e-05
4.45178e-05
4.29747e-05
3.86813e-05
3.86807e-05
5.62549e-05
6.73913e-05
7.57713e-05
0.000193683
7.04083e-05
7.9801e-05
0.00016463
0.000216775
)
;
    }
    ceiling
    {
        type            compressible::alphatWallFunction;
        Prt             0.85;
        value           nonuniform List<scalar> 
43
(
0.000313941
0.000312989
0.000319352
0.000335088
0.000317767
0.000298636
0.000281686
0.000265139
0.000250039
0.000232777
0.000212354
0.000188229
0.000162154
0.000137366
0.000117203
0.00010326
9.49454e-05
9.06765e-05
8.90488e-05
8.91163e-05
9.03444e-05
9.232e-05
9.48176e-05
9.77987e-05
0.000101255
0.000105196
0.000109648
0.00011466
0.000120322
0.000126801
0.000134138
0.000142199
0.000151086
0.000160899
0.000171634
0.000184384
0.000188825
0.000184523
0.000173418
0.00016159
0.000466801
0.000549339
0.000332733
)
;
    }
    sWall
    {
        type            compressible::alphatWallFunction;
        Prt             0.85;
        value           uniform 0.000312779;
    }
    nWall
    {
        type            compressible::alphatWallFunction;
        Prt             0.85;
        value           nonuniform List<scalar> 6(0.0001308 0.000136193 0.000152705 0.000186607 0.000189678 0.000161264);
    }
    sideWalls
    {
        type            empty;
    }
    glass1
    {
        type            compressible::alphatWallFunction;
        Prt             0.85;
        value           nonuniform List<scalar> 9(0.000161893 0.00022206 0.000271525 0.000318772 0.000366344 0.00041591 0.000461727 0.000471214 0.000460112);
    }
    glass2
    {
        type            compressible::alphatWallFunction;
        Prt             0.85;
        value           nonuniform List<scalar> 2(0.000236282 0.000222684);
    }
    sun
    {
        type            compressible::alphatWallFunction;
        Prt             0.85;
        value           nonuniform List<scalar> 
14
(
0.000166009
0.000179758
0.000181973
0.000189935
0.000197177
0.000203799
0.000210092
0.000216415
0.000221708
0.00022486
0.000225072
0.000221688
0.000214558
0.000204612
)
;
    }
    heatsource1
    {
        type            compressible::alphatWallFunction;
        Prt             0.85;
        value           nonuniform List<scalar> 3(9.65332e-05 0.00011709 0.000131113);
    }
    heatsource2
    {
        type            compressible::alphatWallFunction;
        Prt             0.85;
        value           nonuniform List<scalar> 4(0.000196204 0.000130569 0.000130568 0.000189639);
    }
    Table_master
    {
        type            compressible::alphatWallFunction;
        Prt             0.85;
        value           nonuniform List<scalar> 9(0.000113727 0.000101434 9.13581e-05 8.30602e-05 7.61682e-05 7.03909e-05 6.55144e-05 6.13995e-05 5.79862e-05);
    }
    Table_slave
    {
        type            compressible::alphatWallFunction;
        Prt             0.85;
        value           nonuniform List<scalar> 9(0.000127133 0.000117403 0.000110687 0.000105717 0.000101437 9.71297e-05 9.29167e-05 8.83429e-05 8.2798e-05);
    }
    inlet
    {
        type            fixedValue;
        value           uniform 1.94e-05;
    }
    outlet
    {
        type            zeroGradient;
    }
}


// ************************************************************************* //
