/*--------------------------------*- C++ -*----------------------------------*\
  =========                 |
  \\      /  F ield         | OpenFOAM: The Open Source CFD Toolbox
   \\    /   O peration     | Website:  https://openfoam.org
    \\  /    A nd           | Version:  6
     \\/     M anipulation  |
\*---------------------------------------------------------------------------*/
FoamFile
{
    version     2.0;
    format      ascii;
    class       volScalarField;
    location    "410";
    object      epsilon;
}
// * * * * * * * * * * * * * * * * * * * * * * * * * * * * * * * * * * * * * //

dimensions      [0 2 -3 0 0 0 0];

internalField   nonuniform List<scalar> 
459
(
0.000302466
0.000401091
0.000440166
0.000511113
0.000583281
0.00065857
0.000741807
0.000826963
0.000896446
0.00093468
0.000925571
0.000858814
0.000731428
0.000533853
0.000246922
7.86387e-05
0.00011681
9.03538e-05
0.00010783
9.57023e-05
7.99763e-05
6.04529e-05
4.48494e-05
3.37807e-05
2.60194e-05
2.04782e-05
1.6422e-05
1.33687e-05
1.10505e-05
9.19433e-06
7.63208e-06
6.85653e-06
1.09537e-05
3.14002e-05
0.000685703
0.000933626
0.000373576
0.000370834
0.000388191
0.000419429
0.000469937
0.000537268
0.000605096
0.00065337
0.000663882
0.000628337
0.00055152
0.000451601
0.000315781
0.000447171
0.000167503
0.000249216
0.000461207
0.00020803
0.000145689
0.000113291
9.11733e-05
7.96128e-05
5.89624e-05
4.2437e-05
3.07325e-05
2.26289e-05
1.69893e-05
1.29956e-05
1.01702e-05
8.2285e-06
7.25688e-06
1.5254e-05
5.22046e-05
5.90959e-05
0.00118375
0.0020811
0.000413035
0.000335549
0.000349622
0.000390602
0.000456727
0.00054313
0.000627732
0.000689689
0.000714403
0.000694301
0.000631164
0.000537598
0.0004371
0.000384504
0.000463475
0.000360219
0.000575237
0.000307964
0.000207321
0.000152992
0.000123741
0.000204555
0.000122853
7.74228e-05
5.11305e-05
3.52493e-05
2.52703e-05
1.87936e-05
1.45738e-05
1.19091e-05
9.09156e-06
1.58223e-05
8.34812e-05
8.88452e-05
0.00184382
0.00415857
0.000575462
0.000318741
0.000323422
0.00037557
0.000465794
0.000580647
0.000676911
0.000744112
0.000776703
0.000765169
0.000703878
0.000617844
0.000530286
0.000459568
0.000404103
0.000741032
0.000616776
0.000405517
0.000283187
0.000209312
0.000161881
0.000138422
0.00029913
0.000215223
0.000163429
0.000128476
0.000102973
8.31352e-05
6.68364e-05
5.27801e-05
3.99331e-05
2.1282e-05
1.99115e-05
0.000121008
0.000117916
0.00273896
0.00739675
0.00103885
0.000340329
0.000307128
0.000375996
0.000534275
0.000690304
0.000785454
0.000846352
0.000876429
0.000858144
0.000785267
0.000675415
0.000557893
0.000456176
0.000378798
0.000338766
0.000299205
0.000259514
0.000220419
0.000185025
0.000154864
0.000131626
0.000123843
0.000109835
9.60754e-05
8.33592e-05
7.16704e-05
6.08784e-05
5.07859e-05
4.11994e-05
3.18819e-05
2.2322e-05
1.9493e-05
6.56032e-05
0.000106685
0.00011301
0.0001949
0.000610868
0.00398897
0.0111796
0.00228482
0.000557465
0.000382127
0.00045212
0.000772697
0.000921994
0.000983129
0.0010193
0.00103616
0.00100365
0.000902465
0.000750843
0.000589188
0.000453063
0.000359178
0.000305086
0.000270934
0.000242893
0.000215532
0.000188334
0.000162454
0.000139414
0.000121408
0.000106391
9.33244e-05
8.14135e-05
7.03014e-05
5.98329e-05
4.99123e-05
4.05414e-05
3.18611e-05
2.45842e-05
2.19647e-05
3.08436e-05
6.67616e-05
0.00019268
0.000925073
0.00146682
0.00551374
0.0136581
0.00498139
0.00178506
0.0011423
0.00117981
0.0013255
0.00132672
0.00129668
0.00128851
0.00128233
0.00122152
0.00107421
0.000866477
0.000653889
0.000483226
0.000374752
0.000318438
0.000287019
0.000261832
0.000235914
0.000208672
0.000181693
0.000156963
0.000135839
0.000118779
0.000104651
9.23258e-05
8.11991e-05
7.09941e-05
6.15846e-05
5.29644e-05
4.52471e-05
3.89172e-05
3.53305e-05
3.80463e-05
8.32719e-05
0.000568802
0.00297674
0.00346857
0.0059745
0.0166386
0.00877653
0.00535698
0.00371417
0.00288962
0.00229709
0.0019215
0.00173314
0.0016748
0.00164626
0.00154037
0.00131566
0.00102572
0.000750779
0.000544694
0.000425955
0.000370424
0.000340346
0.000314481
0.000286648
0.000256923
0.000227487
0.000201885
0.000180788
0.000164025
0.000150647
0.000139796
0.00013103
0.000124164
0.000119052
0.000115423
0.0001127
0.000109939
0.0001061
0.000109567
0.000202276
0.00124466
0.0105969
0.00851827
0.00563925
0.00986403
0.00750658
0.00559365
0.00424498
0.00329596
0.00264786
0.00229533
0.00218951
0.00221339
0.00219694
0.00200369
0.001629
0.00121573
0.000882621
0.000663721
0.000573164
0.000529054
0.000500968
0.000475394
0.000448578
0.000421304
0.000395582
0.000373443
0.000355799
0.00034293
0.000334688
0.000330955
0.000331843
0.000337541
0.000347985
0.000362374
0.000378544
0.000392611
0.00040028
0.00040382
0.000555045
0.00211252
0.0146465
0.0116121
0.0019877
0.00248013
0.00249273
0.00244023
0.00258372
0.00283813
0.00312234
0.00328755
0.00315939
0.00269027
0.00201152
0.00149839
0.00127419
0.00117893
0.00113653
0.00111784
0.00110601
0.00109443
0.00108151
0.00106796
0.00105534
0.00104526
0.00103918
0.00103844
0.00104441
0.00105857
0.0010826
0.00111823
0.00116663
0.00122711
0.00129475
0.00135887
0.00141416
0.00141672
0.00158541
0.00307584
0.0106774
0.00690992
0.00106796
0.00237766
0.00352543
0.00471691
0.00537837
0.00583158
0.00620902
0.006334
0.00592431
0.00510796
0.00418765
0.00354009
0.00317807
0.00301927
0.00297812
0.00298832
0.00301552
0.00304305
0.00306402
0.00307769
0.00308662
0.00309455
0.00310544
0.00312333
0.00315209
0.00319559
0.00325823
0.00334518
0.00346171
0.00360988
0.00377851
0.00391965
0.00392251
0.00373642
0.00355968
0.00405342
0.00573768
0.00399589
0.000785382
0.000963512
0.00117417
0.00165102
0.00193431
0.00207165
0.00228068
0.0025933
0.00286031
0.00300664
0.00296289
0.00276394
0.00256772
0.00238215
0.00225992
0.00219216
0.00215731
0.00214016
0.00213059
0.0021235
0.00211714
0.00211153
0.00210745
0.00210586
0.00210762
0.0021134
0.00212377
0.00213917
0.0021599
0.00218586
0.00221581
0.00224557
0.00226437
0.00225328
0.00220787
0.00217927
0.00230353
0.00267624
0.00303799
0.00225857
)
;

boundaryField
{
    floor
    {
        Cmu             0.09;
        kappa           0.41;
        E               9.8;
        type            epsilonWallFunction;
        value           nonuniform List<scalar> 
29
(
0.000246922
7.86387e-05
0.00011681
9.03538e-05
0.00010783
9.57023e-05
7.99763e-05
6.04529e-05
4.48494e-05
3.37807e-05
2.60194e-05
2.04782e-05
1.6422e-05
1.33687e-05
1.10505e-05
9.19433e-06
7.63208e-06
6.85653e-06
1.09537e-05
3.14002e-05
3.14002e-05
5.90959e-05
8.88452e-05
0.000117916
0.000246922
7.86387e-05
0.000249216
0.000360219
0.000741032
)
;
    }
    ceiling
    {
        Cmu             0.09;
        kappa           0.41;
        E               9.8;
        type            epsilonWallFunction;
        value           nonuniform List<scalar> 
43
(
0.000785382
0.000963512
0.00117417
0.00165102
0.00193431
0.00207165
0.00228068
0.0025933
0.00286031
0.00300664
0.00296289
0.00276394
0.00256772
0.00238215
0.00225992
0.00219216
0.00215731
0.00214016
0.00213059
0.0021235
0.00211714
0.00211153
0.00210745
0.00210586
0.00210762
0.0021134
0.00212377
0.00213917
0.0021599
0.00218586
0.00221581
0.00224557
0.00226437
0.00225328
0.00220787
0.00217927
0.00230353
0.00267624
0.00303799
0.00225857
0.00563925
0.00986403
0.00106796
)
;
    }
    sWall
    {
        Cmu             0.09;
        kappa           0.41;
        E               9.8;
        type            epsilonWallFunction;
        value           uniform 0.000785382;
    }
    nWall
    {
        Cmu             0.09;
        kappa           0.41;
        E               9.8;
        type            epsilonWallFunction;
        value           nonuniform List<scalar> 6(0.000610868 0.00146682 0.00346857 0.00690992 0.00399589 0.00225857);
    }
    sideWalls
    {
        type            empty;
    }
    glass1
    {
        Cmu             0.09;
        kappa           0.41;
        E               9.8;
        type            epsilonWallFunction;
        value           nonuniform List<scalar> 9(0.000302466 0.000685703 0.00118375 0.00184382 0.00273896 0.00398897 0.00551374 0.0059745 0.00563925);
    }
    glass2
    {
        Cmu             0.09;
        kappa           0.41;
        E               9.8;
        type            epsilonWallFunction;
        value           nonuniform List<scalar> 2(0.00851827 0.0116121);
    }
    sun
    {
        Cmu             0.09;
        kappa           0.41;
        E               9.8;
        type            epsilonWallFunction;
        value           nonuniform List<scalar> 
14
(
0.000302466
0.000401091
0.000440166
0.000511113
0.000583281
0.00065857
0.000741807
0.000826963
0.000896446
0.00093468
0.000925571
0.000858814
0.000731428
0.000533853
)
;
    }
    heatsource1
    {
        Cmu             0.09;
        kappa           0.41;
        E               9.8;
        type            epsilonWallFunction;
        value           nonuniform List<scalar> 3(0.00011301 0.0001949 0.000610868);
    }
    heatsource2
    {
        Cmu             0.09;
        kappa           0.41;
        E               9.8;
        type            epsilonWallFunction;
        value           nonuniform List<scalar> 4(0.000447171 0.000167503 0.000167503 0.000463475);
    }
    Table_master
    {
        Cmu             0.09;
        kappa           0.41;
        E               9.8;
        type            epsilonWallFunction;
        value           nonuniform List<scalar> 9(0.000204555 0.000122853 7.74228e-05 5.11305e-05 3.52493e-05 2.52703e-05 1.87936e-05 1.45738e-05 1.19091e-05);
    }
    Table_slave
    {
        Cmu             0.09;
        kappa           0.41;
        E               9.8;
        type            epsilonWallFunction;
        value           nonuniform List<scalar> 9(0.00029913 0.000215223 0.000163429 0.000128476 0.000102973 8.31352e-05 6.68364e-05 5.27801e-05 3.99331e-05);
    }
    inlet
    {
        type            turbulentMixingLengthDissipationRateInlet;
        mixingLength    0.01;
        phi             phi;
        k               k;
        value           uniform 0.000101881;
    }
    outlet
    {
        type            zeroGradient;
    }
}


// ************************************************************************* //
