/*--------------------------------*- C++ -*----------------------------------*\
  =========                 |
  \\      /  F ield         | OpenFOAM: The Open Source CFD Toolbox
   \\    /   O peration     | Website:  https://openfoam.org
    \\  /    A nd           | Version:  6
     \\/     M anipulation  |
\*---------------------------------------------------------------------------*/
FoamFile
{
    version     2.0;
    format      ascii;
    class       volScalarField;
    location    "600";
    object      epsilon;
}
// * * * * * * * * * * * * * * * * * * * * * * * * * * * * * * * * * * * * * //

dimensions      [0 2 -3 0 0 0 0];

internalField   nonuniform List<scalar> 
459
(
0.0010101
0.00144194
0.0015832
0.00201389
0.00247523
0.00285016
0.00263113
0.00211149
0.00164817
0.00128169
0.00100476
0.000792158
0.000618569
0.00046879
0.000337027
4.83086e-05
7.20064e-05
0.0001002
0.00013932
0.00017321
0.000188557
0.000147098
0.000111508
8.56568e-05
6.67323e-05
5.21166e-05
3.97211e-05
2.81303e-05
1.77451e-05
1.04041e-05
6.88563e-06
6.04427e-06
5.97179e-06
4.68944e-06
0.0024761
0.00310775
0.00152232
0.0016603
0.00197168
0.00217709
0.00207972
0.00152791
0.00108549
0.00080264
0.000630039
0.000512208
0.00042131
0.000348836
0.000285111
0.000343337
0.000242923
4.25109e-05
4.96371e-05
8.19827e-05
0.000115766
0.000137359
0.000147464
0.000159435
0.000118163
8.14711e-05
5.62082e-05
3.99079e-05
2.82668e-05
1.93898e-05
1.28801e-05
8.99159e-06
7.8943e-06
9.25708e-06
1.09964e-05
1.08499e-05
0.00432055
0.00653638
0.00217661
0.00198955
0.0021777
0.00221714
0.00219096
0.00162455
0.00104135
0.00068382
0.000495706
0.000392076
0.000326412
0.000279724
0.000241223
0.000238582
0.000278135
3.92663e-05
6.57884e-05
9.89016e-05
0.00011721
0.000136205
0.000156209
0.000309917
0.000191663
0.000103367
4.79378e-05
2.54194e-05
1.82591e-05
1.44897e-05
1.21227e-05
1.09524e-05
1.06045e-05
1.14864e-05
1.34355e-05
1.49234e-05
0.00658478
0.0117515
0.00332339
0.00257535
0.00256101
0.00246154
0.00243218
0.00189283
0.00113398
0.000646668
0.000414973
0.000315905
0.000267468
0.000237577
0.000215037
0.000207128
0.000226658
0.000305714
0.0001923
0.000152382
0.000141646
0.000153369
0.000174756
0.000202369
0.00055213
0.000469321
0.000406458
0.00035905
0.000319619
0.000282493
0.00024503
0.000206084
0.000164446
8.74493e-05
4.77415e-05
2.95142e-05
2.29548e-05
0.00924043
0.0184722
0.00548976
0.00372642
0.00322442
0.00293882
0.00285848
0.0023106
0.00135851
0.000683662
0.000376705
0.000268196
0.000230838
0.00021389
0.000203504
0.000199628
0.00021699
0.000246009
0.000215092
0.000202536
0.000216267
0.000245006
0.00026957
0.000276734
0.000280946
0.000271382
0.000264764
0.000258227
0.000246838
0.000228741
0.000203861
0.000172857
0.000136478
9.33785e-05
5.95286e-05
3.9532e-05
2.86921e-05
4.1925e-05
4.93378e-05
5.02187e-05
0.0121774
0.0253126
0.00995151
0.00581137
0.00422436
0.00366888
0.00345344
0.00281967
0.00165294
0.000755539
0.00036153
0.000242871
0.000214998
0.000209122
0.000210341
0.000219262
0.000245961
0.000274825
0.000295794
0.000337193
0.000387196
0.000422466
0.000427227
0.000400057
0.000359061
0.000325904
0.000300148
0.00027619
0.000250354
0.000221632
0.000190027
0.00015623
0.000121669
9.01174e-05
6.66989e-05
5.34969e-05
5.17133e-05
6.54438e-05
0.000146263
0.000132686
0.0142103
0.0282364
0.0152935
0.00825747
0.00559874
0.00462652
0.00419305
0.00338475
0.00194094
0.000803689
0.000355597
0.000250281
0.000234358
0.00023935
0.000254952
0.000284219
0.000336638
0.000406903
0.000486223
0.00055777
0.000597936
0.000595739
0.000552341
0.000481924
0.000406263
0.000346118
0.00030317
0.00026741
0.000233522
0.000200517
0.00016842
0.000138315
0.000112039
9.33679e-05
8.69036e-05
9.91268e-05
0.000142017
0.000199048
0.000357272
0.000258733
0.0138065
0.0244559
0.0147732
0.00933019
0.0066784
0.00557266
0.00497203
0.00394117
0.00210377
0.000720568
0.000393237
0.000325021
0.000316306
0.000330292
0.000362289
0.000417385
0.000502655
0.000598497
0.000680169
0.000723697
0.000711658
0.000648577
0.000556231
0.000461935
0.000383413
0.000325836
0.000282163
0.000244739
0.000210089
0.0001777
0.000148287
0.000123664
0.000107047
0.000104216
0.00012375
0.00017505
0.000259483
0.000354856
0.000426027
0.000291399
0.0122175
0.016502
0.0123573
0.00871618
0.00685575
0.00615876
0.00555235
0.00426761
0.00156302
0.000715717
0.000524576
0.000479124
0.000477834
0.000500314
0.00054281
0.000604124
0.000678013
0.000741862
0.000771697
0.000755897
0.000698935
0.00061593
0.000527507
0.000448908
0.00038621
0.000337288
0.000296733
0.000260148
0.000225544
0.000192688
0.000162565
0.000137538
0.000121646
0.000120352
0.000138911
0.000180031
0.000241026
0.000316258
0.000415888
0.000586305
0.000674262
0.00356208
0.00578181
0.00613091
0.00377282
0.00189586
0.00109544
0.000843456
0.000772482
0.00075558
0.000761764
0.000782724
0.000814204
0.000850114
0.000880153
0.000890345
0.000872804
0.000829798
0.000771184
0.000708642
0.000651238
0.00060303
0.000563815
0.000530896
0.000501221
0.000472394
0.000442586
0.00041017
0.000373913
0.000334093
0.000294202
0.000261884
0.000247096
0.000257051
0.00029033
0.000344625
0.000428288
0.000780885
0.0065366
0.0132633
0.00870588
0.00459093
0.00226753
0.00146543
0.0012197
0.0011835
0.00120234
0.00122283
0.00123585
0.00124639
0.00126033
0.001279
0.00129871
0.00131269
0.00131516
0.00130494
0.00128503
0.0012606
0.00123693
0.00121745
0.00120358
0.0011954
0.00119188
0.00119048
0.00118661
0.00117271
0.00113826
0.00107212
0.000968623
0.000835333
0.000695445
0.000577659
0.000503556
0.000609403
0.00135283
0.00131203
0.00171288
0.00269666
0.00342348
0.00366797
0.00272539
0.00215995
0.00177365
0.00152996
0.00140321
0.00133702
0.00130727
0.00130649
0.00132697
0.00135964
0.00139494
0.00142337
0.00143635
0.00142832
0.00139925
0.00135449
0.00130215
0.00124968
0.00120174
0.00116001
0.00112401
0.00109212
0.0010624
0.00103288
0.00100157
0.000966412
0.000925578
0.000878144
0.00082486
0.00076819
0.000711147
0.000655824
0.000607871
0.000625861
0.000730063
0.000681729
)
;

boundaryField
{
    floor
    {
        Cmu             0.09;
        kappa           0.41;
        E               9.8;
        type            epsilonWallFunction;
        value           nonuniform List<scalar> 
29
(
0.000337027
4.83086e-05
7.20064e-05
0.0001002
0.00013932
0.00017321
0.000188557
0.000147098
0.000111508
8.56568e-05
6.67323e-05
5.21166e-05
3.97211e-05
2.81303e-05
1.77451e-05
1.04041e-05
6.88563e-06
6.04427e-06
5.97179e-06
4.68944e-06
4.68944e-06
1.08499e-05
1.49234e-05
2.29548e-05
0.000337027
4.83086e-05
4.25109e-05
3.92663e-05
0.000305714
)
;
    }
    ceiling
    {
        Cmu             0.09;
        kappa           0.41;
        E               9.8;
        type            epsilonWallFunction;
        value           nonuniform List<scalar> 
43
(
0.00171288
0.00269666
0.00342348
0.00366797
0.00272539
0.00215995
0.00177365
0.00152996
0.00140321
0.00133702
0.00130727
0.00130649
0.00132697
0.00135964
0.00139494
0.00142337
0.00143635
0.00142832
0.00139925
0.00135449
0.00130215
0.00124968
0.00120174
0.00116001
0.00112401
0.00109212
0.0010624
0.00103288
0.00100157
0.000966412
0.000925578
0.000878144
0.00082486
0.00076819
0.000711147
0.000655824
0.000607871
0.000625861
0.000730063
0.000681729
0.0122175
0.016502
0.0065366
)
;
    }
    sWall
    {
        Cmu             0.09;
        kappa           0.41;
        E               9.8;
        type            epsilonWallFunction;
        value           uniform 0.00171288;
    }
    nWall
    {
        Cmu             0.09;
        kappa           0.41;
        E               9.8;
        type            epsilonWallFunction;
        value           nonuniform List<scalar> 6(5.02187e-05 0.000132686 0.000258733 0.000780885 0.00131203 0.000681729);
    }
    sideWalls
    {
        type            empty;
    }
    glass1
    {
        Cmu             0.09;
        kappa           0.41;
        E               9.8;
        type            epsilonWallFunction;
        value           nonuniform List<scalar> 9(0.0010101 0.0024761 0.00432055 0.00658478 0.00924043 0.0121774 0.0142103 0.0138065 0.0122175);
    }
    glass2
    {
        Cmu             0.09;
        kappa           0.41;
        E               9.8;
        type            epsilonWallFunction;
        value           nonuniform List<scalar> 2(0.000291399 0.000586305);
    }
    sun
    {
        Cmu             0.09;
        kappa           0.41;
        E               9.8;
        type            epsilonWallFunction;
        value           nonuniform List<scalar> 
14
(
0.0010101
0.00144194
0.0015832
0.00201389
0.00247523
0.00285016
0.00263113
0.00211149
0.00164817
0.00128169
0.00100476
0.000792158
0.000618569
0.00046879
)
;
    }
    heatsource1
    {
        Cmu             0.09;
        kappa           0.41;
        E               9.8;
        type            epsilonWallFunction;
        value           nonuniform List<scalar> 3(4.1925e-05 4.93378e-05 5.02187e-05);
    }
    heatsource2
    {
        Cmu             0.09;
        kappa           0.41;
        E               9.8;
        type            epsilonWallFunction;
        value           nonuniform List<scalar> 4(0.000343337 0.000242923 0.000242923 0.000278135);
    }
    Table_master
    {
        Cmu             0.09;
        kappa           0.41;
        E               9.8;
        type            epsilonWallFunction;
        value           nonuniform List<scalar> 9(0.000309917 0.000191663 0.000103367 4.79378e-05 2.54194e-05 1.82591e-05 1.44897e-05 1.21227e-05 1.09524e-05);
    }
    Table_slave
    {
        Cmu             0.09;
        kappa           0.41;
        E               9.8;
        type            epsilonWallFunction;
        value           nonuniform List<scalar> 9(0.00055213 0.000469321 0.000406458 0.00035905 0.000319619 0.000282493 0.00024503 0.000206084 0.000164446);
    }
    inlet
    {
        type            turbulentMixingLengthDissipationRateInlet;
        mixingLength    0.01;
        phi             phi;
        k               k;
        value           uniform 0.000101881;
    }
    outlet
    {
        type            zeroGradient;
    }
}


// ************************************************************************* //
