/*--------------------------------*- C++ -*----------------------------------*\
  =========                 |
  \\      /  F ield         | OpenFOAM: The Open Source CFD Toolbox
   \\    /   O peration     | Website:  https://openfoam.org
    \\  /    A nd           | Version:  6
     \\/     M anipulation  |
\*---------------------------------------------------------------------------*/
FoamFile
{
    version     2.0;
    format      ascii;
    class       surfaceScalarField;
    location    "900";
    object      phi;
}
// * * * * * * * * * * * * * * * * * * * * * * * * * * * * * * * * * * * * * //

dimensions      [1 0 -1 0 0 0 0];

internalField   nonuniform List<scalar> 
852
(
-0.00317594
0.00323343
-0.00442884
0.00125299
-0.00515435
0.000725599
-0.00542653
0.000272259
-0.00517944
-0.000247001
-0.00435857
-0.000820797
-0.00302391
-0.00133458
-0.00138939
-0.00163445
0.000236797
-0.00162615
0.00143368
-0.00119683
0.00220464
-0.000770906
0.00254219
-0.000337502
0.0024285
0.000113744
0.00175143
0.000677128
0.00175363
-0.000934392
0.00093707
-0.00119731
0.000262844
-0.000713935
-0.000483429
4.04032e-05
-0.000754379
0.000733428
-0.000693058
0.00125331
-0.000519917
0.00155297
-0.000299696
0.0016906
-0.000137671
0.00176846
-7.79095e-05
0.00182454
-5.61273e-05
0.00186813
-4.3649e-05
0.00190483
-3.67722e-05
0.001936
-3.12483e-05
0.00195133
-1.54185e-05
0.00191929
3.1936e-05
0.00178475
0.000134428
0.00149871
0.000285914
0.000999811
0.000498752
0.00100269
-0.00228892
0.00567804
-0.00345828
0.00242244
-0.004222
0.00148941
-0.00453462
0.000584974
-0.00433192
-0.000449612
-0.00359583
-0.00155679
-0.00244582
-0.00248451
-0.00113565
-0.00294455
8.71695e-05
-0.00284893
0.00109922
-0.00220884
0.00178996
-0.00146163
0.00217518
-0.000722687
0.00229059
-1.62077e-06
0.0022586
0.000709156
0.00265022
0.00136206
0.00130989
0.00134032
0.00130989
-0.000393626
0.00133901
5.84566e-06
-0.000136729
0.000631828
-0.00110946
0.00105411
-0.00117669
0.00140574
-0.0010447
0.00168049
-0.000794688
0.00174497
-0.000364202
0.0017578
-0.000150532
0.00177277
-9.29085e-05
0.00178593
-6.93285e-05
0.0017955
-5.32637e-05
0.00180328
-4.46053e-05
0.00181094
-3.89747e-05
0.00181571
-2.02689e-05
0.00178346
6.40884e-05
0.00161
0.000307765
0.00127864
0.000617129
0.000795852
0.000981371
0.00180703
-0.00161912
0.00753654
-0.00261146
0.00341488
-0.00331746
0.0021955
-0.00361493
0.000882532
-0.00340943
-0.00065501
-0.00269999
-0.00226614
-0.00167727
-0.00350711
-0.00061332
-0.00400842
0.000309424
-0.00377164
0.00108697
-0.00298638
0.00164868
-0.00202333
0.00199144
-0.00106544
0.00216897
-0.000179125
0.00225045
0.00062771
0.00225543
0.00135712
0.00169634
0.00189945
0.00300628
0.00121585
0.000136724
0.0018079
-0.000728847
0.00186167
-0.00116325
0.00195347
-0.00126851
0.00206214
-0.00115338
0.00225831
-0.000990875
0.00189424
0.00174384
0.00165106
0.00158186
0.00152871
0.00148421
0.00144532
0.00142512
0.00148923
0.00125141
0.000545426
0.000967461
0.000900895
0.000581498
0.00136713
0.00240223
-0.00113214
0.00898028
-0.00190102
0.00418384
-0.00240032
0.00269489
-0.00258594
0.00106825
-0.0022647
-0.000976143
-0.00153641
-0.00299431
-0.000665763
-0.00437763
0.000118525
-0.00479262
0.000760252
-0.00441334
0.00128406
-0.0035102
0.00165833
-0.00239763
0.00188742
-0.00129455
0.00202283
-0.000314539
0.00212884
0.000521705
0.00227748
0.00120851
0.00253784
0.00163913
0.00373599
0.00180816
0.0029785
0.000768764
0.00307353
4.17156e-05
0.00293518
-0.00059048
0.00272605
-0.000954098
0.00251821
-0.00106065
0.00233422
-0.00096939
0.00207078
-0.000727455
0.00234889
-0.00027829
0.00243069
-8.1975e-05
0.00243469
-4.17882e-06
0.00239068
4.38295e-05
0.00230431
8.61845e-05
0.00217293
0.000131201
0.00198271
0.000190036
0.00170301
0.000279506
0.00127401
0.000428807
0.00107475
0.000744579
0.000797227
0.00117826
0.00045896
0.00170519
0.00287955
-0.000783268
0.0101374
-0.00134117
0.00474183
-0.00147055
0.00282436
-0.00136442
0.000962211
-0.000771017
-0.00156945
-3.91702e-05
-0.00372601
0.000578606
-0.00499526
0.00102484
-0.00523876
0.00134288
-0.00473136
0.00156296
-0.00373033
0.00168362
-0.00251835
0.00173007
-0.00134106
0.00176237
-0.000346875
0.00185225
0.000431819
0.00207291
0.000987856
0.00243597
0.00127609
0.00295327
0.0012909
0.00301437
0.000707711
0.00303028
2.58484e-05
0.00287626
-0.000436433
0.00261561
-0.000693418
0.00232172
-0.000766768
0.00204187
-0.000689569
0.00181118
-0.000496801
0.00175666
-0.000223825
0.0017028
-2.81778e-05
0.00162647
7.20977e-05
0.00154801
0.00012222
0.0014736
0.00016053
0.00139688
0.000207855
0.00130602
0.000280831
0.00118881
0.000396648
0.00104568
0.000571858
0.000931823
0.000858336
0.000831837
0.00127809
0.00064394
0.00189288
0.00086148
0.00266176
-0.000892579
0.00175365
-0.00139084
0.000497763
-0.00134547
-0.000630264
0.0111949
-0.000954055
0.00506571
-0.000504638
0.00237502
0.000255301
0.000202351
0.00111755
-0.00243158
0.00170708
-0.00431537
0.00198532
-0.00527333
0.00205139
-0.00530474
0.00196681
-0.00464678
0.00179747
-0.00356107
0.00158775
-0.00230874
0.00138642
-0.00113983
0.00126158
-0.000222097
0.00127642
0.000416936
0.00145408
0.000810195
0.00175245
0.000977721
0.00213237
0.000910997
0.00233506
0.000505045
0.00230363
5.72981e-05
0.0021289
-0.000261705
0.00186939
-0.000433933
0.00157653
-0.000473958
0.00129333
-0.000406441
0.00105825
-0.000261808
0.000909606
-7.52809e-05
0.000816421
6.49041e-05
0.000757314
0.000131103
0.000723802
0.000155633
0.000712854
0.000171382
0.000720365
0.000200248
0.000740435
0.000260667
0.00076936
0.000367629
0.0008077
0.000533422
0.000884734
0.000781193
0.00104347
0.00111921
0.00130785
0.00162832
0.00184008
0.00212929
0.00212011
0.00147338
0.0017422
0.000875407
0.000452357
-0.000491584
0.0121644
-0.000168735
0.00474294
0.00134072
0.000865639
0.00260594
-0.00106281
0.00335952
-0.00318501
0.00365204
-0.0046077
0.00350806
-0.00512917
0.00305653
-0.00485313
0.00244465
-0.00403494
0.0017956
-0.00291215
0.00119605
-0.00170936
0.00072337
-0.000667292
0.000462141
3.90234e-05
0.000438546
0.00044047
0.000600449
0.000648259
0.000863895
0.000714257
0.00114747
0.000627412
0.00128321
0.000369282
0.00124094
9.95243e-05
0.00107705
-9.7885e-05
0.000840068
-0.000197041
0.000573322
-0.00020733
0.000316171
-0.000149426
0.000103322
-4.91088e-05
-3.06146e-05
5.85031e-05
-8.85183e-05
0.000122659
-9.6424e-05
0.000138868
-7.01879e-05
0.000129265
-1.12127e-05
0.000112282
8.16987e-05
0.000107217
0.00020575
0.000136499
0.00035894
0.000214324
0.000541188
0.000351061
0.0007716
0.000550665
0.00108977
0.000800914
0.00155062
0.0011673
0.00225117
0.00142853
0.00278626
0.00093804
0.00286492
0.00079648
0.00338176
0.00312972
0.00957153
0.00411988
0.00375286
0.00484619
0.000139402
0.00585631
-0.0020728
0.00618507
-0.00351356
0.00579625
-0.00421865
0.00489356
-0.00422632
0.00369352
-0.00365307
0.00242462
-0.00276615
0.00125617
-0.00174392
0.000290413
-0.00074384
-0.000314632
-6.24331e-05
-0.00054637
0.000270634
-0.000523449
0.000417452
-0.000370164
0.000494892
-0.000162879
0.000506895
2.23932e-05
0.000442055
8.95558e-05
0.000302016
3.15602e-05
0.000157392
-0.000117719
5.12468e-05
-0.000319303
4.37063e-06
-0.000535576
8.7519e-06
-0.000728878
4.36729e-05
-0.000866436
8.82451e-05
-0.000931341
0.000123209
-0.000940792
0.000131924
-0.000914836
0.000112738
-0.000859177
7.34453e-05
-0.000772561
2.55161e-05
-0.000650832
-1.46559e-05
-0.000487983
-2.64987e-05
-0.000286208
1.23944e-05
-4.1597e-05
0.000106292
0.000255963
0.00025294
0.000612335
0.000444393
0.00109551
0.00068397
0.00170441
0.00081945
0.0019741
0.000668111
0.00102332
0.00174699
0.00465228
0.0101675
0.0139168
0.0122546
0.00180162
0.0109079
-0.00072582
0.0092309
-0.00183627
0.00726803
-0.00225555
0.00518655
-0.00214477
0.00311404
-0.00158067
0.00123438
-0.000886717
-0.000255103
-0.000254768
-0.00116275
0.00016356
-0.00151426
0.000288867
-0.00157602
0.000332224
-0.00151543
0.000356707
-0.00139474
0.000374047
-0.0012616
0.000373588
-0.00116325
0.000343523
-0.00114402
0.000282592
-0.001203
0.000216149
-0.00131645
0.000164463
-0.00145009
0.00013777
-0.00157456
0.000132965
-0.00167148
0.000140335
-0.00173362
0.000150141
-0.00176552
0.000154876
-0.00178387
0.000150052
-0.00180772
0.000136382
-0.00185176
0.000117284
-0.00192403
9.75747e-05
-0.00202637
8.74406e-05
-0.00215869
0.000105542
-0.00232314
0.000176518
-0.00254797
0.000330805
-0.00289104
0.000595718
-0.00343689
0.000989982
-0.00427124
0.00151806
-0.00552721
0.00207514
-0.00721535
0.00235594
-0.00711123
0.00164255
-0.002204
0.00529381
0.00333504
0.00375262
0.000815533
0.0030697
-0.00115338
0.00196774
-0.00115379
0.00052408
-0.000701439
-0.000893163
-0.000163867
-0.00193179
0.000151578
-0.00246862
0.000281762
-0.00262721
0.00032189
-0.00264103
0.00030245
-0.00258959
0.000280552
-0.00250693
0.000273815
-0.00241278
0.000279658
-0.00232634
0.000286899
-0.00226759
0.00028452
-0.00225266
0.000267386
-0.00227839
0.000241598
-0.00232975
0.000215534
-0.00238758
0.000195302
-0.00243714
0.000182225
-0.00247157
0.000174472
-0.00249108
0.000169365
-0.00250111
0.000164632
-0.00251044
0.00015912
-0.00252757
0.000153264
-0.0025587
0.000148157
-0.00260708
0.00014569
-0.0026717
0.000151762
-0.00274719
0.000180684
-0.00282743
0.000256366
-0.00290554
0.000408519
-0.00297481
0.000664615
-0.00302175
0.00103657
-0.00300285
0.00149884
-0.0028779
0.00194988
-0.00241044
0.00188814
-0.000958576
0.00019035
-0.00310322
-0.000171278
0.00357688
-6.2248e-05
0.000706075
-0.00132609
0.000110107
-0.00251014
2.99041e-05
-0.00334132
0.000129375
-0.00373532
0.000229786
-0.00384826
0.000264199
-0.00382263
0.000255823
-0.00372881
0.000227782
-0.00362117
0.000194524
-0.00351379
0.000172889
-0.00340738
0.000167107
-0.00330155
0.000173538
-0.00319989
0.000184941
-0.00310963
0.000193948
-0.00303822
0.000195663
-0.00298695
0.000190004
-0.0029513
0.000179561
-0.00292402
0.000167704
-0.00289903
0.000156908
-0.00287332
0.000148437
-0.00284682
0.000142546
-0.00282124
0.000138728
-0.00279861
0.000136186
-0.00278011
0.000134461
-0.00276587
0.000133613
-0.00275506
0.000134583
-0.00274397
0.000140346
-0.00272103
0.000157396
-0.00266194
0.000196895
-0.00252983
0.000276003
-0.00228415
0.000418514
-0.00188528
0.000637302
-0.00126017
0.000873343
-0.000220284
0.000909623
0.00124369
0.000423809
0.00208731
-0.000653673
-0.000951258
-0.00746338
-0.0102603
-0.00665282
-0.00594219
-0.00583702
-0.00581631
-0.00569873
-0.00548282
-0.00523416
-0.00499513
-0.00478505
-0.00460892
-0.00445496
-0.00430727
-0.00415363
-0.00398911
-0.00381619
-0.00364221
-0.00347458
-0.00331803
-0.00317388
-0.00304096
-0.00291684
-0.00279884
-0.00268485
-0.00257356
-0.00246414
-0.00235568
-0.00224631
-0.00213111
-0.00199863
-0.00182619
-0.00157394
-0.00117824
-0.000562669
0.00028998
0.0011791
0.00158081
0.000902319
)
;

boundaryField
{
    floor
    {
        type            calculated;
        value           nonuniform List<scalar> 
29
(
0
0
0
0
0
0
0
0
0
0
0
0
0
0
0
0
0
0
0
0
-3.06773e-06
-8.70417e-06
-1.39374e-05
-1.85988e-05
-2.14188e-06
-2.77387e-06
-8.42456e-06
-1.36851e-05
-1.12371e-05
)
;
    }
    ceiling
    {
        type            calculated;
        value           nonuniform List<scalar> 
43
(
-3.24086e-05
-3.17905e-05
-3.09741e-05
-4.95852e-06
4.58242e-06
8.85305e-06
1.14632e-05
1.35486e-05
1.52186e-05
1.64701e-05
1.73866e-05
1.8074e-05
1.8618e-05
1.90954e-05
1.95731e-05
2.01002e-05
2.06991e-05
2.13593e-05
2.2037e-05
2.26733e-05
2.32177e-05
2.36465e-05
2.39658e-05
2.42021e-05
2.43878e-05
2.45484e-05
2.4693e-05
2.48099e-05
2.48651e-05
2.48057e-05
2.45699e-05
2.4103e-05
2.33771e-05
2.24138e-05
2.13161e-05
2.02701e-05
2.0079e-05
2.16539e-05
2.4343e-05
2.79711e-05
5.95868e-06
3.67521e-06
-7.05177e-05
)
;
    }
    sWall
    {
        type            calculated;
        value           uniform -0.000251172;
    }
    nWall
    {
        type            calculated;
        value           nonuniform List<scalar> 6(-4.58652e-05 -5.59179e-05 -6.47808e-05 -5.97862e-05 -6.50965e-05 -7.74226e-05);
    }
    sideWalls
    {
        type            empty;
        value           nonuniform 0();
    }
    glass1
    {
        type            calculated;
        value           nonuniform List<scalar> 9(-5.74008e-05 -0.000155592 -0.000239296 -0.0003115 -0.000373712 -0.000427197 -0.000477826 -0.000536736 -0.000601847);
    }
    glass2
    {
        type            calculated;
        value           nonuniform List<scalar> 2(-0.000247501 -0.000255291);
    }
    sun
    {
        type            calculated;
        value           uniform 0;
    }
    heatsource1
    {
        type            calculated;
        value           nonuniform List<scalar> 3(2.03638e-07 2.03495e-07 2.03567e-07);
    }
    heatsource2
    {
        type            calculated;
        value           nonuniform List<scalar> 4(5.11117e-08 5.12956e-08 0 0);
    }
    Table_master
    {
        type            calculated;
        value           nonuniform List<scalar> 9(-1.53044e-07 -1.53233e-07 -1.53296e-07 -1.53334e-07 -1.5336e-07 -1.53376e-07 -1.53383e-07 -1.53383e-07 -1.53345e-07);
    }
    Table_slave
    {
        type            calculated;
        value           nonuniform List<scalar> 9(1.52769e-07 1.52795e-07 1.5278e-07 1.52767e-07 1.52771e-07 1.52791e-07 1.5283e-07 1.52891e-07 1.52986e-07);
    }
    inlet
    {
        type            calculated;
        value           uniform -0.00682699;
    }
    outlet
    {
        type            calculated;
        value           nonuniform List<scalar> 2(0.00774653 0.00282823);
    }
}


// ************************************************************************* //
