/*--------------------------------*- C++ -*----------------------------------*\
  =========                 |
  \\      /  F ield         | OpenFOAM: The Open Source CFD Toolbox
   \\    /   O peration     | Website:  https://openfoam.org
    \\  /    A nd           | Version:  6
     \\/     M anipulation  |
\*---------------------------------------------------------------------------*/
FoamFile
{
    version     2.0;
    format      ascii;
    class       volScalarField;
    location    "1400";
    object      nut;
}
// * * * * * * * * * * * * * * * * * * * * * * * * * * * * * * * * * * * * * //

dimensions      [0 2 -1 0 0 0 0];

internalField   nonuniform List<scalar> 
459
(
0.00108085
0.0011809
0.0012029
0.00126073
0.00131428
0.0013644
0.00141353
0.0014615
0.00149529
0.00150941
0.0014988
0.00146033
0.00139386
0.00130494
0.00120739
0.00047422
0.000579815
0.000652135
0.000647952
0.000625564
0.000596208
0.000559459
0.000523055
0.000489991
0.000460612
0.00043458
0.000411442
0.000390863
0.000372382
0.00035534
0.00033888
0.000321743
0.00030948
0.000281879
0.00147254
0.00359892
0.00344465
0.00400938
0.00456475
0.00511998
0.00560971
0.00597861
0.0063121
0.00658305
0.00675354
0.00678057
0.00659873
0.00604383
0.00452088
0.00123114
0.000723811
0.000512804
0.00107639
0.0014857
0.00177748
0.00193097
0.00192256
0.00154651
0.00133429
0.00118213
0.00106507
0.000971779
0.000895752
0.000830183
0.000769186
0.000710213
0.000657923
0.000612596
0.000718362
0.00036806
0.0017985
0.00491698
0.00427665
0.0053618
0.00590452
0.00630783
0.00662141
0.00687195
0.00714345
0.00742614
0.00768654
0.00787722
0.00794572
0.00781441
0.00727814
0.00561013
0.00122478
0.00102295
0.0014693
0.0018806
0.00224483
0.002489
0.00241666
0.000800941
0.000707298
0.000632081
0.000571385
0.000521928
0.000481199
0.000447394
0.000419363
0.000396622
0.000427153
0.00049338
0.000808048
0.000425632
0.00211127
0.0062836
0.00429169
0.00567665
0.00615314
0.00631692
0.00642457
0.00655533
0.00677281
0.00706265
0.00739019
0.00769648
0.00792708
0.00802061
0.00790505
0.00732927
0.0053636
0.00146565
0.00181777
0.00234519
0.00285002
0.00324432
0.00347933
0.00325166
0.000903883
0.000822874
0.000764816
0.000720546
0.000682967
0.000648551
0.000615553
0.000580994
0.000540981
0.000507087
0.000517881
0.000922588
0.000470285
0.00243018
0.00803731
0.0047194
0.00546868
0.00609812
0.00614208
0.00609344
0.00616646
0.00635911
0.00665342
0.00702029
0.0073788
0.00765355
0.00778366
0.00774772
0.0075037
0.00688362
0.00569292
0.00528388
0.00514611
0.0050943
0.00505738
0.00499377
0.00479286
0.00404323
0.00368258
0.00347277
0.00331122
0.0031417
0.00289823
0.00256955
0.00217028
0.00172645
0.00127894
0.000943242
0.000947127
0.000630923
0.000579526
0.000701736
0.000787722
0.00276818
0.00994708
0.0064942
0.00544963
0.00592383
0.00613741
0.00600591
0.00606576
0.00621062
0.0064734
0.00684255
0.00723456
0.00753654
0.00766137
0.00758916
0.00736715
0.00707184
0.00676441
0.00658909
0.00645549
0.00630279
0.00612908
0.00593668
0.00570137
0.00536151
0.00505955
0.00479278
0.00453746
0.00427742
0.00399432
0.00363735
0.00319342
0.00266282
0.00207592
0.00155716
0.00116628
0.000880401
0.000748617
0.00106754
0.000822016
0.00307562
0.0112841
0.00909627
0.00702722
0.00664829
0.00656429
0.00634372
0.00620463
0.00625042
0.00650563
0.00691383
0.00735034
0.00766808
0.00776451
0.00762973
0.00736166
0.00713089
0.00705005
0.00705235
0.00697678
0.00678123
0.00650358
0.00617813
0.00582255
0.00545158
0.00510813
0.00479307
0.00449878
0.00422557
0.00398006
0.00376213
0.00346544
0.00305041
0.00254401
0.00205733
0.0016227
0.00130453
0.00120703
0.00123186
0.000936979
0.00313505
0.0100403
0.00892225
0.008241
0.00763408
0.00693392
0.00638798
0.00617231
0.00630727
0.00671731
0.00726109
0.00775882
0.00804231
0.00803163
0.00776759
0.00741884
0.00720858
0.00720228
0.00719433
0.00696244
0.00657165
0.00609843
0.00560323
0.00513497
0.00472507
0.00437964
0.00408557
0.00383613
0.00363494
0.00349031
0.00340984
0.0033684
0.00316127
0.00283604
0.00254997
0.00240396
0.00249707
0.00287756
0.00353325
0.00146166
0.00305168
0.00361818
0.00401585
0.00411385
0.00419791
0.00443118
0.00490166
0.00561748
0.00649463
0.00738074
0.0081125
0.00853621
0.00854974
0.00820266
0.00768347
0.00732977
0.00712162
0.00693245
0.00662205
0.00614214
0.00556323
0.0049722
0.00443948
0.00399917
0.00364964
0.00336985
0.00313897
0.00294479
0.0027797
0.00263592
0.00250492
0.00238528
0.00229118
0.00222184
0.00219539
0.00220465
0.00219182
0.00210398
0.00196668
0.00137458
0.00148257
0.00305844
0.0049836
0.00658987
0.00784617
0.00880593
0.00941235
0.00965341
0.0095657
0.00914295
0.00847357
0.00763675
0.00692458
0.0064777
0.00610852
0.00565945
0.0051191
0.00454959
0.00401407
0.00355315
0.00318852
0.00290644
0.00268543
0.00250919
0.00236858
0.00225926
0.00217913
0.00212718
0.00210508
0.00211052
0.00212945
0.00215772
0.0021875
0.00219482
0.00214113
0.00201419
0.0018232
0.00114264
0.00198562
0.00513265
0.00767689
0.00865557
0.00915148
0.00931044
0.00910689
0.00860259
0.00790304
0.00711083
0.00635926
0.00568693
0.00514148
0.00467436
0.00420446
0.00374597
0.00334379
0.00302004
0.00277147
0.00258209
0.00242791
0.00229681
0.00218408
0.00209366
0.00202787
0.00198622
0.00196732
0.00196905
0.00199667
0.00204726
0.00211729
0.00219925
0.00227685
0.00233043
0.00231267
0.00233816
0.00237065
0.00116494
0.00177718
0.00188319
0.00195828
0.00210948
0.00204085
0.00195759
0.00190331
0.00182622
0.00171543
0.0015777
0.00142268
0.00126146
0.00110485
0.00097034
0.000868588
0.000796184
0.000744827
0.000707867
0.00068122
0.000662478
0.000650076
0.000643038
0.000640718
0.000643296
0.000651229
0.000664136
0.00068191
0.000704905
0.000733695
0.000769115
0.000810208
0.000857033
0.000910098
0.000969851
0.00103582
0.00111425
0.00113951
0.00111022
0.001043
0.000971697
)
;

boundaryField
{
    floor
    {
        type            nutkWallFunction;
        Cmu             0.09;
        kappa           0.41;
        E               9.8;
        value           nonuniform List<scalar> 
29
(
0.000144861
5.64021e-05
6.98159e-05
7.88275e-05
7.83096e-05
7.55313e-05
7.18699e-05
6.72552e-05
6.26471e-05
5.84274e-05
5.46481e-05
5.12742e-05
4.82539e-05
4.55494e-05
4.31051e-05
4.08374e-05
3.86337e-05
3.63245e-05
3.46623e-05
3.08883e-05
3.08883e-05
4.25309e-05
5.0108e-05
5.58949e-05
0.000144861
5.64021e-05
6.13422e-05
0.000123422
0.000174276
)
;
    }
    ceiling
    {
        type            nutkWallFunction;
        Cmu             0.09;
        kappa           0.41;
        E               9.8;
        value           nonuniform List<scalar> 
43
(
0.000208868
0.000220514
0.000228723
0.000245247
0.000237843
0.000228789
0.000222862
0.000214406
0.000202179
0.000186853
0.000169425
0.000151074
0.000132993
0.000117229
0.000105138
9.64344e-05
9.02044e-05
8.56894e-05
8.24169e-05
8.0106e-05
7.85727e-05
7.77009e-05
7.74132e-05
7.77328e-05
7.87153e-05
8.03107e-05
8.25018e-05
8.53264e-05
8.88473e-05
9.31567e-05
9.81273e-05
0.000103755
0.00011009
0.000117172
0.000124933
0.000134087
0.00013702
0.000133619
0.000125775
0.000117391
0.000345525
0.000404078
0.000231575
)
;
    }
    sWall
    {
        type            nutkWallFunction;
        Cmu             0.09;
        kappa           0.41;
        E               9.8;
        value           uniform 0.000208926;
    }
    nWall
    {
        type            nutkWallFunction;
        Cmu             0.09;
        kappa           0.41;
        E               9.8;
        value           nonuniform List<scalar> 6(9.54114e-05 9.9551e-05 0.000113286 0.000137393 0.000139975 0.000117396);
    }
    sideWalls
    {
        type            empty;
    }
    glass1
    {
        type            nutkWallFunction;
        Cmu             0.09;
        kappa           0.41;
        E               9.8;
        value           nonuniform List<scalar> 9(0.000130301 0.000175274 0.000211665 0.000245909 0.000280267 0.000316166 0.000348422 0.000354628 0.000345949);
    }
    glass2
    {
        type            nutkWallFunction;
        Cmu             0.09;
        kappa           0.41;
        E               9.8;
        value           nonuniform List<scalar> 2(0.000173899 0.000164041);
    }
    sun
    {
        type            nutkWallFunction;
        Cmu             0.09;
        kappa           0.41;
        E               9.8;
        value           nonuniform List<scalar> 
14
(
0.0001302
0.000141807
0.000144344
0.00015099
0.000157114
0.00016282
0.000168391
0.000173809
0.000177614
0.000179201
0.000178008
0.000173677
0.000166161
0.000156047
)
;
    }
    heatsource1
    {
        type            nutkWallFunction;
        Cmu             0.09;
        kappa           0.41;
        E               9.8;
        value           nonuniform List<scalar> 3(6.97813e-05 8.49381e-05 9.54111e-05);
    }
    heatsource2
    {
        type            nutkWallFunction;
        Cmu             0.09;
        kappa           0.41;
        E               9.8;
        value           nonuniform List<scalar> 4(0.000147588 8.76415e-05 8.76414e-05 0.000146858);
    }
    Table_master
    {
        type            nutkWallFunction;
        Cmu             0.09;
        kappa           0.41;
        E               9.8;
        value           nonuniform List<scalar> 9(9.70087e-05 8.56206e-05 7.63433e-05 6.87599e-05 6.2508e-05 5.73046e-05 5.29443e-05 4.92973e-05 4.6316e-05);
    }
    Table_slave
    {
        type            nutkWallFunction;
        Cmu             0.09;
        kappa           0.41;
        E               9.8;
        value           nonuniform List<scalar> 9(0.000109349 9.96527e-05 9.26351e-05 8.7242e-05 8.26328e-05 7.83851e-05 7.42868e-05 6.99659e-05 6.49238e-05);
    }
    inlet
    {
        type            calculated;
        value           uniform 0.000100623;
    }
    outlet
    {
        type            calculated;
        value           nonuniform List<scalar> 2(0.00177718 0.00188319);
    }
}


// ************************************************************************* //
