/*--------------------------------*- C++ -*----------------------------------*\
  =========                 |
  \\      /  F ield         | OpenFOAM: The Open Source CFD Toolbox
   \\    /   O peration     | Website:  https://openfoam.org
    \\  /    A nd           | Version:  6
     \\/     M anipulation  |
\*---------------------------------------------------------------------------*/
FoamFile
{
    version     2.0;
    format      ascii;
    class       surfaceScalarField;
    location    "420";
    object      phi;
}
// * * * * * * * * * * * * * * * * * * * * * * * * * * * * * * * * * * * * * //

dimensions      [1 0 -1 0 0 0 0];

internalField   nonuniform List<scalar> 
852
(
0.00078671
-0.000790674
0.00114407
-0.000357425
0.00222631
-0.00108231
0.00317127
-0.000945021
0.00377497
-0.000603775
0.00410182
-0.000326909
0.00423368
-0.000131935
0.00422617
7.45095e-06
0.0041121
0.000113996
0.00390818
0.00020386
0.00361618
0.000291925
0.00321692
0.000399192
0.00265358
0.000563275
0.00175787
0.000895643
0.00175419
-5.69293e-06
8.34648e-07
-0.000127431
0.000121651
0.000210436
-0.000337951
0.000688912
-0.00047856
0.00107116
-0.000382336
0.00132752
-0.00025644
0.00147402
-0.000146584
0.00155311
-7.91733e-05
0.00160456
-5.15358e-05
0.00164216
-3.76889e-05
0.00166898
-2.69119e-05
0.00168447
-1.55784e-05
0.00168264
1.74463e-06
0.00164811
3.44448e-05
0.00154737
0.000100644
0.00132332
0.000223966
0.000924487
0.000398738
0.0002008
0.000723594
0.00019392
0.000339126
-0.00114103
0.000959782
-0.000978148
0.00188227
-0.00200488
0.00265178
-0.0017146
0.00313594
-0.00108801
0.00338019
-0.000571231
0.00345844
-0.000210262
0.00342197
4.3859e-05
0.00330299
0.000232904
0.00312375
0.000383023
0.00289554
0.000520066
0.00262318
0.000671483
0.0023205
0.000865883
0.00209542
0.00112065
0.00239524
0.0014543
0.00115046
0.00124465
0.00115034
-6.25151e-05
5.28462e-05
0.000433156
-0.000374106
0.000834754
-0.000739632
0.00113421
-0.0007781
0.00136285
-0.000611059
0.00150468
-0.000398347
0.0015348
-0.000176791
0.0015454
-8.98561e-05
0.0015554
-6.16207e-05
0.00156395
-4.63287e-05
0.00157068
-3.37319e-05
0.00157574
-2.07241e-05
0.00157675
6.50202e-07
0.00156708
4.40276e-05
0.00151297
0.000154662
0.00129824
0.000438606
0.000957198
0.000739685
0.000581163
0.00109954
0.000757322
8.4612e-05
-0.00124369
0.000579059
-0.00147266
0.00133729
-0.00276319
0.00197141
-0.00234881
0.00230211
-0.00141879
0.00242557
-0.000694765
0.00242747
-0.000212242
0.00236133
0.000109926
0.00226406
0.000330093
0.00215421
0.000492804
0.00203908
0.000635121
0.00192523
0.000785261
0.00182782
0.00096322
0.00176672
0.00118167
0.00172173
0.00149923
0.00124401
0.0017223
0.00239428
0.000246008
-0.000210821
0.00101769
-0.00114587
0.00139818
-0.0011202
0.0015664
-0.000946398
0.001662
-0.000706743
0.0017127
-0.000449137
0.00153598
0.0014462
0.00138465
0.00133839
0.00130472
0.00128407
0.00128478
0.00132888
0.0014836
0.00121522
0.000706901
0.000980083
0.000974728
0.000741042
0.00133848
0.00147135
-0.000129277
-0.0011389
8.9389e-05
-0.0016914
0.000656419
-0.0033303
0.00117802
-0.00287052
0.00134333
-0.00158419
0.00133738
-0.00068891
0.00127515
-0.000150094
0.00121834
0.000166662
0.0011903
0.000358055
0.00118543
0.000497593
0.0011962
0.000624278
0.00122266
0.000758718
0.00127158
0.000914233
0.00135135
0.00110183
0.00150253
0.00134798
0.00174349
0.00148126
0.00262398
0.00151372
0.00215661
0.000443502
0.00245297
-0.000507251
0.00214807
-0.000841043
0.00198746
-0.000959672
0.0018843
-0.000843315
0.00181158
-0.000634109
0.00174808
-0.00038572
0.00185992
-0.000112089
0.00185844
1.23592e-06
0.00179854
5.96575e-05
0.00170056
9.77378e-05
0.00157146
0.000128854
0.0014123
0.000158911
0.00121828
0.000193778
0.000975277
0.000242752
0.000644015
0.000331012
0.000743168
0.000607654
0.000794216
0.000923586
0.000895376
0.00123723
0.00233251
-0.00038066
-0.000788794
-0.000402792
-0.00166934
-8.56646e-06
-0.00372461
0.000372327
-0.00325153
0.000408325
-0.00162029
0.000328928
-0.000609608
0.000271683
-9.29371e-05
0.00027418
0.000164084
0.000322888
0.000309266
0.000400505
0.000419897
0.000499696
0.000525008
0.000622058
0.000636278
0.000778035
0.000758179
0.000989501
0.000890286
0.00130965
0.00102776
0.00172672
0.00106411
0.00226869
0.000971666
0.00247101
0.000241109
0.00232657
-0.000362882
0.00212648
-0.000641032
0.00188743
-0.000720702
0.0016788
-0.000634775
0.00150657
-0.000461969
0.0013737
-0.000252936
0.00130415
-4.26338e-05
0.00120868
9.66166e-05
0.00109587
0.000172375
0.000974318
0.000219191
0.000845826
0.000257251
0.000709332
0.000295308
0.000564187
0.000338827
0.000414116
0.000392726
0.00030663
0.0004384
0.000382989
0.000531198
0.000658813
0.000647666
0.00132955
0.000566395
0.00236564
0.00129633
0.00107519
0.00129015
-9.11469e-05
0.00116603
-0.000124545
-0.000534767
-0.00029
-0.000802229
-0.00140194
-0.000562066
-0.00396486
-0.000317317
-0.00349639
-0.000288427
-0.0016493
-0.000329877
-0.000568255
-0.000347037
-7.58659e-05
-0.000318103
0.000135065
-0.000250117
0.000241196
-0.0001485
0.000318196
-1.42134e-05
0.000390639
0.000154079
0.000467904
0.000361218
0.000550959
0.000621628
0.000629796
0.000958464
0.000690847
0.00134823
0.000674269
0.00178836
0.000531456
0.00192557
0.00010382
0.00181386
-0.000251257
0.00161271
-0.000439965
0.00136486
-0.00047294
0.00112244
-0.000392447
0.000909769
-0.000249389
0.000733488
-7.67507e-05
0.000599783
9.09753e-05
0.000492461
0.000203841
0.000393453
0.000271286
0.000294421
0.000318124
0.000193107
0.000358466
9.11998e-05
0.000397116
-2.97204e-06
0.000432899
-6.74439e-05
0.000457097
-7.00841e-05
0.00044094
6.32699e-05
0.000397745
0.000317455
0.000393383
0.00054343
0.000340324
0.000745968
0.00109369
0.000353148
0.00168287
-0.000295982
0.00181506
-0.000453095
-0.000411354
8.11418e-05
-0.00105997
-0.000753385
-0.000885094
-0.00413982
-0.000655729
-0.00372587
-0.000601157
-0.00170399
-0.000627819
-0.000541696
-0.00065728
-4.64992e-05
-0.000647674
0.000125367
-0.000595457
0.000188889
-0.000505146
0.000227797
-0.000379691
0.000265096
-0.000217158
0.000305284
-1.16102e-05
0.000345325
0.000236925
0.000381176
0.000525301
0.000402386
0.000828691
0.000370796
0.00110086
0.000259205
0.00116095
4.36426e-05
0.00105198
-0.000142383
0.000850927
-0.000239001
0.000611529
-0.000233637
0.000374265
-0.00015528
0.000161823
-3.70461e-05
-5.36577e-06
9.03383e-05
-0.000114936
0.000200445
-0.000188926
0.00027773
-0.000252763
0.000335022
-0.000315114
0.000380373
-0.000374289
0.000417539
-0.000422324
0.000445048
-0.000445998
0.00045647
-0.000428837
0.000439834
-0.00036693
0.000378931
-0.000263577
0.000294291
-0.000130648
0.000260356
-5.83851e-05
0.000267962
0.000105078
0.000930133
-2.01234e-05
0.00180798
-0.000170227
0.00196506
-0.000653673
-0.000170509
0.000207255
-0.00113154
0.000207599
-0.000659037
-0.00461238
-0.000439943
-0.00394507
-0.000557448
-0.00158662
-0.000736949
-0.000362306
-0.000848155
6.46049e-05
-0.000882242
0.000159355
-0.000859718
0.000166269
-0.00079543
0.000163412
-0.000697382
0.000166952
-0.000569122
0.000176929
-0.000413414
0.000189523
-0.000233211
0.00020088
-3.52724e-05
0.000204354
0.000149531
0.0001859
0.000273671
0.00013497
0.000270317
4.69009e-05
0.000155961
-2.81248e-05
-2.95153e-05
-5.36246e-05
-0.000238691
-2.45628e-05
-0.000431892
3.78181e-05
-0.000581279
0.000112237
-0.000676524
0.000185478
-0.0007301
0.000253917
-0.000763569
0.000311095
-0.000786941
0.000358289
-0.000802178
0.000395505
-0.00080502
0.000420277
-0.000787545
0.000427468
-0.00074096
0.00040978
-0.000660538
0.000359307
-0.000555882
0.000274171
-0.000440462
0.000178767
-0.000304577
0.000124369
-0.000198553
0.000161837
0.000125157
0.000606324
0.000460096
0.00147294
0.00118202
0.00124304
0.000357778
0.000124475
0.000296473
0.000665202
-0.00498115
0.000285994
-0.00356596
-0.000442028
-0.000858741
-0.000905171
0.000100719
-0.00110599
0.000265316
-0.00117346
0.000226723
-0.00117593
0.000168627
-0.00114141
0.000128791
-0.00108244
0.000107882
-0.00100578
0.000100162
-0.000916939
0.000100582
-0.000821932
0.000105771
-0.000730079
0.0001124
-0.000659202
0.000114922
-0.000631602
0.000107268
-0.000670587
8.57824e-05
-0.000767347
6.85308e-05
-0.000893227
7.21497e-05
-0.00101441
9.65145e-05
-0.00110835
0.000131651
-0.00116834
0.000172123
-0.0011979
0.000214925
-0.00120216
0.000258072
-0.00118912
0.000297949
-0.00116277
0.000331827
-0.00112349
0.000356115
-0.00106946
0.000366139
-0.000998251
0.000356154
-0.000908646
0.000320067
-0.000803152
0.000253705
-0.0006896
0.000160512
-0.000569932
5.89931e-05
-0.000421144
-2.45243e-05
-0.00024637
-1.30409e-05
0.000118856
0.000240996
0.000720054
0.000871642
0.0013048
0.000658186
0.00147828
0.00317632
-0.0017106
0.000417814
-0.000807521
-0.000917851
0.000476783
-0.00139735
0.0005801
-0.00152811
0.000395965
-0.00155753
0.000256025
-0.00155441
0.000165405
-0.00153785
0.000112119
-0.00151383
8.37482e-05
-0.00148523
7.14565e-05
-0.00145473
6.99743e-05
-0.00142538
7.6311e-05
-0.00140106
8.79761e-05
-0.00138745
0.000101201
-0.00139105
0.000110761
-0.0014183
0.000112927
-0.00146281
0.000112926
-0.00150873
0.000117959
-0.00154201
0.00012968
-0.00155655
0.000146085
-0.00155081
0.00016627
-0.00152564
0.000189644
-0.00148255
0.000214878
-0.00142405
0.000239334
-0.00135221
0.000259879
-0.00126898
0.000272777
-0.00117674
0.00027379
-0.00107907
0.000258378
-0.000981579
0.000222462
-0.000892254
0.000164271
-0.000819423
8.75726e-05
-0.000765922
5.38347e-06
-0.000717585
-7.29686e-05
-0.000654474
-7.62588e-05
-0.000553947
0.000140365
-0.000281545
0.000599136
-0.000104376
0.000480911
0.001338
-0.00181475
6.52106e-05
-0.00258563
-3.67486e-05
-0.00236908
0.00026011
-0.00214609
0.000356993
-0.00202417
0.000273928
-0.0019561
0.000187843
-0.00192002
0.00012921
-0.00190195
9.3937e-05
-0.0018929
7.45919e-05
-0.00188742
6.58666e-05
-0.00188213
6.45689e-05
-0.00187477
6.8843e-05
-0.00186414
7.7228e-05
-0.00185075
8.76988e-05
-0.00183741
9.73086e-05
-0.00182813
0.000103543
-0.00182269
0.000107368
-0.00181617
0.00011133
-0.00180319
0.00011659
-0.00178039
0.000123171
-0.00174549
0.000131258
-0.00169676
0.000140793
-0.00163304
0.000151054
-0.00155436
0.000160538
-0.00146192
0.000167325
-0.00135844
0.000169192
-0.00124856
0.000163794
-0.00113927
0.000148981
-0.0010405
0.000123576
-0.000965101
8.87628e-05
-0.00092692
4.92816e-05
-0.000932994
1.13476e-05
-0.000998371
-7.70019e-06
-0.00107848
3.73857e-06
-0.0010258
8.75853e-05
-0.000706806
0.00028003
-0.000636937
0.000410934
0.000655229
-0.00394763
-0.0031561
-0.00315009
-0.00324327
-0.00303927
-0.00273871
-0.00252136
-0.00239009
-0.00231747
-0.00228016
-0.00226225
-0.00225316
-0.00224544
-0.00223351
-0.00221325
-0.00218257
-0.00214233
-0.00209595
-0.00204586
-0.00199198
-0.00193299
-0.00186756
-0.00179416
-0.0017113
-0.00161819
-0.00151554
-0.00140595
-0.00129423
-0.00118754
-0.00109517
-0.00102764
-0.000994316
-0.000999967
-0.0010433
-0.00110571
-0.00115692
-0.00112396
-0.000897354
-0.00053932
)
;

boundaryField
{
    floor
    {
        type            calculated;
        value           nonuniform List<scalar> 
29
(
0
0
0
0
0
0
0
0
0
0
0
0
0
0
0
0
0
0
0
0
6.78548e-06
1.76663e-05
2.69226e-05
3.41166e-05
3.60964e-06
4.76559e-06
1.04126e-05
1.75729e-05
2.37961e-05
)
;
    }
    ceiling
    {
        type            calculated;
        value           nonuniform List<scalar> 
43
(
6.82158e-05
6.50658e-05
5.90817e-05
5.63203e-05
5.59905e-05
5.63205e-05
5.64544e-05
5.64637e-05
5.64718e-05
5.65104e-05
5.65753e-05
5.66541e-05
5.67336e-05
5.68028e-05
5.68565e-05
5.6901e-05
5.6956e-05
5.70442e-05
5.7172e-05
5.73262e-05
5.74854e-05
5.76305e-05
5.77458e-05
5.78177e-05
5.78317e-05
5.77719e-05
5.76212e-05
5.73641e-05
5.69904e-05
5.6503e-05
5.5928e-05
5.53285e-05
5.48209e-05
5.4567e-05
5.46007e-05
5.48361e-05
5.45188e-05
5.33135e-05
5.27899e-05
5.81616e-05
3.54083e-05
3.55523e-05
3.88265e-05
)
;
    }
    sWall
    {
        type            calculated;
        value           uniform 4.44051e-05;
    }
    nWall
    {
        type            calculated;
        value           nonuniform List<scalar> 6(3.30816e-05 3.24596e-05 3.02419e-05 3.57926e-05 4.57272e-05 5.76373e-05);
    }
    sideWalls
    {
        type            empty;
        value           nonuniform 0();
    }
    glass1
    {
        type            calculated;
        value           nonuniform List<scalar> 9(3.89991e-06 1.11686e-05 1.79782e-05 2.44283e-05 3.0488e-05 3.59106e-05 4.01504e-05 4.43464e-05 4.73219e-05);
    }
    glass2
    {
        type            calculated;
        value           nonuniform List<scalar> 2(0.000170458 0.000184189);
    }
    sun
    {
        type            calculated;
        value           uniform 0;
    }
    heatsource1
    {
        type            calculated;
        value           nonuniform List<scalar> 3(2.05822e-07 2.06236e-07 2.06385e-07);
    }
    heatsource2
    {
        type            calculated;
        value           nonuniform List<scalar> 4(5.16734e-08 5.18161e-08 0 0);
    }
    Table_master
    {
        type            calculated;
        value           nonuniform List<scalar> 9(-1.54763e-07 -1.54852e-07 -1.54876e-07 -1.54887e-07 -1.54891e-07 -1.54888e-07 -1.5488e-07 -1.54851e-07 -1.54787e-07);
    }
    Table_slave
    {
        type            calculated;
        value           nonuniform List<scalar> 9(1.54559e-07 1.54587e-07 1.5457e-07 1.54573e-07 1.54589e-07 1.54615e-07 1.54651e-07 1.54697e-07 1.54761e-07);
    }
    inlet
    {
        type            calculated;
        value           uniform -0.0064469;
    }
    outlet
    {
        type            calculated;
        value           nonuniform List<scalar> 2(0.00383489 -0.000856714);
    }
}


// ************************************************************************* //
