/*--------------------------------*- C++ -*----------------------------------*\
  =========                 |
  \\      /  F ield         | OpenFOAM: The Open Source CFD Toolbox
   \\    /   O peration     | Website:  https://openfoam.org
    \\  /    A nd           | Version:  6
     \\/     M anipulation  |
\*---------------------------------------------------------------------------*/
FoamFile
{
    version     2.0;
    format      ascii;
    class       volScalarField;
    location    "400";
    object      epsilon;
}
// * * * * * * * * * * * * * * * * * * * * * * * * * * * * * * * * * * * * * //

dimensions      [0 2 -3 0 0 0 0];

internalField   nonuniform List<scalar> 
459
(
0.000140138
0.000155353
0.000136891
0.000153054
0.000169663
0.000185668
0.000201139
0.000216438
0.000232183
0.000248855
0.000262942
0.000272881
0.000277452
0.000276518
0.000268785
4.37126e-05
7.68454e-05
7.81194e-05
8.36816e-05
9.06044e-05
7.83259e-05
5.71422e-05
4.14497e-05
2.97044e-05
1.98375e-05
1.04082e-05
3.70829e-06
2.48589e-06
2.99563e-06
4.01671e-06
5.14616e-06
9.75701e-06
4.53463e-05
2.95295e-05
0.000595387
0.00135601
0.000148866
0.000117132
0.000119247
0.000123892
0.000130027
0.00013868
0.000151024
0.000167823
0.000186838
0.000206401
0.00022377
0.000236163
0.000250611
0.000325344
9.7232e-05
0.000101576
0.000148409
7.7867e-05
6.82836e-05
6.62787e-05
6.13722e-05
4.88803e-05
3.30329e-05
2.29219e-05
1.59354e-05
1.09188e-05
8.42378e-06
7.87235e-06
8.37856e-06
9.21749e-06
9.97621e-06
1.64126e-05
0.000133122
6.63652e-05
0.00144575
0.00447284
0.000297362
0.000124956
0.000118446
0.00012339
0.000131338
0.000142533
0.000157393
0.000175847
0.000195737
0.000214187
0.000229011
0.000240783
0.000256705
0.000296931
0.000405565
0.000210291
0.000211585
0.000105387
8.01977e-05
7.03194e-05
6.92756e-05
8.37407e-05
3.68218e-05
2.30919e-05
1.72434e-05
1.37933e-05
1.18262e-05
1.06779e-05
9.95997e-06
9.60844e-06
1.19011e-05
2.57873e-05
0.000317954
0.000116513
0.0028404
0.0101507
0.000683848
0.000150214
0.000126293
0.000133202
0.000144378
0.000158812
0.000176905
0.000198836
0.000221789
0.000239886
0.000250978
0.000258225
0.000270283
0.000303448
0.000386612
0.000541089
0.000299641
0.000159577
0.000109679
8.32747e-05
7.28105e-05
7.98577e-05
0.000142202
0.000124019
0.000121767
0.000125273
0.00013079
0.000134476
0.000131928
0.000119643
0.000106264
7.48389e-05
6.58542e-05
0.000423118
0.000166525
0.00485299
0.0181599
0.00156938
0.000206584
0.000137081
0.000144639
0.000161519
0.000183938
0.000212281
0.000246516
0.000281091
0.000303491
0.000311217
0.000308592
0.000300751
0.000291434
0.000282835
0.000260409
0.000185567
0.00012713
9.63392e-05
8.43814e-05
8.04841e-05
8.63396e-05
8.73673e-05
8.28745e-05
8.49845e-05
9.15057e-05
9.97683e-05
0.000106269
0.000106823
9.87051e-05
8.83179e-05
7.77986e-05
7.32489e-05
0.0002
0.000244933
0.000194332
0.000201931
0.000311941
0.00756711
0.0259968
0.00354196
0.000408522
0.0001794
0.000168148
0.000185585
0.000216277
0.000260684
0.000322167
0.000377781
0.000403836
0.000404561
0.000390663
0.000368397
0.0003367
0.000289878
0.000227415
0.000162124
0.00011573
9.54473e-05
9.15748e-05
9.06604e-05
0.000101089
9.51757e-05
9.20798e-05
9.826e-05
0.000111531
0.000128866
0.00014601
0.00015673
0.000153276
0.00012983
0.000106664
9.23473e-05
0.000127883
0.000165744
0.000160915
0.000389911
0.000395118
0.0110154
0.0299736
0.00806118
0.00172253
0.000599842
0.000357764
0.000308846
0.000320764
0.000368172
0.000474272
0.000537839
0.000544987
0.000519707
0.000481081
0.000437476
0.000387261
0.000323689
0.000248299
0.000177276
0.000130613
0.000112194
0.000107903
0.000103332
0.000123357
0.00011673
0.000113496
0.00012225
0.000142245
0.000170518
0.000203647
0.00023596
0.000257636
0.000247574
0.000207528
0.000183542
0.000202799
0.000262687
0.000354739
0.000673111
0.000682091
0.0120012
0.0374916
0.017807
0.00964263
0.00477588
0.00231315
0.00132729
0.00097172
0.000867981
0.000863122
0.000812652
0.000735526
0.000651634
0.000571406
0.000497712
0.000427769
0.000355114
0.000278065
0.000207906
0.000163944
0.000146425
0.000136046
0.000120082
0.000156244
0.000153988
0.000150822
0.000160566
0.000184828
0.000222525
0.000273329
0.000337369
0.000413534
0.000497822
0.000544729
0.000634834
0.000962983
0.00167648
0.00256968
0.0064524
0.00178201
0.0111692
0.0195389
0.0154914
0.0114014
0.00801869
0.00538429
0.00360666
0.00251584
0.00188244
0.00144929
0.0011453
0.000926543
0.000763743
0.000637558
0.000535463
0.000449183
0.000372927
0.000304579
0.000248946
0.000215979
0.000202679
0.000179761
0.000142625
0.000202696
0.000214747
0.000210602
0.000215912
0.000237958
0.000276534
0.000334147
0.00041669
0.000531407
0.00068473
0.000882856
0.0011338
0.0014833
0.00185502
0.00214686
0.00239704
0.00140382
0.00628435
0.00815741
0.00649942
0.00485371
0.00355694
0.0026239
0.00198002
0.00152984
0.00120834
0.000973024
0.000795304
0.000656602
0.000545592
0.000455885
0.000384222
0.000329696
0.000294956
0.000287231
0.000289424
0.000240099
0.000172664
0.000265769
0.000320749
0.000316327
0.000308595
0.000318429
0.00034119
0.000376498
0.000429607
0.000510113
0.00063017
0.000794709
0.000989468
0.00119092
0.00132295
0.00130223
0.00111835
0.000718427
0.00453754
0.00727631
0.00580335
0.00432929
0.00327236
0.00248258
0.00189527
0.00146143
0.00113959
0.000896963
0.000712413
0.000571499
0.000464648
0.000385953
0.000332401
0.000303324
0.000299968
0.000321379
0.000344807
0.00030214
0.000210823
0.000343204
0.000427769
0.000430816
0.000414692
0.000403074
0.000400048
0.000411411
0.00044551
0.000512037
0.000623521
0.000781051
0.000973727
0.00117937
0.00132912
0.00142464
0.00093062
0.00075263
0.00304434
0.00353332
0.00399302
0.00474323
0.00402706
0.00310874
0.0024875
0.00200608
0.00161987
0.00131009
0.00106591
0.00088091
0.000732422
0.000609657
0.000507245
0.000422496
0.000354079
0.000301349
0.000264133
0.000242537
0.000232852
0.000215794
0.000204639
0.00025404
0.000284273
0.000287487
0.000289165
0.000297264
0.000313117
0.000339879
0.000383161
0.000451072
0.000542673
0.000664196
0.00081329
0.00100809
0.00107542
0.000989927
0.000786554
0.000611331
)
;

boundaryField
{
    floor
    {
        Cmu             0.09;
        kappa           0.41;
        E               9.8;
        type            epsilonWallFunction;
        value           nonuniform List<scalar> 
29
(
0.000268785
4.37126e-05
7.68454e-05
7.81194e-05
8.36816e-05
9.06044e-05
7.83259e-05
5.71422e-05
4.14497e-05
2.97044e-05
1.98375e-05
1.04082e-05
3.70829e-06
2.48589e-06
2.99563e-06
4.01671e-06
5.14616e-06
9.75701e-06
4.53463e-05
2.95295e-05
2.95295e-05
6.63652e-05
0.000116513
0.000166525
0.000268785
4.37126e-05
0.000101576
0.000210291
0.000541089
)
;
    }
    ceiling
    {
        Cmu             0.09;
        kappa           0.41;
        E               9.8;
        type            epsilonWallFunction;
        value           nonuniform List<scalar> 
43
(
0.00304434
0.00353332
0.00399302
0.00474323
0.00402706
0.00310874
0.0024875
0.00200608
0.00161987
0.00131009
0.00106591
0.00088091
0.000732422
0.000609657
0.000507245
0.000422496
0.000354079
0.000301349
0.000264133
0.000242537
0.000232852
0.000215794
0.000204639
0.00025404
0.000284273
0.000287487
0.000289165
0.000297264
0.000313117
0.000339879
0.000383161
0.000451072
0.000542673
0.000664196
0.00081329
0.00100809
0.00107542
0.000989927
0.000786554
0.000611331
0.0111692
0.0195389
0.00453754
)
;
    }
    sWall
    {
        Cmu             0.09;
        kappa           0.41;
        E               9.8;
        type            epsilonWallFunction;
        value           uniform 0.00304434;
    }
    nWall
    {
        Cmu             0.09;
        kappa           0.41;
        E               9.8;
        type            epsilonWallFunction;
        value           nonuniform List<scalar> 6(0.000311941 0.000395118 0.000682091 0.000718427 0.00075263 0.000611331);
    }
    sideWalls
    {
        type            empty;
    }
    glass1
    {
        Cmu             0.09;
        kappa           0.41;
        E               9.8;
        type            epsilonWallFunction;
        value           nonuniform List<scalar> 9(0.000140138 0.000595387 0.00144575 0.0028404 0.00485299 0.00756711 0.0110154 0.0120012 0.0111692);
    }
    glass2
    {
        Cmu             0.09;
        kappa           0.41;
        E               9.8;
        type            epsilonWallFunction;
        value           nonuniform List<scalar> 2(0.00178201 0.00140382);
    }
    sun
    {
        Cmu             0.09;
        kappa           0.41;
        E               9.8;
        type            epsilonWallFunction;
        value           nonuniform List<scalar> 
14
(
0.000140138
0.000155353
0.000136891
0.000153054
0.000169663
0.000185668
0.000201139
0.000216438
0.000232183
0.000248855
0.000262942
0.000272881
0.000277452
0.000276518
)
;
    }
    heatsource1
    {
        Cmu             0.09;
        kappa           0.41;
        E               9.8;
        type            epsilonWallFunction;
        value           nonuniform List<scalar> 3(0.000194332 0.000201931 0.000311941);
    }
    heatsource2
    {
        Cmu             0.09;
        kappa           0.41;
        E               9.8;
        type            epsilonWallFunction;
        value           nonuniform List<scalar> 4(0.000325344 9.7232e-05 9.7232e-05 0.000405565);
    }
    Table_master
    {
        Cmu             0.09;
        kappa           0.41;
        E               9.8;
        type            epsilonWallFunction;
        value           nonuniform List<scalar> 9(8.37407e-05 3.68218e-05 2.30919e-05 1.72434e-05 1.37933e-05 1.18262e-05 1.06779e-05 9.95997e-06 9.60844e-06);
    }
    Table_slave
    {
        Cmu             0.09;
        kappa           0.41;
        E               9.8;
        type            epsilonWallFunction;
        value           nonuniform List<scalar> 9(0.000142202 0.000124019 0.000121767 0.000125273 0.00013079 0.000134476 0.000131928 0.000119643 0.000106264);
    }
    inlet
    {
        type            turbulentMixingLengthDissipationRateInlet;
        mixingLength    0.01;
        phi             phi;
        k               k;
        value           uniform 0.000101881;
    }
    outlet
    {
        type            zeroGradient;
    }
}


// ************************************************************************* //
