/*--------------------------------*- C++ -*----------------------------------*\
  =========                 |
  \\      /  F ield         | OpenFOAM: The Open Source CFD Toolbox
   \\    /   O peration     | Website:  https://openfoam.org
    \\  /    A nd           | Version:  6
     \\/     M anipulation  |
\*---------------------------------------------------------------------------*/
FoamFile
{
    version     2.0;
    format      ascii;
    class       volScalarField;
    location    "400";
    object      nut;
}
// * * * * * * * * * * * * * * * * * * * * * * * * * * * * * * * * * * * * * //

dimensions      [0 2 -1 0 0 0 0];

internalField   nonuniform List<scalar> 
459
(
0.000734336
0.000760003
0.000728623
0.00075624
0.000782659
0.000806534
0.00082834
0.000848829
0.000868932
0.00088925
0.000905722
0.000916993
0.000922086
0.000921051
0.000912386
0.000498025
0.000601074
0.000604377
0.00061839
0.000634984
0.000604898
0.000544555
0.000489297
0.000437882
0.000382789
0.000308846
0.000218974
0.000191489
0.000203735
0.000224688
0.000244069
0.000302081
0.000504062
0.00043692
0.00118934
0.00194984
0.00154552
0.00189799
0.00204766
0.00220684
0.00236924
0.00252144
0.00264384
0.00271958
0.00275456
0.00271946
0.00256744
0.00222919
0.00164505
0.000972356
0.000650092
0.00065963
0.00266045
0.00266469
0.00263469
0.00243752
0.00201593
0.0013784
0.0010988
0.000845036
0.000640134
0.000517512
0.000484333
0.000511175
0.000575662
0.000645398
0.00068778
0.000610407
0.00108729
0.000572281
0.00159859
0.00308626
0.00163701
0.00269135
0.00294159
0.00309246
0.00321617
0.00331592
0.00339174
0.00343862
0.00345831
0.00341838
0.00327253
0.00295726
0.00242157
0.00172322
0.00104649
0.000840711
0.00327261
0.00329781
0.0030426
0.00266081
0.00203784
0.000618545
0.000470348
0.000402578
0.000365233
0.000339037
0.000322077
0.000311292
0.000304153
0.000300537
0.000376669
0.000460013
0.00138855
0.00069043
0.00200216
0.00466367
0.00169447
0.00296079
0.00343563
0.00356405
0.00363804
0.00369032
0.00373254
0.00376734
0.00380128
0.00382008
0.00379213
0.0036552
0.00330991
0.00267004
0.00182054
0.00115205
0.00246667
0.00344302
0.00338978
0.00292314
0.00253237
0.00205159
0.000737889
0.000705003
0.000700712
0.000707376
0.000717611
0.000724288
0.000719681
0.000696607
0.000669608
0.000674499
0.000725972
0.00148921
0.000777747
0.00239355
0.00656326
0.00217897
0.00276698
0.00363052
0.00378859
0.00383427
0.00385251
0.00386592
0.00388659
0.00392691
0.00400378
0.00411162
0.00423168
0.00432844
0.00435556
0.00428516
0.00410714
0.0039146
0.00359592
0.00311288
0.0026849
0.00251782
0.00281178
0.00291672
0.00301138
0.00308712
0.00315118
0.003186
0.00317245
0.00309538
0.00293873
0.00254842
0.00208702
0.00163636
0.00136531
0.00134832
0.000818794
0.000829417
0.000958796
0.00277556
0.00844554
0.00354866
0.00245311
0.00340069
0.00376504
0.00388426
0.00391757
0.00390389
0.00387662
0.00388109
0.00395378
0.00407991
0.00424591
0.0044205
0.00454058
0.0045185
0.00428905
0.00387302
0.00334978
0.00285015
0.00248261
0.00235725
0.00288952
0.00329189
0.00350874
0.00363932
0.00371694
0.00374629
0.00372777
0.00366599
0.00356674
0.00336498
0.00299807
0.00250862
0.00180893
0.00158366
0.00132023
0.00167069
0.00103738
0.00314563
0.00992951
0.00620334
0.00328665
0.00266426
0.0030014
0.0034705
0.00379881
0.00394908
0.00384782
0.00380043
0.00383452
0.00391848
0.00404347
0.00418701
0.00429313
0.00427641
0.00407477
0.00370331
0.00325044
0.00281592
0.00240572
0.00217929
0.00289247
0.00337326
0.00359539
0.00370839
0.00376139
0.00377285
0.00375618
0.00372978
0.00371395
0.00370525
0.00352714
0.00315333
0.00265541
0.00233347
0.00217789
0.00211344
0.00124444
0.00323681
0.0100173
0.00793347
0.00610989
0.00446083
0.00349317
0.00328175
0.00350171
0.00381192
0.00379165
0.00372314
0.00369709
0.00371697
0.00377145
0.0038442
0.00390603
0.00390371
0.00378321
0.00354488
0.00325972
0.00293498
0.00242935
0.00200812
0.00292184
0.00349545
0.00368681
0.00373314
0.0037247
0.00369045
0.00365692
0.00365855
0.00373021
0.00390518
0.0041524
0.00398394
0.00392521
0.00415586
0.00437464
0.00478255
0.00171399
0.00316021
0.00380781
0.00423412
0.00438867
0.00424856
0.00391038
0.00360213
0.00342478
0.00336331
0.00334509
0.00336166
0.00339658
0.00343594
0.00346922
0.00349009
0.00349384
0.00347096
0.0034109
0.0033267
0.00325292
0.00310059
0.00250003
0.00183494
0.00294733
0.00366724
0.00381784
0.00378173
0.00369406
0.00357423
0.00344631
0.00334096
0.0032714
0.00322716
0.00319012
0.00314931
0.00308772
0.00293919
0.002684
0.00243416
0.00158298
0.00220456
0.00365155
0.00400821
0.00397493
0.00382812
0.00367983
0.00356484
0.00347716
0.00341217
0.00335921
0.00330578
0.00324437
0.00317508
0.00310563
0.00304912
0.00302229
0.00305088
0.00316293
0.00319218
0.00251289
0.00166041
0.00290147
0.00386431
0.0039652
0.0038635
0.00375793
0.00361841
0.00345327
0.00330146
0.00319638
0.00314821
0.00312337
0.00306463
0.00293631
0.00269273
0.00233701
0.00193753
0.00126619
0.00234054
0.0041493
0.00439638
0.00425948
0.00408875
0.00390141
0.00371309
0.00353238
0.0033458
0.00312703
0.00290126
0.00268665
0.00249863
0.00235284
0.00226749
0.00226344
0.00236091
0.00256833
0.00274677
0.00221666
0.0014647
0.00260929
0.00352136
0.00354059
0.00343551
0.00337095
0.00330522
0.00323745
0.00318346
0.00315123
0.00319007
0.00325594
0.0032943
0.00327138
0.00315515
0.00297831
0.00249993
0.00128597
0.00204899
0.00215329
0.0022429
0.00237539
0.00224926
0.00206335
0.00191557
0.00178304
0.00166037
0.00154695
0.00144416
0.00135525
0.00127437
0.00119877
0.00112749
0.00106083
0.00100016
0.000947819
0.000907069
0.000881636
0.000869732
0.000847936
0.000833099
0.000895374
0.00092954
0.000933017
0.00093483
0.000943483
0.000959973
0.000986587
0.00102681
0.00108421
0.00115313
0.00123348
0.00131961
0.00141753
0.00144841
0.00140897
0.001305
0.00119984
)
;

boundaryField
{
    floor
    {
        type            nutkWallFunction;
        Cmu             0.09;
        kappa           0.41;
        E               9.8;
        value           nonuniform List<scalar> 
29
(
0.000110356
5.94701e-05
7.24864e-05
7.28988e-05
7.46459e-05
7.67091e-05
7.29648e-05
6.53843e-05
5.83515e-05
5.17178e-05
4.44973e-05
3.45856e-05
2.21115e-05
1.81851e-05
1.99568e-05
2.29453e-05
2.56746e-05
3.36894e-05
6.02545e-05
5.16077e-05
5.16077e-05
6.88935e-05
8.35629e-05
9.42089e-05
0.000110356
5.94701e-05
7.97615e-05
0.000101795
0.000138451
)
;
    }
    ceiling
    {
        type            nutkWallFunction;
        Cmu             0.09;
        kappa           0.41;
        E               9.8;
        value           nonuniform List<scalar> 
43
(
0.000238597
0.000249887
0.000259543
0.000273827
0.000260333
0.000240263
0.000224163
0.000209606
0.000196027
0.000183374
0.000171818
0.00016175
0.000152527
0.000143846
0.000135605
0.000127845
0.000120734
0.000114559
0.000109724
0.000106694
0.000105273
0.000102666
0.000100882
0.000108331
0.000112395
0.000112809
0.000113024
0.000114049
0.000115999
0.000119138
0.000123865
0.000130575
0.000138579
0.000147842
0.000157698
0.000168816
0.000172304
0.000167847
0.000156031
0.000143974
0.000356755
0.000423373
0.000269941
)
;
    }
    sWall
    {
        type            nutkWallFunction;
        Cmu             0.09;
        kappa           0.41;
        E               9.8;
        value           uniform 0.000238662;
    }
    nWall
    {
        type            nutkWallFunction;
        Cmu             0.09;
        kappa           0.41;
        E               9.8;
        value           nonuniform List<scalar> 6(0.000115861 0.000125109 0.00014911 0.000151607 0.00015387 0.000143986);
    }
    sideWalls
    {
        type            empty;
    }
    glass1
    {
        type            nutkWallFunction;
        Cmu             0.09;
        kappa           0.41;
        E               9.8;
        value           nonuniform List<scalar> 9(8.89035e-05 0.000142916 0.000189433 0.000234014 0.000276322 0.000316911 0.000355677 0.000365165 0.000357223);
    }
    glass2
    {
        type            nutkWallFunction;
        Cmu             0.09;
        kappa           0.41;
        E               9.8;
        value           nonuniform List<scalar> 2(0.000202097 0.000187514);
    }
    sun
    {
        type            nutkWallFunction;
        Cmu             0.09;
        kappa           0.41;
        E               9.8;
        value           nonuniform List<scalar> 
14
(
8.89274e-05
9.20517e-05
8.82307e-05
9.15943e-05
9.47984e-05
9.7683e-05
0.000100309
0.000102769
0.000105176
0.000107602
0.000109564
0.000110904
0.000111508
0.000111385
)
;
    }
    heatsource1
    {
        type            nutkWallFunction;
        Cmu             0.09;
        kappa           0.41;
        E               9.8;
        value           nonuniform List<scalar> 3(9.91675e-05 0.000100438 0.000115854);
    }
    heatsource2
    {
        type            nutkWallFunction;
        Cmu             0.09;
        kappa           0.41;
        E               9.8;
        value           nonuniform List<scalar> 4(0.000117455 7.8585e-05 7.8585e-05 0.000126164);
    }
    Table_master
    {
        type            nutkWallFunction;
        Cmu             0.09;
        kappa           0.41;
        E               9.8;
        value           nonuniform List<scalar> 9(7.46682e-05 5.59291e-05 4.71259e-05 4.21949e-05 3.86984e-05 3.6417e-05 3.49581e-05 3.39887e-05 3.34963e-05);
    }
    Table_slave
    {
        type            nutkWallFunction;
        Cmu             0.09;
        kappa           0.41;
        E               9.8;
        value           nonuniform List<scalar> 9(8.93653e-05 8.53464e-05 8.48202e-05 8.56366e-05 8.68891e-05 8.77051e-05 8.71426e-05 8.43175e-05 8.0997e-05);
    }
    inlet
    {
        type            calculated;
        value           uniform 0.000100623;
    }
    outlet
    {
        type            calculated;
        value           nonuniform List<scalar> 2(0.00204899 0.00215329);
    }
}


// ************************************************************************* //
