// -*- C++ -*-
// File generated by PyFoam - sorry for the ugliness

FoamFile
{
 version 2.0;
 format ascii;
 class volVectorField;
 location "200";
 object U;
}

dimensions [ 0 1 -1 0 0 0 0 ];

internalField nonuniform List<vector> 459
(
  (0.0244707 0.0892171 0)
  (-0.17558 0.0274411 0)
  (-0.204404 0.0158042 0)
  (-0.233316 0.00704564 0)
  (-0.248469 -0.00242654 0)
  (-0.247637 -0.0124113 0)
  (-0.229885 -0.0229033 0)
  (-0.196979 -0.0325877 0)
  (-0.152843 -0.039577 0)
  (-0.103513 -0.0427502 0)
  (-0.0553578 -0.0412999 0)
  (-0.0112444 -0.0331052 0)
  (0.0202045 -0.0170054 0)
  (0.0306229 -0.000499665 0)
  (0.0166737 0.023588 0)
  (-0.018023 0.0127594 0)
  (-0.0403013 -0.0146997 0)
  (-0.0176405 -0.0279487 0)
  (0.00857556 -0.0266389 0)
  (0.0301995 -0.0198933 0)
  (0.0479537 -0.013702 0)
  (0.0599108 -0.00796514 0)
  (0.0666429 -0.00485745 0)
  (0.0697983 -0.00364013 0)
  (0.0713804 -0.00313586 0)
  (0.072459 -0.00282057 0)
  (0.0732587 -0.00256201 0)
  (0.0737059 -0.00227416 0)
  (0.0735419 -0.00175415 0)
  (0.0721204 -0.000581159 0)
  (0.0680733 0.00184122 0)
  (0.0598621 0.00479118 0)
  (0.0487889 0.00862819 0)
  (0.000931638 0.0243877 0)
  (0.194704 0.183378 0)
  (-0.159927 0.075424 0)
  (-0.164338 0.0537739 0)
  (-0.194712 0.0352832 0)
  (-0.21051 0.0140027 0)
  (-0.210647 -0.00987038 0)
  (-0.194321 -0.0346959 0)
  (-0.164446 -0.0560649 0)
  (-0.125689 -0.0697949 0)
  (-0.0837579 -0.0743784 0)
  (-0.0439729 -0.0696453 0)
  (-0.00935668 -0.0549903 0)
  (0.017662 -0.0312294 0)
  (0.0351396 -0.00568423 0)
  (0.0438317 0.0206032 0)
  (0.0497933 0.0256836 0)
  (0.0354304 0.0326464 0)
  (0.0466332 0.0452079 0)
  (0.0111047 -0.0212196 0)
  (0.0279373 -0.038612 0)
  (0.0416756 -0.0369615 0)
  (0.0539432 -0.029111 0)
  (0.063864 -0.01995 0)
  (0.0686265 -0.00902491 0)
  (0.0698513 -0.00254543 0)
  (0.0698995 -3.98598e-06 0)
  (0.0700791 0.000973232 0)
  (0.0704011 0.001491 0)
  (0.0706518 0.00186673 0)
  (0.0707833 0.00236162 0)
  (0.0707333 0.00338356 0)
  (0.0699381 0.00587529 0)
  (0.0658462 0.0125452 0)
  (0.0556826 0.0187865 0)
  (0.0467345 0.0252047 0)
  (-0.0361382 0.0510816 0)
  (0.350899 0.273994 0)
  (-0.17089 0.118489 0)
  (-0.124047 0.0862795 0)
  (-0.153816 0.0546833 0)
  (-0.168385 0.0194994 0)
  (-0.16723 -0.0193876 0)
  (-0.149615 -0.0586028 0)
  (-0.120757 -0.0904489 0)
  (-0.086518 -0.108605 0)
  (-0.051798 -0.112286 0)
  (-0.0203629 -0.102521 0)
  (0.00661509 -0.0803609 0)
  (0.02742 -0.0511134 0)
  (0.0435093 -0.0199906 0)
  (0.0540633 0.0092092 0)
  (0.057046 0.0299004 0)
  (0.0514251 0.0639405 0)
  (0.109859 -0.00641644 0)
  (0.0762518 -0.034629 0)
  (0.0718911 -0.04511 0)
  (0.0741659 -0.0435969 0)
  (0.0767199 -0.0360702 0)
  (0.0796915 -0.0281499 0)
  (0.0788261 -0.0217244 0)
  (0.0714848 -0.0144577 0)
  (0.0659073 -0.0105205 0)
  (0.0633466 -0.00830372 0)
  (0.06215 -0.00688954 0)
  (0.0613318 -0.00592411 0)
  (0.0607984 -0.0051418 0)
  (0.061134 -0.00402616 0)
  (0.0637368 -0.000343478 0)
  (0.0613628 0.0177586 0)
  (0.0479971 0.0305997 0)
  (0.0474337 0.0413352 0)
  (-0.0727437 0.0772898 0)
  (0.492906 0.346772 0)
  (-0.19969 0.156074 0)
  (-0.0819013 0.114769 0)
  (-0.109871 0.0723063 0)
  (-0.119971 0.0248876 0)
  (-0.112309 -0.0291381 0)
  (-0.0904806 -0.0825641 0)
  (-0.062642 -0.122528 0)
  (-0.0347928 -0.142171 0)
  (-0.00925524 -0.143367 0)
  (0.0128128 -0.128074 0)
  (0.0300311 -0.101692 0)
  (0.0445456 -0.0685595 0)
  (0.0571389 -0.0337655 0)
  (0.0689846 -0.00109058 0)
  (0.0818633 0.0270205 0)
  (0.100323 0.0590312 0)
  (0.131036 0.0572581 0)
  (0.12629 0.000973853 0)
  (0.110672 -0.0273748 0)
  (0.0996881 -0.0378711 0)
  (0.0915168 -0.0384824 0)
  (0.0847501 -0.0331311 0)
  (0.0794119 -0.0241709 0)
  (0.0793883 -0.0140876 0)
  (0.0850851 -0.00918302 0)
  (0.0888153 -0.00637753 0)
  (0.0894747 -0.00449141 0)
  (0.087996 -0.00279404 0)
  (0.0847361 -0.0009829 0)
  (0.0791039 0.00122178 0)
  (0.069903 0.00426664 0)
  (0.053488 0.00895027 0)
  (0.0414208 0.0295097 0)
  (0.0312056 0.0452367 0)
  (0.0483783 0.0585458 0)
  (-0.114105 0.0979085 0)
  (0.617026 0.402733 0)
  (-0.23759 0.185856 0)
  (-0.0404918 0.13178 0)
  (-0.0633775 0.0828664 0)
  (-0.0647066 0.0256043 0)
  (-0.0409298 -0.0442171 0)
  (-0.014502 -0.10753 0)
  (0.00948945 -0.149599 0)
  (0.0272451 -0.165345 0)
  (0.0404485 -0.161685 0)
  (0.0497688 -0.143068 0)
  (0.0564726 -0.113946 0)
  (0.061922 -0.0791113 0)
  (0.0673508 -0.0437128 0)
  (0.0743657 -0.0120497 0)
  (0.0841147 0.0126765 0)
  (0.0987866 0.0250208 0)
  (0.109683 0.0048184 0)
  (0.10829 -0.0163935 0)
  (0.100451 -0.0266385 0)
  (0.0900095 -0.0302698 0)
  (0.079616 -0.0296228 0)
  (0.0704139 -0.0253993 0)
  (0.0632961 -0.0181381 0)
  (0.0598884 -0.00822859 0)
  (0.0598277 -0.00247906 0)
  (0.0599277 0.000277817 0)
  (0.0593281 0.00213446 0)
  (0.0584568 0.00417847 0)
  (0.0571195 0.00691708 0)
  (0.0547548 0.010754 0)
  (0.0508156 0.0161607 0)
  (0.0442249 0.0238 0)
  (0.037305 0.0381171 0)
  (0.0283881 0.0545114 0)
  (0.0560523 0.0732887 0)
  (-0.0314072 0.106436 0)
  (0.0455761 0.0275856 0)
  (-0.0626988 -0.0344432 0)
  (-0.272218 -0.0569692 0)
  (0.709843 0.448315 0)
  (-0.276462 0.204386 0)
  (-0.00699171 0.127802 0)
  (-0.0122057 0.0817134 0)
  (0.00948387 0.00939899 0)
  (0.0498004 -0.0721416 0)
  (0.0746634 -0.130844 0)
  (0.0888392 -0.164327 0)
  (0.0939786 -0.17465 0)
  (0.0926926 -0.166431 0)
  (0.0872855 -0.14465 0)
  (0.0801628 -0.114114 0)
  (0.0732761 -0.0792472 0)
  (0.0682677 -0.0451579 0)
  (0.066442 -0.0161956 0)
  (0.068519 0.00429772 0)
  (0.0747076 0.0128033 0)
  (0.0789764 0.00507621 0)
  (0.0772105 -0.00585587 0)
  (0.0701602 -0.0143174 0)
  (0.0606153 -0.0187292 0)
  (0.0508504 -0.019339 0)
  (0.0420131 -0.0168067 0)
  (0.0349943 -0.011872 0)
  (0.0307159 -0.00578057 0)
  (0.0291442 -0.0020592 0)
  (0.02894 -0.000291873 0)
  (0.0296347 0.00103642 0)
  (0.0309238 0.00296757 0)
  (0.0325427 0.00612243 0)
  (0.0340732 0.010973 0)
  (0.0353723 0.0178773 0)
  (0.0361646 0.0270857 0)
  (0.0376001 0.0395156 0)
  (0.0372236 0.0546075 0)
  (0.0648789 0.0755199 0)
  (0.0429368 0.0951704 0)
  (0.090508 0.0639828 0)
  (0.11543 0.0426899 0)
  (-0.131277 -0.00759384 0)
  (0.774471 0.489376 0)
  (-0.295081 0.186619 0)
  (0.0303105 0.0680884 0)
  (0.0647669 0.0340423 0)
  (0.120488 -0.0378414 0)
  (0.155975 -0.103914 0)
  (0.17249 -0.147875 0)
  (0.172823 -0.168542 0)
  (0.160664 -0.169242 0)
  (0.140415 -0.15463 0)
  (0.116405 -0.129877 0)
  (0.0924159 -0.0993521 0)
  (0.0709321 -0.0662634 0)
  (0.0540249 -0.0353331 0)
  (0.0426145 -0.0105735 0)
  (0.0369709 0.00526774 0)
  (0.037443 0.0108898 0)
  (0.0381695 0.00675038 0)
  (0.0358825 -0.000664431 0)
  (0.030474 -0.00694443 0)
  (0.0228864 -0.0103564 0)
  (0.0147735 -0.0109741 0)
  (0.00725148 -0.00941689 0)
  (0.00126367 -0.00642783 0)
  (-0.00234382 -0.00316954 0)
  (-0.00350941 -0.00147486 0)
  (-0.00302647 -0.00106524 0)
  (-0.00123408 -0.000892609 0)
  (0.00204811 0.000116527 0)
  (0.00676307 0.00285959 0)
  (0.0120453 0.0075808 0)
  (0.0182553 0.0141815 0)
  (0.0252827 0.0227322 0)
  (0.0342463 0.0331492 0)
  (0.0430954 0.0447782 0)
  (0.0678018 0.0612721 0)
  (0.0813769 0.0688548 0)
  (0.116866 0.0450954 0)
  (0.157983 0.0390387 0)
  (-0.0325376 0.090665 0)
  (0.884293 0.484521 0)
  (-0.042095 0.161954 0)
  (0.126657 -0.0271273 0)
  (0.234819 -0.0873251 0)
  (0.279107 -0.117184 0)
  (0.289567 -0.140407 0)
  (0.279094 -0.153508 0)
  (0.251924 -0.153866 0)
  (0.212904 -0.142523 0)
  (0.16773 -0.121889 0)
  (0.122049 -0.0959723 0)
  (0.0803471 -0.0680043 0)
  (0.0447092 -0.0394162 0)
  (0.0184765 -0.0146485 0)
  (0.000877211 0.00254835 0)
  (-0.00530497 0.0102298 0)
  (-0.00582869 0.0114723 0)
  (-0.00595622 0.0079782 0)
  (-0.00810981 0.00284622 0)
  (-0.012046 -0.00136099 0)
  (-0.0176348 -0.00362388 0)
  (-0.0237516 -0.00415782 0)
  (-0.0293385 -0.0035303 0)
  (-0.0336283 -0.00238761 0)
  (-0.0361289 -0.00151974 0)
  (-0.0369516 -0.00166732 0)
  (-0.0366014 -0.00269651 0)
  (-0.035348 -0.00403014 0)
  (-0.0331027 -0.00497224 0)
  (-0.0294515 -0.00481152 0)
  (-0.0231211 -0.00293285 0)
  (-0.0140572 0.000661001 0)
  (-0.00474472 0.00552507 0)
  (0.00820005 0.0109038 0)
  (0.0202404 0.0153852 0)
  (0.0396834 0.0219579 0)
  (0.0568323 0.0161871 0)
  (0.0738265 -0.00888159 0)
  (0.132416 0.0417094 0)
  (-0.430766 0.208355 0)
  (1.03842 0.426643 0)
  (0.494032 0.279431 0)
  (0.512638 0.172396 0)
  (0.53643 0.0738817 0)
  (0.498216 -0.00106107 0)
  (0.433105 -0.0523953 0)
  (0.361112 -0.0801779 0)
  (0.286574 -0.087934 0)
  (0.212196 -0.0812274 0)
  (0.141247 -0.0646377 0)
  (0.0785681 -0.0436053 0)
  (0.0261812 -0.0216823 0)
  (-0.0175508 -0.00109196 0)
  (-0.0378651 0.00827156 0)
  (-0.0461749 0.0118257 0)
  (-0.0484655 0.0126092 0)
  (-0.0484023 0.0115774 0)
  (-0.0485096 0.0089735 0)
  (-0.0500993 0.0057687 0)
  (-0.0531712 0.00306795 0)
  (-0.0570719 0.00135944 0)
  (-0.0611816 0.000479923 0)
  (-0.0649886 6.17862e-05 0)
  (-0.0680874 -0.000300614 0)
  (-0.0703745 -0.000978444 0)
  (-0.0721924 -0.00215115 0)
  (-0.0742017 -0.00356888 0)
  (-0.0769674 -0.0047686 0)
  (-0.0808879 -0.00516004 0)
  (-0.0864672 -0.00399047 0)
  (-0.0939633 -0.000544505 0)
  (-0.103331 0.00562837 0)
  (-0.114727 0.014659 0)
  (-0.131713 0.0268749 0)
  (-0.157488 0.0421271 0)
  (-0.193912 0.058844 0)
  (-0.244045 0.0725954 0)
  (-0.300355 0.0799452 0)
  (-0.365016 0.0813644 0)
  (-0.615887 0.0787598 0)
  (-0.0783815 -0.0222748 0)
  (0.108171 -0.0578293 0)
  (0.170656 -0.0797921 0)
  (0.145608 -0.0702195 0)
  (0.109835 -0.0519909 0)
  (0.0698501 -0.0331562 0)
  (0.0257867 -0.0146926 0)
  (-0.0246297 0.00343972 0)
  (-0.0569292 0.0124776 0)
  (-0.0768884 0.0168997 0)
  (-0.0853929 0.0174976 0)
  (-0.0883151 0.01616 0)
  (-0.0885942 0.0149901 0)
  (-0.0876665 0.0140986 0)
  (-0.0865397 0.0132071 0)
  (-0.0861233 0.0120972 0)
  (-0.0869094 0.0109818 0)
  (-0.0887883 0.0102581 0)
  (-0.0912872 0.010138 0)
  (-0.0939196 0.0105022 0)
  (-0.0963623 0.011044 0)
  (-0.0985062 0.0114296 0)
  (-0.100461 0.0113998 0)
  (-0.102472 0.0108555 0)
  (-0.104727 0.00992497 0)
  (-0.107363 0.00898302 0)
  (-0.110448 0.00861636 0)
  (-0.113768 0.00947677 0)
  (-0.117109 0.0123708 0)
  (-0.120375 0.0182571 0)
  (-0.1234 0.0280169 0)
  (-0.126372 0.0420587 0)
  (-0.12972 0.0595018 0)
  (-0.133483 0.0768437 0)
  (-0.134213 0.0850907 0)
  (-0.112372 0.0653671 0)
  (-0.0398658 -0.0230189 0)
  (-0.273151 -0.206212 0)
  (0.0718578 0.172713 0)
  (0.00623689 0.0430469 0)
  (-0.0300324 -0.00921868 0)
  (-0.0639974 -0.0102243 0)
  (-0.0953774 -0.00217429 0)
  (-0.118535 0.00465628 0)
  (-0.13202 0.00935349 0)
  (-0.137089 0.0106419 0)
  (-0.138001 0.00848944 0)
  (-0.135814 0.00576159 0)
  (-0.131603 0.00286048 0)
  (-0.12698 -0.000343721 0)
  (-0.122665 -0.00318025 0)
  (-0.118813 -0.00562649 0)
  (-0.115538 -0.00811688 0)
  (-0.11306 -0.0110946 0)
  (-0.111529 -0.0146889 0)
  (-0.110871 -0.0187203 0)
  (-0.110825 -0.022844 0)
  (-0.111087 -0.0267 0)
  (-0.111429 -0.0299879 0)
  (-0.111755 -0.0324822 0)
  (-0.112079 -0.0340024 0)
  (-0.112453 -0.0343526 0)
  (-0.11287 -0.033293 0)
  (-0.113207 -0.0306084 0)
  (-0.113214 -0.0261643 0)
  (-0.112501 -0.0198902 0)
  (-0.110475 -0.0116938 0)
  (-0.106209 -0.0013319 0)
  (-0.0985118 0.0117262 0)
  (-0.0863683 0.0279369 0)
  (-0.0694827 0.0463526 0)
  (-0.0484435 0.0623991 0)
  (-0.0262022 0.0695718 0)
  (0.0169115 0.047232 0)
  (0.141586 -0.01838 0)
  (-0.203283 -0.109241 0)
  (-0.0683167 -0.325107 0)
  (-0.418488 -0.123951 0)
  (-0.31188 0.0607584 0)
  (-0.285538 0.000295555 0)
  (-0.249411 0.000486189 0)
  (-0.243807 0.0089862 0)
  (-0.239583 0.0174493 0)
  (-0.232435 0.0250551 0)
  (-0.221568 0.0319349 0)
  (-0.208175 0.037624 0)
  (-0.194493 0.0419898 0)
  (-0.181807 0.045943 0)
  (-0.170648 0.0498015 0)
  (-0.161064 0.0537869 0)
  (-0.152667 0.0582002 0)
  (-0.144963 0.0632171 0)
  (-0.137641 0.0689319 0)
  (-0.130633 0.0753485 0)
  (-0.124015 0.0823029 0)
  (-0.117875 0.0894125 0)
  (-0.112265 0.0961282 0)
  (-0.107202 0.101882 0)
  (-0.102688 0.106224 0)
  (-0.0987325 0.108862 0)
  (-0.0953597 0.109599 0)
  (-0.0926057 0.108265 0)
  (-0.0904704 0.104749 0)
  (-0.0888452 0.0991336 0)
  (-0.087417 0.091839 0)
  (-0.0855279 0.0836856 0)
  (-0.08196 0.0757906 0)
  (-0.0747651 0.0693979 0)
  (-0.0616107 0.0657688 0)
  (-0.0411302 0.0660518 0)
  (-0.0138355 0.0706134 0)
  (0.0314311 0.0763023 0)
  (0.0680211 0.0742512 0)
  (0.104492 0.0624222 0)
  (0.161518 0.0394943 0)
  (-0.230109 -0.00541916 0)
)
;

boundaryField
{
  floor
  {
    type noSlip;
  }
  ceiling
  {
    type noSlip;
  }
  sWall
  {
    type noSlip;
  }
  nWall
  {
    type noSlip;
  }
  sideWalls
  {
    type empty;
  }
  glass1
  {
    type noSlip;
  }
  glass2
  {
    type noSlip;
  }
  sun
  {
    type noSlip;
  }
  heatsource1
  {
    type noSlip;
  }
  heatsource2
  {
    type noSlip;
  }
  Table_master
  {
    type noSlip;
  }
  Table_slave
  {
    type noSlip;
  }
  inlet
  {
    type fixedValue;
    value uniform (0.277164 -0.114805 0);
  }
  outlet
  {
    type zeroGradient;
  }
} 	// ************************************************************************* //

