/*--------------------------------*- C++ -*----------------------------------*\
  =========                 |
  \\      /  F ield         | OpenFOAM: The Open Source CFD Toolbox
   \\    /   O peration     | Website:  https://openfoam.org
    \\  /    A nd           | Version:  6
     \\/     M anipulation  |
\*---------------------------------------------------------------------------*/
FoamFile
{
    version     2.0;
    format      ascii;
    class       volScalarField;
    location    "300";
    object      epsilon;
}
// * * * * * * * * * * * * * * * * * * * * * * * * * * * * * * * * * * * * * //

dimensions      [0 2 -3 0 0 0 0];

internalField   nonuniform List<scalar> 
459
(
0.000453029
0.000589207
0.000618691
0.0007113
0.000805239
0.000900456
0.00100099
0.00110377
0.00117753
0.0012043
0.00116995
0.00107123
0.000919448
0.000742556
0.000578617
3.55808e-05
6.32603e-05
8.91148e-05
8.77857e-05
7.9277e-05
6.88574e-05
5.68678e-05
4.63818e-05
3.80376e-05
3.15184e-05
2.64061e-05
2.23606e-05
1.91453e-05
1.65349e-05
1.43552e-05
1.24513e-05
1.06851e-05
9.94557e-06
7.80483e-06
0.00116278
0.00167563
0.00055764
0.000538294
0.000564476
0.000607269
0.000669637
0.000750358
0.000824827
0.000869036
0.000864499
0.00080599
0.000701715
0.000575416
0.000485965
0.000603713
0.000123964
4.48848e-05
0.000104631
0.000109466
9.91584e-05
8.44436e-05
7.09556e-05
6.39765e-05
5.20022e-05
4.13727e-05
3.29198e-05
2.63822e-05
2.13507e-05
1.74957e-05
1.45363e-05
1.23725e-05
1.10285e-05
1.04488e-05
2.93598e-05
1.96137e-05
0.00212977
0.0041169
0.000706262
0.000522067
0.000547621
0.000616379
0.000716624
0.000839729
0.00094978
0.00101384
0.00101521
0.000954865
0.000845026
0.000708533
0.000589615
0.000522926
0.00060867
0.000342012
0.000240503
0.000179323
0.000137717
0.000108461
9.17744e-05
0.000167917
0.000115308
8.22893e-05
6.09004e-05
4.65576e-05
3.66195e-05
2.95451e-05
2.44189e-05
2.07317e-05
1.5908e-05
1.36139e-05
5.77274e-05
3.20861e-05
0.00345093
0.00850822
0.00113846
0.000542849
0.000549101
0.00064944
0.000807227
0.000995187
0.00113872
0.00120666
0.00119599
0.00111768
0.000986282
0.000822716
0.000675863
0.000569955
0.00053889
0.00101752
0.000564144
0.000334917
0.000222947
0.00016048
0.00012267
0.000106277
0.000246149
0.000187445
0.000152937
0.000130369
0.000113096
9.76464e-05
8.40991e-05
7.1089e-05
5.75331e-05
3.37641e-05
2.25055e-05
0.000101713
4.39069e-05
0.00525757
0.0150637
0.00226203
0.000672597
0.000587515
0.000724276
0.0010093
0.00128373
0.00143356
0.00147443
0.00142822
0.00131306
0.00114304
0.000941357
0.000741034
0.000568716
0.000442959
0.000385132
0.000307636
0.000239478
0.000186322
0.000146753
0.000118144
0.000100115
9.85536e-05
9.2821e-05
8.68828e-05
8.09317e-05
7.43855e-05
6.6839e-05
5.91586e-05
5.19635e-05
4.54322e-05
3.6205e-05
2.80566e-05
6.90199e-05
5.23311e-05
8.0937e-05
0.000139135
0.00019858
0.00775057
0.0222378
0.00504937
0.00133584
0.000922831
0.0010812
0.00159605
0.0018401
0.0018998
0.0018582
0.00175005
0.00158052
0.00135363
0.00109036
0.000826176
0.000596786
0.000427569
0.00032338
0.000257524
0.000207696
0.000166863
0.00013498
0.000111766
9.70345e-05
9.07681e-05
8.85988e-05
8.75936e-05
8.61376e-05
8.30671e-05
7.71759e-05
6.7706e-05
5.76377e-05
4.85461e-05
4.03688e-05
3.5323e-05
4.98633e-05
5.38206e-05
6.42162e-05
0.000257811
0.000230825
0.0106041
0.0265036
0.0102941
0.00429261
0.00298068
0.00293987
0.00295954
0.00282003
0.00262178
0.00241422
0.00219269
0.00193097
0.0016159
0.00126661
0.000924499
0.000633333
0.000425678
0.000300175
0.000228262
0.000181011
0.000145632
0.000119844
0.000102869
9.396e-05
9.20496e-05
9.44571e-05
9.8639e-05
0.000103325
0.000107425
0.000108999
0.00010445
9.24143e-05
8.06755e-05
7.12284e-05
6.85939e-05
7.99803e-05
0.000107003
0.000175902
0.000388813
0.000377372
0.0112181
0.0286895
0.0160185
0.0109426
0.00826033
0.00641877
0.00507002
0.00415923
0.0035559
0.00312683
0.00275626
0.00236109
0.00191084
0.00143657
0.000992091
0.000626379
0.000386236
0.000252456
0.000183467
0.000144761
0.000118959
0.000102421
9.36406e-05
9.14672e-05
9.47406e-05
0.000102109
0.000112688
0.000126437
0.000143617
0.000164164
0.000186947
0.000205424
0.000217908
0.000246513
0.000307062
0.000479975
0.000907314
0.00168208
0.00457851
0.00130227
0.0103366
0.0172078
0.0136825
0.0103815
0.00800894
0.00643162
0.00541727
0.00477037
0.00431552
0.00390013
0.00341882
0.00282191
0.0021347
0.0014704
0.000904786
0.000461703
0.000266677
0.000177632
0.000133038
0.000107771
9.237e-05
8.4223e-05
8.19633e-05
8.46701e-05
9.16988e-05
0.000102747
0.000118109
0.000138798
0.000166518
0.000203724
0.000253694
0.0003206
0.000411858
0.000543094
0.000732312
0.000979684
0.00124954
0.00147224
0.00165012
0.00103589
0.00384245
0.00588629
0.00681704
0.00688655
0.00664053
0.00618709
0.00550761
0.00463038
0.00362124
0.002513
0.00142864
0.000791517
0.000429791
0.000238025
0.000148429
0.000105325
8.29699e-05
7.07831e-05
6.47338e-05
6.29188e-05
6.44915e-05
6.90849e-05
7.656e-05
8.70896e-05
0.00010122
0.000119935
0.000144768
0.000178028
0.000223154
0.000285972
0.000372241
0.000488761
0.000637793
0.000802734
0.00093796
0.000990392
0.000906566
0.000571041
0.00299821
0.00661316
0.00725789
0.00589652
0.0051683
0.00439236
0.00343772
0.00249065
0.00169061
0.00107603
0.000615844
0.000341787
0.000194647
0.000120626
8.4637e-05
6.66898e-05
5.76213e-05
5.34895e-05
5.25933e-05
5.41137e-05
5.76804e-05
6.31482e-05
7.06881e-05
8.06531e-05
9.36074e-05
0.000110454
0.0001326
0.000162205
0.000202549
0.000257673
0.000332938
0.000433023
0.000556982
0.000698253
0.000792168
0.000877379
0.00081756
0.000599068
0.0021072
0.00249892
0.00280877
0.00345935
0.00306317
0.00260185
0.0023292
0.0020122
0.00163072
0.00123697
0.00087958
0.00058886
0.000375195
0.000238837
0.000160524
0.000116106
8.97461e-05
7.35082e-05
6.37062e-05
5.84909e-05
5.67414e-05
5.77296e-05
6.10825e-05
6.67316e-05
7.45871e-05
8.47524e-05
9.76725e-05
0.000114024
0.00013487
0.000162012
0.000197311
0.00024197
0.000298616
0.000370472
0.000460067
0.000594351
0.000621829
0.000565909
0.000465801
0.000367586
)
;

boundaryField
{
    floor
    {
        Cmu             0.09;
        kappa           0.41;
        E               9.8;
        type            epsilonWallFunction;
        value           nonuniform List<scalar> 
29
(
0.000578617
3.55808e-05
6.32603e-05
8.91148e-05
8.77857e-05
7.9277e-05
6.88574e-05
5.68678e-05
4.63818e-05
3.80376e-05
3.15184e-05
2.64061e-05
2.23606e-05
1.91453e-05
1.65349e-05
1.43552e-05
1.24513e-05
1.06851e-05
9.94557e-06
7.80483e-06
7.80483e-06
1.96137e-05
3.20861e-05
4.39069e-05
0.000578617
3.55808e-05
4.48848e-05
0.000342012
0.00101752
)
;
    }
    ceiling
    {
        Cmu             0.09;
        kappa           0.41;
        E               9.8;
        type            epsilonWallFunction;
        value           nonuniform List<scalar> 
43
(
0.0021072
0.00249892
0.00280877
0.00345935
0.00306317
0.00260185
0.0023292
0.0020122
0.00163072
0.00123697
0.00087958
0.00058886
0.000375195
0.000238837
0.000160524
0.000116106
8.97461e-05
7.35082e-05
6.37062e-05
5.84909e-05
5.67414e-05
5.77296e-05
6.10825e-05
6.67316e-05
7.45871e-05
8.47524e-05
9.76725e-05
0.000114024
0.00013487
0.000162012
0.000197311
0.00024197
0.000298616
0.000370472
0.000460067
0.000594351
0.000621829
0.000565909
0.000465801
0.000367586
0.0103366
0.0172078
0.00299821
)
;
    }
    sWall
    {
        Cmu             0.09;
        kappa           0.41;
        E               9.8;
        type            epsilonWallFunction;
        value           uniform 0.0021072;
    }
    nWall
    {
        Cmu             0.09;
        kappa           0.41;
        E               9.8;
        type            epsilonWallFunction;
        value           nonuniform List<scalar> 6(0.00019858 0.000230825 0.000377372 0.000571041 0.000599068 0.000367586);
    }
    sideWalls
    {
        type            empty;
    }
    glass1
    {
        Cmu             0.09;
        kappa           0.41;
        E               9.8;
        type            epsilonWallFunction;
        value           nonuniform List<scalar> 9(0.000453029 0.00116278 0.00212977 0.00345093 0.00525757 0.00775057 0.0106041 0.0112181 0.0103366);
    }
    glass2
    {
        Cmu             0.09;
        kappa           0.41;
        E               9.8;
        type            epsilonWallFunction;
        value           nonuniform List<scalar> 2(0.00130227 0.00103589);
    }
    sun
    {
        Cmu             0.09;
        kappa           0.41;
        E               9.8;
        type            epsilonWallFunction;
        value           nonuniform List<scalar> 
14
(
0.000453029
0.000589207
0.000618691
0.0007113
0.000805239
0.000900456
0.00100099
0.00110377
0.00117753
0.0012043
0.00116995
0.00107123
0.000919448
0.000742556
)
;
    }
    heatsource1
    {
        Cmu             0.09;
        kappa           0.41;
        E               9.8;
        type            epsilonWallFunction;
        value           nonuniform List<scalar> 3(8.0937e-05 0.000139135 0.00019858);
    }
    heatsource2
    {
        Cmu             0.09;
        kappa           0.41;
        E               9.8;
        type            epsilonWallFunction;
        value           nonuniform List<scalar> 4(0.000603713 0.000123964 0.000123964 0.00060867);
    }
    Table_master
    {
        Cmu             0.09;
        kappa           0.41;
        E               9.8;
        type            epsilonWallFunction;
        value           nonuniform List<scalar> 9(0.000167917 0.000115308 8.22893e-05 6.09004e-05 4.65576e-05 3.66195e-05 2.95451e-05 2.44189e-05 2.07317e-05);
    }
    Table_slave
    {
        Cmu             0.09;
        kappa           0.41;
        E               9.8;
        type            epsilonWallFunction;
        value           nonuniform List<scalar> 9(0.000246149 0.000187445 0.000152937 0.000130369 0.000113096 9.76464e-05 8.40991e-05 7.1089e-05 5.75331e-05);
    }
    inlet
    {
        type            turbulentMixingLengthDissipationRateInlet;
        mixingLength    0.01;
        phi             phi;
        k               k;
        value           uniform 0.000101881;
    }
    outlet
    {
        type            zeroGradient;
    }
}


// ************************************************************************* //
