// -*- C++ -*-
// File generated by PyFoam - sorry for the ugliness

FoamFile
{
 version 2.0;
 format ascii;
 class volVectorField;
 location "300";
 object U;
}

dimensions [ 0 1 -1 0 0 0 0 ];

internalField nonuniform List<vector> 459
(
  (0.0352152 0.0854467 0)
  (-0.166128 0.0251453 0)
  (-0.18966 0.017485 0)
  (-0.219785 0.0120648 0)
  (-0.24164 0.00604112 0)
  (-0.254286 -0.000311954 0)
  (-0.256333 -0.00701828 0)
  (-0.246707 -0.0140615 0)
  (-0.226122 -0.0208778 0)
  (-0.196217 -0.0263892 0)
  (-0.160116 -0.0297663 0)
  (-0.121331 -0.0307512 0)
  (-0.0831444 -0.0298802 0)
  (-0.0503338 -0.0288426 0)
  (-0.0369031 -0.0294986 0)
  (0.000310419 0.00753932 0)
  (-0.0239224 -0.0174882 0)
  (-0.00101987 -0.0257217 0)
  (0.019784 -0.0187699 0)
  (0.0344599 -0.0124262 0)
  (0.0452564 -0.00778244 0)
  (0.0515413 -0.00452859 0)
  (0.0545632 -0.00283971 0)
  (0.0558038 -0.00212756 0)
  (0.0563437 -0.00180611 0)
  (0.0566201 -0.00161663 0)
  (0.0567001 -0.00147407 0)
  (0.0565405 -0.00129372 0)
  (0.0559606 -0.000925522 0)
  (0.0544619 -1.18002e-05 0)
  (0.0509606 0.00193875 0)
  (0.0443447 0.00376335 0)
  (0.0397921 0.0047686 0)
  (-0.0174066 0.0194284 0)
  (0.20892 0.174848 0)
  (-0.15524 0.0663437 0)
  (-0.152615 0.0514471 0)
  (-0.18368 0.0400484 0)
  (-0.205218 0.0271322 0)
  (-0.217982 0.0127569 0)
  (-0.220571 -0.0032587 0)
  (-0.211754 -0.0203452 0)
  (-0.19278 -0.0362698 0)
  (-0.165645 -0.0485045 0)
  (-0.13364 -0.055362 0)
  (-0.100201 -0.05645 0)
  (-0.0684984 -0.0525226 0)
  (-0.0421498 -0.045262 0)
  (-0.0256569 -0.0361416 0)
  (-0.0127533 -0.0170861 0)
  (-0.00651023 0.0125676 0)
  (0.0702912 0.0309283 0)
  (0.0296369 -0.0174413 0)
  (0.0355774 -0.028782 0)
  (0.0459413 -0.0245086 0)
  (0.0537573 -0.0167418 0)
  (0.058849 -0.00966747 0)
  (0.0608163 -0.00381801 0)
  (0.0610687 -0.000558932 0)
  (0.0609579 0.000839184 0)
  (0.0610083 0.00147947 0)
  (0.0611403 0.00186833 0)
  (0.0612325 0.00218732 0)
  (0.0612431 0.00257532 0)
  (0.0611389 0.00335415 0)
  (0.0604137 0.00536261 0)
  (0.0567407 0.0111455 0)
  (0.0474771 0.015388 0)
  (0.0449904 0.0173088 0)
  (-0.0553111 0.0422407 0)
  (0.367612 0.261501 0)
  (-0.17168 0.105756 0)
  (-0.114734 0.083191 0)
  (-0.144703 0.0627896 0)
  (-0.163696 0.0415592 0)
  (-0.175315 0.0182748 0)
  (-0.17729 -0.00770654 0)
  (-0.167671 -0.0350054 0)
  (-0.148809 -0.0596374 0)
  (-0.123449 -0.0775508 0)
  (-0.0950766 -0.0865862 0)
  (-0.0666683 -0.0867572 0)
  (-0.0404356 -0.0793738 0)
  (-0.0184288 -0.0661479 0)
  (-0.00238941 -0.0484037 0)
  (0.00983259 -0.0236982 0)
  (0.0172605 0.00835969 0)
  (0.108766 -0.0368285 0)
  (0.070346 -0.0402352 0)
  (0.0650792 -0.0366623 0)
  (0.0669004 -0.0293676 0)
  (0.0681294 -0.0208449 0)
  (0.0687971 -0.0137245 0)
  (0.0673825 -0.0112732 0)
  (0.0639064 -0.00810097 0)
  (0.061587 -0.00640272 0)
  (0.0606618 -0.00545535 0)
  (0.0603711 -0.00487078 0)
  (0.0603136 -0.00447764 0)
  (0.0605037 -0.00409783 0)
  (0.0613576 -0.00342557 0)
  (0.0639493 -0.000565464 0)
  (0.0615141 0.0160487 0)
  (0.0476941 0.0266251 0)
  (0.0521563 0.0323201 0)
  (-0.0887999 0.0656647 0)
  (0.510043 0.331179 0)
  (-0.205331 0.140889 0)
  (-0.0749244 0.11007 0)
  (-0.102963 0.0818862 0)
  (-0.116473 0.0545597 0)
  (-0.124422 0.0239502 0)
  (-0.122868 -0.011792 0)
  (-0.110113 -0.0496901 0)
  (-0.090666 -0.0822155 0)
  (-0.067904 -0.10424 0)
  (-0.0448999 -0.113978 0)
  (-0.023569 -0.112545 0)
  (-0.00462862 -0.101998 0)
  (0.0115735 -0.0841496 0)
  (0.0247474 -0.0622231 0)
  (0.0386243 -0.0368603 0)
  (0.0596259 -0.0108359 0)
  (0.0882094 0.00566217 0)
  (0.0948952 -0.0292082 0)
  (0.0810606 -0.0349252 0)
  (0.0729468 -0.0310268 0)
  (0.06922 -0.0254407 0)
  (0.0667591 -0.0188431 0)
  (0.065696 -0.0110586 0)
  (0.0676567 -0.00673309 0)
  (0.0721455 -0.00564712 0)
  (0.0762214 -0.0050634 0)
  (0.0794591 -0.00456739 0)
  (0.0818862 -0.00379132 0)
  (0.082882 -0.0024606 0)
  (0.080977 -0.000313205 0)
  (0.0748185 0.00291336 0)
  (0.0616625 0.00774601 0)
  (0.049451 0.0272602 0)
  (0.0368821 0.0422215 0)
  (0.0559857 0.0524329 0)
  (-0.129169 0.0858568 0)
  (0.632321 0.385224 0)
  (-0.246061 0.16975 0)
  (-0.0359017 0.125281 0)
  (-0.059041 0.0924977 0)
  (-0.064468 0.0616962 0)
  (-0.0655727 0.0258667 0)
  (-0.0544434 -0.0188909 0)
  (-0.0365647 -0.0660099 0)
  (-0.0177153 -0.102933 0)
  (-0.000196436 -0.125505 0)
  (0.0143618 -0.133069 0)
  (0.0256097 -0.128522 0)
  (0.0342583 -0.115253 0)
  (0.0410206 -0.0959293 0)
  (0.0469803 -0.0733039 0)
  (0.0539388 -0.0500122 0)
  (0.0642971 -0.0312179 0)
  (0.0738213 -0.0264668 0)
  (0.0749327 -0.0321095 0)
  (0.0685232 -0.0307365 0)
  (0.0608053 -0.0260123 0)
  (0.0550072 -0.0210452 0)
  (0.0509927 -0.0160508 0)
  (0.0489994 -0.0109269 0)
  (0.0493949 -0.00655859 0)
  (0.0519535 -0.00479945 0)
  (0.0549775 -0.00435993 0)
  (0.05814 -0.0038898 0)
  (0.061248 -0.00242244 0)
  (0.0637584 0.00074893 0)
  (0.0645048 0.00571821 0)
  (0.0625009 0.0124849 0)
  (0.0571415 0.0214662 0)
  (0.0501408 0.0366487 0)
  (0.0393375 0.0535381 0)
  (0.0637417 0.0713997 0)
  (-0.0296784 0.0967319 0)
  (0.0460941 0.0262959 0)
  (-0.0614543 -0.0331488 0)
  (-0.273317 -0.0562219 0)
  (0.720327 0.430282 0)
  (-0.285363 0.18913 0)
  (-0.00647746 0.120734 0)
  (-0.0132295 0.0922557 0)
  (-0.00730478 0.0626108 0)
  (0.00248467 0.0195577 0)
  (0.0311551 -0.0360964 0)
  (0.0516486 -0.0844958 0)
  (0.0660097 -0.118269 0)
  (0.0742501 -0.136356 0)
  (0.0771098 -0.140259 0)
  (0.0760052 -0.13287 0)
  (0.0723282 -0.117462 0)
  (0.0674573 -0.0971418 0)
  (0.0628181 -0.0748272 0)
  (0.0596564 -0.0531163 0)
  (0.058793 -0.035571 0)
  (0.0580216 -0.0264596 0)
  (0.053916 -0.0241072 0)
  (0.0464842 -0.0221466 0)
  (0.0385519 -0.018983 0)
  (0.032287 -0.0156683 0)
  (0.0280588 -0.0125648 0)
  (0.0260405 -0.00966474 0)
  (0.0262273 -0.00760233 0)
  (0.0282306 -0.00735576 0)
  (0.0311831 -0.00789573 0)
  (0.0347661 -0.00800041 0)
  (0.0388059 -0.00663182 0)
  (0.0429742 -0.00279559 0)
  (0.0470578 0.00404117 0)
  (0.0493475 0.013261 0)
  (0.0500733 0.0245682 0)
  (0.0507508 0.0390048 0)
  (0.0493063 0.055649 0)
  (0.0728613 0.0765377 0)
  (0.0505289 0.0908473 0)
  (0.0933353 0.0631387 0)
  (0.116196 0.0429012 0)
  (-0.127738 -0.00601999 0)
  (0.773495 0.471372 0)
  (-0.304014 0.174793 0)
  (0.0216861 0.0690006 0)
  (0.0486728 0.0642107 0)
  (0.0685694 0.0445817 0)
  (0.101251 -0.00427589 0)
  (0.132208 -0.0589723 0)
  (0.149675 -0.100297 0)
  (0.154973 -0.12563 0)
  (0.150272 -0.13621 0)
  (0.138205 -0.134464 0)
  (0.121597 -0.123414 0)
  (0.102961 -0.106173 0)
  (0.0844065 -0.0857873 0)
  (0.0676336 -0.0648311 0)
  (0.0536323 -0.0452317 0)
  (0.0429001 -0.0295835 0)
  (0.0343544 -0.0201458 0)
  (0.026182 -0.0160477 0)
  (0.0179683 -0.0140189 0)
  (0.0106622 -0.0122142 0)
  (0.0051405 -0.0106785 0)
  (0.00155212 -0.00953342 0)
  (-8.28273e-05 -0.00876984 0)
  (0.000114279 -0.00875048 0)
  (0.00170074 -0.00981004 0)
  (0.00410393 -0.0112369 0)
  (0.00713758 -0.0121078 0)
  (0.0108776 -0.0114862 0)
  (0.0154999 -0.00825643 0)
  (0.0217554 -0.0012143 0)
  (0.0291368 0.00918205 0)
  (0.0356053 0.0209088 0)
  (0.0432972 0.0339023 0)
  (0.0513867 0.047559 0)
  (0.073997 0.06421 0)
  (0.0873145 0.0688238 0)
  (0.120014 0.0462172 0)
  (0.159159 0.0412756 0)
  (-0.0306833 0.0934149 0)
  (0.879111 0.473047 0)
  (-0.0650732 0.153637 0)
  (0.110203 -0.0116693 0)
  (0.181522 -0.0383444 0)
  (0.210318 -0.0511171 0)
  (0.241635 -0.0749324 0)
  (0.258935 -0.0981787 0)
  (0.259001 -0.114418 0)
  (0.243685 -0.121693 0)
  (0.217234 -0.120247 0)
  (0.184215 -0.111505 0)
  (0.148649 -0.0974061 0)
  (0.113648 -0.0799118 0)
  (0.0815306 -0.0613313 0)
  (0.0538583 -0.0435743 0)
  (0.0310446 -0.027683 0)
  (0.0140891 -0.0158646 0)
  (0.00189544 -0.00938229 0)
  (-0.00705174 -0.00712013 0)
  (-0.0139337 -0.00663931 0)
  (-0.0194114 -0.00658076 0)
  (-0.0234599 -0.00679702 0)
  (-0.0261958 -0.00732684 0)
  (-0.0277225 -0.00821045 0)
  (-0.028234 -0.00959609 0)
  (-0.0281123 -0.0114908 0)
  (-0.0277261 -0.0134958 0)
  (-0.0271668 -0.0150796 0)
  (-0.0262493 -0.0156704 0)
  (-0.0245211 -0.0146225 0)
  (-0.0209857 -0.0112018 0)
  (-0.0125545 -0.00466612 0)
  (-0.00135724 0.00442986 0)
  (0.0100982 0.0134156 0)
  (0.0220592 0.0198613 0)
  (0.0412955 0.0259351 0)
  (0.0578665 0.0174442 0)
  (0.0745077 -0.00797063 0)
  (0.132017 0.0428029 0)
  (-0.423662 0.2106 0)
  (1.02719 0.424546 0)
  (0.489005 0.280119 0)
  (0.503044 0.184893 0)
  (0.527551 0.113702 0)
  (0.507511 0.0620989 0)
  (0.464936 0.0141077 0)
  (0.415188 -0.0261185 0)
  (0.360725 -0.0535232 0)
  (0.301975 -0.0672274 0)
  (0.241893 -0.0694143 0)
  (0.183928 -0.0636472 0)
  (0.130656 -0.0531616 0)
  (0.0836984 -0.0400289 0)
  (0.0444069 -0.0264834 0)
  (0.0127741 -0.0142728 0)
  (-0.012917 -0.00446374 0)
  (-0.0268864 -0.000639272 0)
  (-0.0354174 0.000128626 0)
  (-0.0409581 -0.000548032 0)
  (-0.0451789 -0.00164044 0)
  (-0.0487939 -0.00275283 0)
  (-0.0518342 -0.00396754 0)
  (-0.0544278 -0.00534701 0)
  (-0.0566992 -0.00691748 0)
  (-0.0588808 -0.00870292 0)
  (-0.0613145 -0.0106008 0)
  (-0.0643505 -0.0123009 0)
  (-0.0682852 -0.0133542 0)
  (-0.0734274 -0.013176 0)
  (-0.0801925 -0.0110234 0)
  (-0.0890875 -0.00604299 0)
  (-0.100443 0.0025153 0)
  (-0.112312 0.0140815 0)
  (-0.128109 0.0283244 0)
  (-0.153449 0.044922 0)
  (-0.190717 0.0625153 0)
  (-0.2427 0.076989 0)
  (-0.300001 0.0856076 0)
  (-0.366499 0.0887458 0)
  (-0.623197 0.0879178 0)
  (-0.150696 0.00704474 0)
  (0.123661 0.0074877 0)
  (0.202866 -0.0272763 0)
  (0.188439 -0.0395728 0)
  (0.171463 -0.0390345 0)
  (0.14876 -0.0348456 0)
  (0.118842 -0.0288178 0)
  (0.0847784 -0.0212833 0)
  (0.0497323 -0.0128423 0)
  (0.014415 -0.00420664 0)
  (-0.018391 0.00344318 0)
  (-0.0399705 0.00760531 0)
  (-0.054334 0.00961623 0)
  (-0.0620731 0.00945462 0)
  (-0.0663507 0.00800841 0)
  (-0.0692944 0.00651796 0)
  (-0.0716913 0.00519106 0)
  (-0.0739216 0.00405623 0)
  (-0.0760385 0.00297365 0)
  (-0.0782877 0.00176204 0)
  (-0.0808111 0.000308384 0)
  (-0.0836424 -0.00125103 0)
  (-0.0869239 -0.00276701 0)
  (-0.0907969 -0.00402424 0)
  (-0.0953581 -0.00471645 0)
  (-0.100612 -0.00447457 0)
  (-0.106444 -0.00288489 0)
  (-0.112586 0.000482412 0)
  (-0.118473 0.00603958 0)
  (-0.123098 0.0143949 0)
  (-0.126883 0.0267092 0)
  (-0.130083 0.0432423 0)
  (-0.133761 0.0626604 0)
  (-0.138418 0.0808875 0)
  (-0.140558 0.0883584 0)
  (-0.121053 0.0653643 0)
  (-0.064268 -0.0283492 0)
  (-0.280069 -0.208565 0)
  (0.00708072 0.200441 0)
  (0.0376054 0.0754805 0)
  (-0.00488586 0.00979864 0)
  (-0.0148518 0.00180549 0)
  (-0.0271734 0.00308336 0)
  (-0.0417153 0.00332807 0)
  (-0.0579246 0.00487099 0)
  (-0.0732701 0.00788715 0)
  (-0.0848775 0.0108126 0)
  (-0.0911525 0.011946 0)
  (-0.0948993 0.010888 0)
  (-0.0960106 0.00800599 0)
  (-0.095555 0.00479987 0)
  (-0.0942266 0.00144026 0)
  (-0.0930481 -0.00208765 0)
  (-0.0924883 -0.00544305 0)
  (-0.0925733 -0.00847987 0)
  (-0.0931646 -0.0110189 0)
  (-0.0940794 -0.0128999 0)
  (-0.0952107 -0.0140745 0)
  (-0.096541 -0.0145906 0)
  (-0.0982063 -0.0146009 0)
  (-0.100268 -0.014332 0)
  (-0.102761 -0.0138886 0)
  (-0.105602 -0.0131445 0)
  (-0.108561 -0.0118504 0)
  (-0.111238 -0.00962918 0)
  (-0.113043 -0.00594258 0)
  (-0.113265 -0.000248808 0)
  (-0.110854 0.00791734 0)
  (-0.104324 0.0194787 0)
  (-0.0925286 0.0351724 0)
  (-0.0755373 0.0542258 0)
  (-0.0541844 0.0714492 0)
  (-0.0321083 0.0800721 0)
  (0.0110216 0.0611736 0)
  (0.140907 -0.00782255 0)
  (-0.206833 -0.117843 0)
  (-0.0649503 -0.329232 0)
  (-0.422337 -0.123709 0)
  (-0.308103 0.0687065 0)
  (-0.250939 -0.0201909 0)
  (-0.208789 -0.0300238 0)
  (-0.195967 -0.0214417 0)
  (-0.190867 -0.0129552 0)
  (-0.187021 -0.00596629 0)
  (-0.182144 0.000347358 0)
  (-0.175234 0.00632544 0)
  (-0.166102 0.0119282 0)
  (-0.155168 0.016976 0)
  (-0.143585 0.0212992 0)
  (-0.132491 0.0250583 0)
  (-0.122672 0.0287714 0)
  (-0.114375 0.0324508 0)
  (-0.107607 0.0360659 0)
  (-0.10219 0.0395139 0)
  (-0.0979349 0.0424639 0)
  (-0.0947178 0.0445178 0)
  (-0.0924565 0.0453996 0)
  (-0.0910902 0.0450406 0)
  (-0.0905559 0.043545 0)
  (-0.0907973 0.0411468 0)
  (-0.0917261 0.0383365 0)
  (-0.0932154 0.0355017 0)
  (-0.0950766 0.032804 0)
  (-0.0969998 0.030369 0)
  (-0.0985134 0.0282921 0)
  (-0.0988889 0.0266544 0)
  (-0.0968288 0.0259078 0)
  (-0.0902109 0.0269158 0)
  (-0.0765011 0.0304388 0)
  (-0.0542467 0.037369 0)
  (-0.0256469 0.0480174 0)
  (0.0269238 0.0618338 0)
  (0.0677373 0.0606338 0)
  (0.109154 0.0452259 0)
  (0.164918 0.0161257 0)
  (-0.207746 -0.0394506 0)
)
;

boundaryField
{
  floor
  {
    type noSlip;
  }
  ceiling
  {
    type noSlip;
  }
  sWall
  {
    type noSlip;
  }
  nWall
  {
    type noSlip;
  }
  sideWalls
  {
    type empty;
  }
  glass1
  {
    type noSlip;
  }
  glass2
  {
    type noSlip;
  }
  sun
  {
    type noSlip;
  }
  heatsource1
  {
    type noSlip;
  }
  heatsource2
  {
    type noSlip;
  }
  Table_master
  {
    type noSlip;
  }
  Table_slave
  {
    type noSlip;
  }
  inlet
  {
    type fixedValue;
    value uniform (0.277164 -0.114805 0);
  }
  outlet
  {
    type zeroGradient;
  }
} 	// ************************************************************************* //

