/*--------------------------------*- C++ -*----------------------------------*\
  =========                 |
  \\      /  F ield         | OpenFOAM: The Open Source CFD Toolbox
   \\    /   O peration     | Website:  https://openfoam.org
    \\  /    A nd           | Version:  6
     \\/     M anipulation  |
\*---------------------------------------------------------------------------*/
FoamFile
{
    version     2.0;
    format      ascii;
    class       volScalarField;
    location    "160";
    object      alphat;
}
// * * * * * * * * * * * * * * * * * * * * * * * * * * * * * * * * * * * * * //

dimensions      [1 -1 -1 0 0 0 0];

internalField   nonuniform List<scalar> 
459
(
0.00131631
0.00154404
0.00168312
0.00182146
0.0018629
0.001816
0.00174159
0.00166023
0.00158093
0.00150433
0.00143496
0.00136659
0.00129344
0.00120712
0.00110382
0.000664242
0.00084963
0.000959032
0.000976684
0.000958779
0.000923444
0.000869876
0.000815517
0.000766355
0.000722915
0.000684556
0.000650466
0.000619914
0.000592213
0.000566002
0.000539653
0.00051086
0.000468301
0.000425836
0.00165335
0.00557795
0.00618394
0.00616022
0.00575079
0.005891
0.00574205
0.00540963
0.00506933
0.00474966
0.00428046
0.00371598
0.00308023
0.00239043
0.00171138
0.00109322
0.000960031
0.000904063
0.00316986
0.00300918
0.00335212
0.0036071
0.00349488
0.00255257
0.00213046
0.00185856
0.00166425
0.00151826
0.00140516
0.00131006
0.00120857
0.00109336
0.000983498
0.00091934
0.000769112
0.000493731
0.00194906
0.00775439
0.00764784
0.00655924
0.00557159
0.00607172
0.00625469
0.00607064
0.00585112
0.00566967
0.0053421
0.00481707
0.00410866
0.0032825
0.0024481
0.00170502
0.000980073
0.000910695
0.00291152
0.00319487
0.00388473
0.00441756
0.00416583
0.0011448
0.00100623
0.000892027
0.000799076
0.000723493
0.000661861
0.00061195
0.000573572
0.000547271
0.000626244
0.000792815
0.000892491
0.000546485
0.00222902
0.00926103
0.00837845
0.00616901
0.00502691
0.0058865
0.00632795
0.00617048
0.00596728
0.00588543
0.00569587
0.0052805
0.00464926
0.00387459
0.00304917
0.00225545
0.00144519
0.000984405
0.00148492
0.00232441
0.00355594
0.0047064
0.00542755
0.00508915
0.00126217
0.00115016
0.00105987
0.00097943
0.000902682
0.000826207
0.000747786
0.00066515
0.000571288
0.000590168
0.000742286
0.00108699
0.000625611
0.00247876
0.0103657
0.00879637
0.00554533
0.00469075
0.00590436
0.00656792
0.0063776
0.00613708
0.00611713
0.00595903
0.00559441
0.00506183
0.00442035
0.0037366
0.00309746
0.00257771
0.00268459
0.00351778
0.00470846
0.00586689
0.0067224
0.00716628
0.00707549
0.00589793
0.00513848
0.0043979
0.00371044
0.00306035
0.0024377
0.00185575
0.00132008
0.000816399
0.000703153
0.000801969
0.00119049
0.000950194
0.000720415
0.000677482
0.000608442
0.0026727
0.0109062
0.00864369
0.00478684
0.00451818
0.00603898
0.00689711
0.00670363
0.00660399
0.00661822
0.00640048
0.00608749
0.00569006
0.00526208
0.0048542
0.00459652
0.00462895
0.00540478
0.00655812
0.00757177
0.00827599
0.00861789
0.00862576
0.00831556
0.00761464
0.00667856
0.00564706
0.00462033
0.00363109
0.00264757
0.00187107
0.00132155
0.00100975
0.0010463
0.00113716
0.00134703
0.00130173
0.001128
0.00107097
0.000635944
0.0027494
0.0103386
0.00690769
0.0041116
0.00441506
0.00621493
0.00720665
0.00703639
0.00699192
0.00702948
0.006889
0.0067346
0.00659115
0.00647484
0.00644199
0.00663738
0.00717324
0.00813435
0.00899839
0.00951231
0.00967731
0.0095267
0.00912964
0.00849359
0.00759721
0.00654457
0.00542647
0.00432314
0.00330315
0.00243656
0.00184378
0.00153796
0.00146302
0.00151473
0.00153167
0.00145854
0.00147754
0.00136989
0.00146467
0.000656786
0.00266578
0.00732459
0.00466117
0.00337068
0.00435019
0.00644724
0.00747938
0.00729493
0.00722925
0.00712217
0.00706644
0.00711384
0.00723579
0.00743218
0.00773685
0.00820366
0.0088525
0.00952598
0.00993159
0.0099672
0.00965631
0.00905958
0.00828122
0.00741575
0.00649306
0.00553312
0.00457004
0.00366602
0.00289503
0.00232062
0.00197526
0.00180973
0.00171692
0.00159156
0.00142727
0.00130375
0.00126384
0.00120048
0.0011476
0.000828863
0.00252062
0.00259014
0.00219094
0.0025595
0.00449836
0.00691357
0.00791577
0.00768661
0.00732507
0.00712616
0.00715318
0.00730757
0.00753734
0.00783243
0.00819428
0.00860662
0.00900342
0.00922767
0.00914215
0.00872585
0.00805125
0.0072418
0.00640659
0.00561926
0.0049039
0.0042583
0.00368671
0.0032142
0.00287176
0.00267371
0.00259898
0.00257631
0.0025
0.00228292
0.00194517
0.00160843
0.00135788
0.00120518
0.0011686
0.00132319
0.000599394
0.00303112
0.00603677
0.00813138
0.00811903
0.00778423
0.00760257
0.00763117
0.00775315
0.00789848
0.00804568
0.00818894
0.00831823
0.00840582
0.00840122
0.00824355
0.00791671
0.00746338
0.00695344
0.00644838
0.00598426
0.0055752
0.00522274
0.00492822
0.0046991
0.00454786
0.00448474
0.00450791
0.00459214
0.00467895
0.00467838
0.00449275
0.0040706
0.00346521
0.00285205
0.00245436
0.00248481
0.0016119
0.00279018
0.00888808
0.00942616
0.00867304
0.00802382
0.00780876
0.00788688
0.00805978
0.00821883
0.0083309
0.0083953
0.0084198
0.00841073
0.00836918
0.00829014
0.0081668
0.00799919
0.00779808
0.00757962
0.00735813
0.00714275
0.00694001
0.00675756
0.00660651
0.0065004
0.00645317
0.00647598
0.00657195
0.00672754
0.0069012
0.00701492
0.00695988
0.00663266
0.00599977
0.0051671
0.00457149
0.00455946
0.00200451
0.00180656
0.00194255
0.00212788
0.0022258
0.00217267
0.00209307
0.00203599
0.00201469
0.00201011
0.00201054
0.00201203
0.00201385
0.00201613
0.00201892
0.00202169
0.00202314
0.00202151
0.00201538
0.00200474
0.00199095
0.00197584
0.00196093
0.00194733
0.00193586
0.0019273
0.0019225
0.00192233
0.00192755
0.00193847
0.0019544
0.00197294
0.00198926
0.00199629
0.00198634
0.00195333
0.00189269
0.00180571
0.00173062
0.00172884
0.00162674
)
;

boundaryField
{
    floor
    {
        type            compressible::alphatWallFunction;
        Prt             0.85;
        value           nonuniform List<scalar> 
29
(
0.000157118
9.42353e-05
0.000121235
0.000136832
0.000139326
0.000136795
0.000131783
0.00012414
0.000116328
0.000109208
0.000102871
9.72377e-05
9.21985e-05
8.76549e-05
8.35114e-05
7.95686e-05
7.55822e-05
7.11978e-05
6.46589e-05
5.80612e-05
5.80604e-05
6.85839e-05
7.66334e-05
8.85279e-05
0.000157117
9.42342e-05
0.000129032
0.000129956
0.000140388
)
;
    }
    ceiling
    {
        type            compressible::alphatWallFunction;
        Prt             0.85;
        value           nonuniform List<scalar> 
43
(
0.000252175
0.000270017
0.000294122
0.000306772
0.000299926
0.000289633
0.000282229
0.000279463
0.00027887
0.000278928
0.000279124
0.000279362
0.00027966
0.000280023
0.000280384
0.000280574
0.000280362
0.000279564
0.000278179
0.000276383
0.000274412
0.000272466
0.000270689
0.000269189
0.00026807
0.000267441
0.000267418
0.0002681
0.000269526
0.000271607
0.000274026
0.000276154
0.000277071
0.000275774
0.000271464
0.000263528
0.000252094
0.000242173
0.000241936
0.000228378
0.00034438
0.000353187
0.000378509
)
;
    }
    sWall
    {
        type            compressible::alphatWallFunction;
        Prt             0.85;
        value           uniform 0.000251777;
    }
    nWall
    {
        type            compressible::alphatWallFunction;
        Prt             0.85;
        value           nonuniform List<scalar> 6(8.56962e-05 8.97898e-05 9.2874e-05 0.000226086 0.000277824 0.000228083);
    }
    sideWalls
    {
        type            empty;
    }
    glass1
    {
        type            compressible::alphatWallFunction;
        Prt             0.85;
        value           nonuniform List<scalar> 9(0.000184872 0.000230076 0.000268914 0.000305111 0.000336999 0.000361535 0.000371204 0.000360716 0.000342419);
    }
    glass2
    {
        type            compressible::alphatWallFunction;
        Prt             0.85;
        value           nonuniform List<scalar> 2(0.000117873 0.00018707);
    }
    sun
    {
        type            compressible::alphatWallFunction;
        Prt             0.85;
        value           nonuniform List<scalar> 
14
(
0.000186394
0.000217191
0.000235755
0.00025404
0.000259476
0.000253309
0.000243491
0.000232702
0.000222131
0.000211864
0.000202515
0.00019325
0.000183279
0.000171429
)
;
    }
    heatsource1
    {
        type            compressible::alphatWallFunction;
        Prt             0.85;
        value           nonuniform List<scalar> 3(0.000102322 9.60089e-05 8.57534e-05);
    }
    heatsource2
    {
        type            compressible::alphatWallFunction;
        Prt             0.85;
        value           nonuniform List<scalar> 4(0.00015548 0.000136776 0.000136775 0.000139607);
    }
    Table_master
    {
        type            compressible::alphatWallFunction;
        Prt             0.85;
        value           nonuniform List<scalar> 9(0.000162646 0.000143292 0.000127107 0.000113754 0.000102759 9.36916e-05 8.62729e-05 8.05176e-05 7.65458e-05);
    }
    Table_slave
    {
        type            compressible::alphatWallFunction;
        Prt             0.85;
        value           nonuniform List<scalar> 9(0.000178834 0.000163395 0.000150824 0.000139518 0.00012863 0.000117671 0.000106307 9.41757e-05 8.01688e-05);
    }
    inlet
    {
        type            fixedValue;
        value           uniform 1.94e-05;
    }
    outlet
    {
        type            zeroGradient;
    }
}


// ************************************************************************* //
