/*--------------------------------*- C++ -*----------------------------------*\
  =========                 |
  \\      /  F ield         | OpenFOAM: The Open Source CFD Toolbox
   \\    /   O peration     | Website:  https://openfoam.org
    \\  /    A nd           | Version:  6
     \\/     M anipulation  |
\*---------------------------------------------------------------------------*/
FoamFile
{
    version     2.0;
    format      ascii;
    class       volScalarField;
    location    "200";
    object      epsilon;
}
// * * * * * * * * * * * * * * * * * * * * * * * * * * * * * * * * * * * * * //

dimensions      [0 2 -3 0 0 0 0];

internalField   nonuniform List<scalar> 
459
(
0.000383452
0.000491568
0.000511741
0.00058529
0.0006586
0.000731305
0.000805754
0.000886264
0.000955022
0.000995363
0.000993645
0.000941745
0.000843938
0.000721463
0.000602553
3.05981e-05
5.74465e-05
7.6578e-05
7.09149e-05
6.20773e-05
5.29735e-05
4.39655e-05
3.63323e-05
3.02092e-05
2.53397e-05
2.14472e-05
1.8331e-05
1.58018e-05
1.37069e-05
1.19234e-05
1.03354e-05
8.82213e-06
8.06279e-06
6.26955e-06
0.0010097
0.00151714
0.000465409
0.000445575
0.000462256
0.000489278
0.000528643
0.000585091
0.000647877
0.000698749
0.000718764
0.000695276
0.000628391
0.000538631
0.000486396
0.000626691
0.00017383
4.29313e-05
9.9895e-05
9.77797e-05
8.43933e-05
6.9109e-05
5.6107e-05
4.86088e-05
3.94782e-05
3.16536e-05
2.54236e-05
2.05585e-05
1.67931e-05
1.38753e-05
1.1618e-05
9.98999e-06
9.07099e-06
8.74267e-06
2.50939e-05
1.63769e-05
0.00188895
0.0038738
0.000597694
0.000426865
0.000438441
0.0004807
0.000544161
0.00063018
0.000725225
0.00080162
0.000836164
0.000818277
0.000751556
0.000654914
0.000563699
0.000514026
0.000569024
0.000367555
0.000232288
0.000161599
0.000117668
8.8956e-05
7.22282e-05
0.000125166
8.83807e-05
6.46081e-05
4.88042e-05
3.79723e-05
3.03312e-05
2.48078e-05
2.0751e-05
1.77762e-05
1.37086e-05
1.16302e-05
4.66825e-05
2.66203e-05
0.00312476
0.00818151
0.000991145
0.000436834
0.000425815
0.00048311
0.000575486
0.000707741
0.000844417
0.000939447
0.000974545
0.000947626
0.000868402
0.000754878
0.000630964
0.000534058
0.000494337
0.000892821
0.000481524
0.000276345
0.000178421
0.000124874
9.31863e-05
7.86234e-05
0.000175604
0.000136747
0.000113885
9.89849e-05
8.75093e-05
7.68977e-05
6.75091e-05
5.83159e-05
4.84308e-05
2.92131e-05
1.92863e-05
7.52968e-05
3.67571e-05
0.00484842
0.0146601
0.00202783
0.000533756
0.000434689
0.000495977
0.000635112
0.000866928
0.00105184
0.00114653
0.00116237
0.00110873
0.00100107
0.000854664
0.000691428
0.000536323
0.000409069
0.000337003
0.000256474
0.000190167
0.000141002
0.0001068
8.41057e-05
7.1052e-05
7.01104e-05
6.73765e-05
6.46387e-05
6.17149e-05
5.79749e-05
5.29946e-05
4.77083e-05
4.26934e-05
3.81504e-05
3.11857e-05
2.42045e-05
5.37851e-05
4.22816e-05
7.2226e-05
0.000127
0.000178669
0.00725681
0.0217372
0.00463246
0.00106723
0.000654503
0.0006597
0.000908812
0.00125998
0.00142668
0.00146601
0.00142814
0.00133167
0.00118264
0.000990312
0.000776712
0.000571516
0.000402855
0.000287402
0.000212556
0.000159416
0.000120207
9.34006e-05
7.69247e-05
6.87305e-05
6.71965e-05
6.85925e-05
7.04602e-05
7.14223e-05
7.03464e-05
6.60932e-05
5.82003e-05
4.96043e-05
4.17258e-05
3.47486e-05
3.01662e-05
4.0617e-05
4.29741e-05
5.42044e-05
0.000233721
0.000202352
0.0101069
0.0259408
0.00967188
0.00362457
0.00221729
0.00182985
0.00203924
0.00212564
0.00207204
0.00195561
0.00181041
0.00163377
0.0014146
0.00115469
0.000877531
0.000618082
0.000409883
0.000269825
0.000185104
0.000133604
0.000100862
8.165e-05
7.25199e-05
7.07164e-05
7.403e-05
7.99225e-05
8.64493e-05
9.25766e-05
9.71684e-05
9.83159e-05
9.26711e-05
8.07963e-05
6.9087e-05
5.93914e-05
5.54203e-05
6.22007e-05
7.97492e-05
0.000129376
0.000305183
0.000294659
0.0107757
0.028759
0.0158037
0.010516
0.00742053
0.00561627
0.00441838
0.00357778
0.00300799
0.00261349
0.00230388
0.00200695
0.00168142
0.00132164
0.000958961
0.000633873
0.000384088
0.000228965
0.000142942
0.000103263
8.30391e-05
7.39885e-05
7.23836e-05
7.59625e-05
8.32173e-05
9.29896e-05
0.000104645
0.000118121
0.000133485
0.000150479
0.000167825
0.000177897
0.000183934
0.000201188
0.000240624
0.000363271
0.000678814
0.00129935
0.00385159
0.00114007
0.00997341
0.0168361
0.0135048
0.0102175
0.00779373
0.00609535
0.0049275
0.00415109
0.00362392
0.00321633
0.00282653
0.0023961
0.00191348
0.00140061
0.000927386
0.000535741
0.00026909
0.000154632
0.00010314
8.00975e-05
7.03995e-05
6.83181e-05
7.11365e-05
7.74412e-05
8.65738e-05
9.836e-05
0.000113095
0.000131586
0.000155166
0.000185764
0.000226002
0.000279255
0.000351898
0.000461996
0.000626351
0.000851286
0.00110958
0.00133442
0.00150565
0.000942453
0.00421075
0.00638765
0.0064295
0.00606705
0.00563882
0.00512123
0.00453229
0.00387408
0.0031576
0.0024155
0.0016916
0.000972806
0.000495975
0.000250365
0.000134717
8.76381e-05
6.80377e-05
6.02142e-05
5.82325e-05
5.96708e-05
6.34385e-05
6.90769e-05
7.65174e-05
8.59845e-05
9.80008e-05
0.000113449
0.000133683
0.00016072
0.000197556
0.000249098
0.000320395
0.000418592
0.000547625
0.000696023
0.000824661
0.00088033
0.000831574
0.000531167
0.00303617
0.00632616
0.006601
0.00550705
0.00488886
0.00439126
0.00367792
0.00279515
0.00196131
0.00126463
0.00074796
0.000405526
0.000216873
0.000124959
8.5252e-05
7.01532e-05
6.51223e-05
6.42788e-05
6.53647e-05
6.76812e-05
7.11883e-05
7.59336e-05
8.20863e-05
8.99652e-05
0.00010008
0.00011323
0.000130657
0.000154264
0.000186868
0.000232011
0.000294385
0.00037874
0.000485737
0.000607265
0.000698694
0.000794466
0.000758128
0.000559174
0.00204092
0.00242093
0.00272244
0.00326431
0.00282753
0.00237572
0.0020413
0.00172764
0.00143058
0.00113132
0.000831352
0.000565585
0.000360509
0.00022236
0.000141019
9.76978e-05
7.58096e-05
6.50713e-05
6.03684e-05
5.92619e-05
6.05535e-05
6.38193e-05
6.85438e-05
7.46995e-05
8.24679e-05
9.21323e-05
0.000104092
0.000118918
0.000137475
0.000161181
0.000191521
0.000229236
0.000276453
0.000335907
0.000410295
0.000512946
0.00054999
0.000510261
0.000420965
0.000337881
)
;

boundaryField
{
    floor
    {
        Cmu             0.09;
        kappa           0.41;
        E               9.8;
        type            epsilonWallFunction;
        value           nonuniform List<scalar> 
29
(
0.000602553
3.05981e-05
5.74465e-05
7.6578e-05
7.09149e-05
6.20773e-05
5.29735e-05
4.39655e-05
3.63323e-05
3.02092e-05
2.53397e-05
2.14472e-05
1.8331e-05
1.58018e-05
1.37069e-05
1.19234e-05
1.03354e-05
8.82213e-06
8.06279e-06
6.26955e-06
6.26955e-06
1.63769e-05
2.66203e-05
3.67571e-05
0.000602553
3.05981e-05
4.29313e-05
0.000367555
0.000892821
)
;
    }
    ceiling
    {
        Cmu             0.09;
        kappa           0.41;
        E               9.8;
        type            epsilonWallFunction;
        value           nonuniform List<scalar> 
43
(
0.00204092
0.00242093
0.00272244
0.00326431
0.00282753
0.00237572
0.0020413
0.00172764
0.00143058
0.00113132
0.000831352
0.000565585
0.000360509
0.00022236
0.000141019
9.76978e-05
7.58096e-05
6.50713e-05
6.03684e-05
5.92619e-05
6.05535e-05
6.38193e-05
6.85438e-05
7.46995e-05
8.24679e-05
9.21323e-05
0.000104092
0.000118918
0.000137475
0.000161181
0.000191521
0.000229236
0.000276453
0.000335907
0.000410295
0.000512946
0.00054999
0.000510261
0.000420965
0.000337881
0.00997341
0.0168361
0.00303617
)
;
    }
    sWall
    {
        Cmu             0.09;
        kappa           0.41;
        E               9.8;
        type            epsilonWallFunction;
        value           uniform 0.00204092;
    }
    nWall
    {
        Cmu             0.09;
        kappa           0.41;
        E               9.8;
        type            epsilonWallFunction;
        value           nonuniform List<scalar> 6(0.000178669 0.000202352 0.000294659 0.000531167 0.000559174 0.000337881);
    }
    sideWalls
    {
        type            empty;
    }
    glass1
    {
        Cmu             0.09;
        kappa           0.41;
        E               9.8;
        type            epsilonWallFunction;
        value           nonuniform List<scalar> 9(0.000383452 0.0010097 0.00188895 0.00312476 0.00484842 0.00725681 0.0101069 0.0107757 0.00997341);
    }
    glass2
    {
        Cmu             0.09;
        kappa           0.41;
        E               9.8;
        type            epsilonWallFunction;
        value           nonuniform List<scalar> 2(0.00114007 0.000942453);
    }
    sun
    {
        Cmu             0.09;
        kappa           0.41;
        E               9.8;
        type            epsilonWallFunction;
        value           nonuniform List<scalar> 
14
(
0.000383452
0.000491568
0.000511741
0.00058529
0.0006586
0.000731305
0.000805754
0.000886264
0.000955022
0.000995363
0.000993645
0.000941745
0.000843938
0.000721463
)
;
    }
    heatsource1
    {
        Cmu             0.09;
        kappa           0.41;
        E               9.8;
        type            epsilonWallFunction;
        value           nonuniform List<scalar> 3(7.2226e-05 0.000127 0.000178669);
    }
    heatsource2
    {
        Cmu             0.09;
        kappa           0.41;
        E               9.8;
        type            epsilonWallFunction;
        value           nonuniform List<scalar> 4(0.000626691 0.00017383 0.00017383 0.000569024);
    }
    Table_master
    {
        Cmu             0.09;
        kappa           0.41;
        E               9.8;
        type            epsilonWallFunction;
        value           nonuniform List<scalar> 9(0.000125166 8.83807e-05 6.46081e-05 4.88042e-05 3.79723e-05 3.03312e-05 2.48078e-05 2.0751e-05 1.77762e-05);
    }
    Table_slave
    {
        Cmu             0.09;
        kappa           0.41;
        E               9.8;
        type            epsilonWallFunction;
        value           nonuniform List<scalar> 9(0.000175604 0.000136747 0.000113885 9.89849e-05 8.75093e-05 7.68977e-05 6.75091e-05 5.83159e-05 4.84308e-05);
    }
    inlet
    {
        type            turbulentMixingLengthDissipationRateInlet;
        mixingLength    0.01;
        phi             phi;
        k               k;
        value           uniform 0.000101881;
    }
    outlet
    {
        type            zeroGradient;
    }
}


// ************************************************************************* //
