/*--------------------------------*- C++ -*----------------------------------*\
  =========                 |
  \\      /  F ield         | OpenFOAM: The Open Source CFD Toolbox
   \\    /   O peration     | Website:  https://openfoam.org
    \\  /    A nd           | Version:  6
     \\/     M anipulation  |
\*---------------------------------------------------------------------------*/
FoamFile
{
    version     2.0;
    format      ascii;
    class       surfaceScalarField;
    location    "800";
    object      phi;
}
// * * * * * * * * * * * * * * * * * * * * * * * * * * * * * * * * * * * * * //

dimensions      [1 0 -1 0 0 0 0];

internalField   nonuniform List<scalar> 
852
(
0.00488299
-0.00486
0.00885313
-0.00396998
0.0109753
-0.00212201
0.0120926
-0.00111708
0.012749
-0.000656225
0.0131039
-0.000354763
0.0131979
-9.38677e-05
0.0130561
0.000142004
0.0126877
0.000368591
0.0120762
0.000611761
0.0111791
0.000897265
0.0099146
0.00126472
0.0081116
0.00180322
0.00530978
0.00280204
0.00530808
0.000102051
-0.000102705
-0.000102424
0.000204527
-0.0003517
0.000249292
-0.000598639
0.000246938
-0.000811075
0.000212447
-0.000950484
0.000139449
-0.00098163
3.12199e-05
-0.000965754
-1.57732e-05
-0.000930882
-3.47483e-05
-0.000886705
-4.40344e-05
-0.000812308
-7.4236e-05
-0.000689027
-0.000123103
-0.000492482
-0.000196358
-0.00029479
-0.000197518
-0.000162909
-0.000131679
-4.85132e-05
-0.000114167
-4.68615e-05
-1.4684e-06
-0.000154096
0.000107517
-0.000154649
0.0046507
-0.00944579
0.00723155
-0.00655067
0.00863329
-0.0035236
0.00945671
-0.00194034
0.00997394
-0.0011733
0.0102818
-0.000662457
0.0104138
-0.000225724
0.0103681
0.00018791
0.0101311
0.000605753
0.00968635
0.00105668
0.0090145
0.0015693
0.00810338
0.00217604
0.00698853
0.00291828
0.00597957
0.00381122
0.0065062
0.00478168
0.00270646
0.00379993
0.00270665
-0.000100403
-5.10057e-06
-6.4211e-05
0.000168382
-5.57618e-05
0.000240826
-6.94082e-05
0.000260529
-0.000114686
0.000257658
-0.000202096
0.000226812
-0.000281693
0.000110822
-0.000353192
5.5774e-05
-0.000396196
8.33769e-06
-0.000398758
-4.13598e-05
-0.000374934
-9.79135e-05
-0.000330753
-0.000167122
-0.000218383
-0.000308549
-4.30837e-05
-0.000372579
-0.000123682
-5.09286e-05
-0.00027921
4.16418e-05
-0.000254097
-2.63299e-05
-9.46442e-05
-5.17169e-05
-0.000252951
0.00330759
-0.0126489
0.00493924
-0.00818217
0.00576527
-0.00434949
0.00627517
-0.0024501
0.00664201
-0.00154001
0.00690187
-0.000922178
0.00708415
-0.000407877
0.00716965
0.000102558
0.00712387
0.000651679
0.00692583
0.00125488
0.00656529
0.00193
0.00605378
0.00268773
0.00544716
0.0035251
0.00483882
0.00441976
0.00421014
0.00541059
0.00259188
0.00541842
0.00529876
-0.000438923
0.000427603
-0.000302497
3.20146e-05
-0.000119482
5.78087e-05
5.46667e-05
8.63153e-05
0.000221164
9.10462e-05
0.000393716
5.41139e-05
0.000504512
0.000560285
0.000568683
0.000527457
0.000429724
0.000262799
-4.55264e-05
-0.000417605
-0.000468101
-0.000239946
-0.000186343
-9.33208e-05
-0.000172755
7.01918e-05
-0.000215017
-0.000190635
0.00200596
-0.0145122
0.00291824
-0.00909431
0.00331048
-0.00474161
0.00345157
-0.00259108
0.00364106
-0.0017294
0.00384548
-0.0011265
0.00405297
-0.000615272
0.00422684
-7.12202e-05
0.00432006
0.00055857
0.00430737
0.00126769
0.00417506
0.00206245
0.00392617
0.00293679
0.00357442
0.00387703
0.00312593
0.00486845
0.00263432
0.00590242
0.00199048
0.00606249
0.00158568
0.0057038
-0.0011118
0.00268528
-0.000734168
5.00283e-05
-0.000499293
-0.000202811
-0.000282889
-0.00015855
-6.02709e-05
-0.00013629
0.000156874
-0.000126142
0.000335906
-0.000124994
0.000408661
-7.29324e-05
0.000472582
-6.40179e-05
0.000532221
-5.96912e-05
0.000589474
-5.72854e-05
0.000643067
-5.36181e-05
0.000690076
-4.70345e-05
0.000726457
-3.64093e-05
0.000744402
-1.79853e-05
0.000735116
9.22134e-06
0.000587843
-3.89885e-05
0.000530706
-0.000115509
0.000516011
-0.000200195
0.000311514
0.000917819
-0.0152499
0.00132174
-0.00949809
0.00133193
-0.00475168
0.00106588
-0.00232496
0.00116827
-0.00183172
0.001391
-0.00134917
0.00161915
-0.000843371
0.00181174
-0.000263745
0.00195431
0.000416078
0.0020211
0.00120099
0.00200399
0.00207968
0.00190408
0.00303684
0.00172865
0.00405264
0.00149298
0.00510432
0.00126643
0.00612918
0.000935431
0.00639372
0.000524959
0.00611451
0.000131701
0.00307873
-0.000334526
0.000516337
-0.000403966
-0.000133336
-0.000309071
-0.000253446
-0.000149716
-0.000295654
1.90418e-05
-0.000294902
0.000154041
-0.000259974
0.000282147
-0.000200979
0.000380138
-0.000161925
0.000457787
-0.000137242
0.000519999
-0.00011939
0.00057001
-0.000103519
0.000610211
-8.7125e-05
0.000642877
-6.89665e-05
0.000673276
-4.82767e-05
0.000711385
-2.87807e-05
0.000701321
-2.88371e-05
0.000645704
-5.98196e-05
0.0005646
-0.000119034
0.000831512
4.46345e-05
0.000511189
0.00032013
9.21387e-05
0.000418816
8.5748e-05
-2.97699e-05
-0.0150036
-2.19336e-05
-0.0095058
-0.000332571
-0.00444095
-0.000865693
-0.00179178
-0.000813323
-0.00188403
-0.000613826
-0.00154861
-0.000406842
-0.0010503
-0.000240174
-0.000430354
-0.000123099
0.000299073
-4.4092e-05
0.00112208
9.69946e-07
0.00203474
1.21415e-05
0.00302582
-8.21185e-06
0.00407317
-4.8086e-05
0.00514439
-6.24083e-05
0.00614372
-0.000154179
0.00648573
-0.000163127
0.00612369
-0.000115273
0.00303109
-0.000303132
0.000704297
-0.00039083
-4.56077e-05
-0.000315848
-0.000328415
-0.000170588
-0.00044089
-1.69638e-05
-0.000448485
0.000115384
-0.000392263
0.000230209
-0.000315729
0.000320618
-0.000252248
0.000389666
-0.000206196
0.000442037
-0.00017166
0.00048149
-0.000142869
0.000510953
-0.000116487
0.000532935
-9.08485e-05
0.000549357
-6.46042e-05
0.000556718
-3.60564e-05
0.000533741
-5.80072e-06
0.000452001
2.19431e-05
0.000285138
4.78187e-05
0.000158348
0.000171395
3.03511e-05
0.000448067
-0.000132749
0.000581827
-5.57962e-05
-0.00104986
-0.0137025
-0.00169902
-0.00885651
-0.00221617
-0.0039237
-0.00286869
-0.00113919
-0.00283795
-0.00191471
-0.00264162
-0.00174488
-0.00243031
-0.00126154
-0.00225432
-0.000606267
-0.0021174
0.000162249
-0.00200009
0.00100488
-0.00187978
0.00191455
-0.00174795
0.00289415
-0.00160285
0.00392825
-0.00143425
0.00497599
-0.00120615
0.00591583
-0.000993215
0.00627302
-0.000640772
0.00577147
-0.000416072
0.00280659
-0.000440082
0.000728387
-0.000420508
-6.51561e-05
-0.000307254
-0.000441644
-0.000159239
-0.00058887
-1.90382e-05
-0.000588637
9.54396e-05
-0.000506684
0.000184264
-0.000404489
0.000249982
-0.000317895
0.000297621
-0.000253758
0.000331808
-0.000205767
0.000355444
-0.000166424
0.000369938
-0.000130901
0.00037541
-9.62442e-05
0.000370715
-5.98409e-05
0.000351981
-1.72686e-05
0.000311599
3.46133e-05
0.000239878
9.36678e-05
0.000128173
0.000159494
1.66918e-05
0.000282818
-7.57043e-05
0.000540379
-0.000199812
0.00070582
-0.000264458
-0.00365595
-0.00976412
-0.00559465
-0.00691767
-0.0055109
-0.00400734
-0.00563066
-0.00101934
-0.00511415
-0.00243114
-0.00467087
-0.00218807
-0.00436673
-0.00156558
-0.00415216
-0.000820725
-0.00397524
-1.45584e-05
-0.00380116
0.000830939
-0.00358884
0.00170239
-0.00331832
0.0026238
-0.00297963
0.00358975
-0.00256339
0.00455995
-0.00205266
0.00540532
-0.00151993
0.0057405
-0.00090419
0.00515595
-0.000540494
0.00244306
-0.000452844
0.000640789
-0.000343035
-0.000174948
-0.000207657
-0.000576996
-8.75151e-05
-0.000708976
6.95115e-06
-0.000683065
7.63239e-05
-0.000576018
0.0001227
-0.000450824
0.000151111
-0.000346264
0.000168667
-0.000271269
0.000179659
-0.000216714
0.000185251
-0.000171972
0.00018471
-0.00013032
0.000175892
-8.73902e-05
0.000157054
-4.09762e-05
0.000132437
7.36048e-06
0.000106546
6.05048e-05
8.29086e-05
0.000117281
6.65774e-05
0.000175775
8.10829e-05
0.000268237
0.000173651
0.000447715
0.00044446
0.000434897
0.000142526
-0.00947883
-0.0164152
-0.011268
-0.00915444
-0.00791541
-0.0043718
-0.0067386
-0.00360787
-0.0061629
-0.00276367
-0.00588044
-0.00184795
-0.00572253
-0.000978513
-0.0055685
-0.000168454
-0.00534904
0.000611629
-0.00503568
0.00138918
-0.00460741
0.00219571
-0.00404861
0.00303113
-0.00335316
0.0038647
-0.00253151
0.00458388
-0.00167758
0.00488676
-0.000860109
0.00433865
-0.000357147
0.00194021
-0.000167001
0.000450668
-1.81656e-05
-0.000323776
6.29045e-05
-0.000658041
8.3484e-05
-0.00072952
7.79049e-05
-0.000677456
6.63138e-05
-0.000564408
5.11761e-05
-0.000435674
3.30771e-05
-0.000328154
1.61848e-05
-0.000254366
2.04906e-06
-0.00020257
-1.02522e-05
-0.000159667
-2.24345e-05
-0.000118139
-3.65894e-05
-7.32415e-05
-5.62953e-05
-2.12846e-05
-7.08597e-05
2.19024e-05
-7.32141e-05
6.28254e-05
-5.67931e-05
0.000100811
-1.30575e-05
0.000131972
8.24603e-05
0.000172634
0.000285532
0.000244544
0.00055169
0.000168626
0.000649276
-0.00931837
0.000301763
-0.00718061
-0.0065094
-0.00675766
-0.00403073
-0.00679302
-0.00272822
-0.0068578
-0.00178307
-0.00683688
-0.000999327
-0.0067185
-0.000286699
-0.00647365
0.000366919
-0.00609216
0.00100784
-0.00552626
0.00162997
-0.00475519
0.00226023
-0.00377889
0.00288858
-0.00263095
0.00343612
-0.00143211
0.00368808
-0.000317291
0.00322398
0.000325562
0.00129743
0.000568396
0.000207839
0.000607596
-0.00036297
0.000502462
-0.000552879
0.000346988
-0.000574005
0.0002008
-0.000531238
8.73844e-05
-0.000450988
4.48877e-06
-0.00035279
-5.75506e-05
-0.000266132
-0.00010589
-0.000206046
-0.000145722
-0.00016276
-0.00017988
-0.000125534
-0.000208248
-8.98015e-05
-0.000227448
-5.4078e-05
-0.000240575
-8.20158e-06
-0.000243954
2.52309e-05
-0.000235175
5.39865e-05
-0.000213838
7.94029e-05
-0.000186347
0.000104398
-0.00016203
0.000148224
-0.000132898
0.000215308
-0.000165572
0.000201188
0.000472448
-0.00040243
0.000670568
-0.00363704
-0.00327457
-0.00524698
-0.00242071
-0.00645856
-0.00151657
-0.0072685
-0.000973041
-0.00770201
-0.000565727
-0.00777162
-0.000216985
-0.00755148
0.000146897
-0.00707795
0.000534435
-0.00634595
0.000898102
-0.00533914
0.00125356
-0.00405711
0.00160669
-0.00254464
0.00192379
-0.000885589
0.00202916
0.000705884
0.0016326
0.00140667
0.000596675
0.00150118
0.000113338
0.00123934
-0.000101118
0.000909485
-0.000222989
0.000623133
-0.000287595
0.000391658
-0.000299719
0.000211507
-0.000270831
7.96338e-05
-0.000220944
-1.4856e-05
-0.000171681
-8.67907e-05
-0.000134151
-0.00015092
-9.8671e-05
-0.000213973
-6.25251e-05
-0.00027195
-3.18726e-05
-0.000320877
-5.20567e-06
-0.000342913
1.37734e-05
-0.000350357
3.26067e-05
-0.000343861
4.74149e-05
-0.000322058
5.75165e-05
-0.000282628
6.48745e-05
-0.000211412
7.6908e-05
-0.000104216
0.000108005
-9.94553e-05
0.000196316
0.000359882
0.00372151
0.00112227
0.00170724
-0.00165239
-0.00415117
-0.00574725
-0.00680084
-0.0074479
-0.00774664
-0.00768156
-0.0072289
-0.00641258
-0.00524066
-0.00371527
-0.00187217
7.73636e-05
0.00163468
0.00216045
0.00220637
0.00204166
0.00175815
0.00141158
0.0010535
0.000724619
0.000445953
0.000216833
2.54183e-05
-0.000130409
-0.000250054
-0.000339118
-0.000401722
-0.000445548
-0.000470743
-0.000481329
-0.000481988
-0.000475402
-0.000456794
-0.00040724
-0.000271568
)
;

boundaryField
{
    floor
    {
        type            calculated;
        value           nonuniform List<scalar> 
29
(
0
0
0
0
0
0
0
0
0
0
0
0
0
0
0
0
0
0
0
0
8.44087e-07
3.92845e-06
8.08757e-06
1.39817e-05
1.93059e-06
7.39291e-07
2.83863e-06
6.35473e-06
1.23428e-05
)
;
    }
    ceiling
    {
        type            calculated;
        value           nonuniform List<scalar> 
43
(
0.000191364
0.000185534
8.60729e-05
8.5455e-05
7.81492e-05
7.95692e-05
8.06097e-05
8.13973e-05
8.18262e-05
8.18961e-05
8.18598e-05
8.18619e-05
8.17284e-05
8.13884e-05
8.07786e-05
7.97003e-05
7.53301e-05
7.09306e-05
6.74197e-05
6.3622e-05
6.0588e-05
5.90624e-05
5.8449e-05
5.80701e-05
5.76865e-05
5.73777e-05
5.71999e-05
5.70989e-05
5.70603e-05
5.71285e-05
5.73303e-05
5.75255e-05
5.77214e-05
5.7915e-05
5.80826e-05
5.81895e-05
5.81974e-05
5.8344e-05
6.05347e-05
7.24853e-05
2.2115e-05
1.88908e-05
3.39282e-05
)
;
    }
    sWall
    {
        type            calculated;
        value           uniform -4.69949e-05;
    }
    nWall
    {
        type            calculated;
        value           nonuniform List<scalar> 6(6.0788e-06 8.66469e-06 8.71366e-06 1.11357e-05 1.30013e-05 1.57218e-05);
    }
    sideWalls
    {
        type            empty;
        value           nonuniform 0();
    }
    glass1
    {
        type            calculated;
        value           nonuniform List<scalar> 9(-2.28324e-05 -6.47522e-05 -0.000104297 -0.000142578 -0.000179939 -0.000216383 -0.000251086 -0.00028232 -0.000307253);
    }
    glass2
    {
        type            calculated;
        value           nonuniform List<scalar> 2(3.73445e-05 4.48151e-05);
    }
    sun
    {
        type            calculated;
        value           uniform 0;
    }
    heatsource1
    {
        type            calculated;
        value           nonuniform List<scalar> 3(1.99213e-07 1.99269e-07 1.99133e-07);
    }
    heatsource2
    {
        type            calculated;
        value           nonuniform List<scalar> 4(4.87539e-08 4.91871e-08 0 0);
    }
    Table_master
    {
        type            calculated;
        value           nonuniform List<scalar> 9(-1.50504e-07 -1.50528e-07 -1.50538e-07 -1.5057e-07 -1.50632e-07 -1.50723e-07 -1.50838e-07 -1.50729e-07 -1.50443e-07);
    }
    Table_slave
    {
        type            calculated;
        value           nonuniform List<scalar> 9(1.49523e-07 1.49468e-07 1.49438e-07 1.49427e-07 1.49425e-07 1.4943e-07 1.4944e-07 1.49458e-07 1.49477e-07);
    }
    inlet
    {
        type            calculated;
        value           uniform -0.000137633;
    }
    outlet
    {
        type            calculated;
        value           nonuniform List<scalar> 2(-0.00386531 0.00241426);
    }
}


// ************************************************************************* //
