/*--------------------------------*- C++ -*----------------------------------*\
  =========                 |
  \\      /  F ield         | OpenFOAM: The Open Source CFD Toolbox
   \\    /   O peration     | Website:  https://openfoam.org
    \\  /    A nd           | Version:  6
     \\/     M anipulation  |
\*---------------------------------------------------------------------------*/
FoamFile
{
    version     2.0;
    format      ascii;
    class       volScalarField;
    location    "100";
    object      epsilon;
}
// * * * * * * * * * * * * * * * * * * * * * * * * * * * * * * * * * * * * * //

dimensions      [0 2 -3 0 0 0 0];

internalField   nonuniform List<scalar> 
459
(
0.000289701
0.000360421
0.000368461
0.000417971
0.000466415
0.000513562
0.0005608
0.000610512
0.000656592
0.000685468
0.000687345
0.000655741
0.000593224
0.000514978
0.000440934
3.26607e-05
5.75528e-05
7.34521e-05
6.97415e-05
6.38637e-05
5.74382e-05
5.01995e-05
4.35748e-05
3.8045e-05
3.35168e-05
2.97992e-05
2.67181e-05
2.41214e-05
2.19175e-05
1.99678e-05
1.81311e-05
1.62402e-05
1.46755e-05
1.14225e-05
0.000815985
0.00135226
0.000340359
0.000320114
0.000329036
0.000345487
0.000370804
0.000408723
0.000455568
0.000497285
0.000518355
0.000506789
0.00046073
0.000395797
0.000358921
0.00044988
0.000138525
5.42986e-05
8.91918e-05
8.51569e-05
7.44711e-05
6.25953e-05
5.28328e-05
4.85148e-05
4.1067e-05
3.4284e-05
2.86652e-05
2.41152e-05
2.04524e-05
1.74799e-05
1.5134e-05
1.33707e-05
1.25782e-05
1.28807e-05
2.71898e-05
2.07789e-05
0.00159592
0.00370613
0.000455048
0.000307828
0.000313071
0.000340691
0.000383364
0.000443269
0.000515474
0.000579099
0.000612235
0.000603621
0.000554639
0.00048246
0.000415887
0.00038358
0.000402928
0.00028829
0.000182656
0.000128058
9.49211e-05
7.3814e-05
6.28755e-05
0.00012217
9.01092e-05
6.80038e-05
5.25421e-05
4.1516e-05
3.35145e-05
2.76451e-05
2.34133e-05
2.05384e-05
1.59989e-05
1.4237e-05
4.57674e-05
3.00207e-05
0.0027505
0.00811935
0.000799204
0.000313382
0.000302035
0.00034003
0.000401025
0.000491038
0.000601083
0.000686335
0.000721728
0.000704091
0.000639911
0.000551296
0.000456394
0.000383889
0.000356322
0.00060212
0.000338902
0.000196925
0.000130004
9.44479e-05
7.4049e-05
6.6441e-05
0.000164308
0.000131932
0.00011287
0.000100068
8.94479e-05
7.93423e-05
6.99408e-05
6.03445e-05
4.97471e-05
2.95355e-05
2.00316e-05
7.14842e-05
3.94504e-05
0.00441721
0.0148473
0.00172605
0.000373812
0.000295016
0.000333095
0.000418047
0.000576553
0.000752637
0.000853801
0.000877165
0.000837403
0.000743929
0.000624635
0.000495211
0.000374841
0.000278355
0.000225562
0.000171321
0.000129571
0.000100509
8.13084e-05
6.89135e-05
6.21032e-05
6.51579e-05
6.5831e-05
6.57346e-05
6.44273e-05
6.14055e-05
5.66325e-05
5.12025e-05
4.5607e-05
4.01508e-05
3.20255e-05
2.48186e-05
5.48306e-05
4.18232e-05
7.68656e-05
0.000137
0.000191162
0.00679381
0.0221824
0.00415695
0.000750822
0.000408437
0.000393837
0.000486881
0.000817225
0.00104166
0.00111666
0.00109773
0.00101552
0.000887216
0.000729264
0.000558509
0.000397503
0.000268497
0.000185336
0.000138171
0.000109003
8.90594e-05
7.61881e-05
6.87194e-05
6.56585e-05
6.73184e-05
7.12384e-05
7.48131e-05
7.6441e-05
7.51458e-05
7.01956e-05
6.17489e-05
5.25999e-05
4.40486e-05
3.63569e-05
3.17856e-05
4.32003e-05
4.39188e-05
5.74237e-05
0.00025065
0.000216129
0.00977477
0.0265123
0.00925197
0.00288852
0.00153703
0.00113159
0.00120727
0.00148998
0.00156979
0.00152483
0.00141168
0.00125506
0.0010655
0.000852899
0.00063241
0.000429548
0.000270696
0.000171819
0.000121245
9.60112e-05
8.16444e-05
7.40618e-05
7.16003e-05
7.3304e-05
7.85982e-05
8.61315e-05
9.36202e-05
9.97556e-05
0.000103518
0.000103261
9.57327e-05
8.38646e-05
7.20714e-05
6.16211e-05
5.76341e-05
6.49506e-05
8.27217e-05
0.000139113
0.000329764
0.000317177
0.0105628
0.0304655
0.0162132
0.0102577
0.00663905
0.00455592
0.00357927
0.00292471
0.00246281
0.00211354
0.00181756
0.00153814
0.00125724
0.000971359
0.00068926
0.000439771
0.000251591
0.000146514
9.98853e-05
8.29723e-05
7.55467e-05
7.36997e-05
7.60646e-05
8.1867e-05
9.05459e-05
0.000101388
0.000113678
0.000127255
0.000142233
0.000158427
0.00017457
0.00018252
0.000188641
0.000203313
0.000238941
0.000360852
0.000688672
0.00140334
0.00425554
0.00123357
0.00986782
0.0170408
0.0137563
0.0103801
0.00780995
0.00596119
0.00466983
0.00376805
0.0031238
0.00262252
0.00218761
0.00178331
0.0013967
0.00102376
0.000667946
0.000376501
0.000176524
0.000106235
8.04427e-05
7.11652e-05
6.88586e-05
7.08496e-05
7.6045e-05
8.39183e-05
9.42532e-05
0.000107031
0.000122543
0.000141597
0.000165583
0.000196549
0.000237345
0.000292068
0.000367313
0.000483317
0.000657918
0.000901421
0.0011872
0.00143798
0.0016172
0.000999939
0.00479717
0.00704859
0.00646113
0.00564839
0.00492368
0.00422442
0.00353459
0.00288698
0.00228656
0.00174565
0.00126598
0.00082939
0.000403881
0.000197353
0.000105816
7.25105e-05
6.05201e-05
5.69782e-05
5.7559e-05
6.07752e-05
6.60002e-05
7.30033e-05
8.18045e-05
9.26391e-05
0.000106012
0.000122798
0.000144378
0.000172872
0.000211636
0.000265934
0.000341625
0.000446685
0.000585166
0.00074422
0.000880332
0.00093207
0.000859969
0.000542963
0.00343588
0.00656591
0.00618758
0.00505362
0.00423053
0.0035944
0.00290398
0.00223394
0.00159929
0.000977891
0.000558737
0.000292345
0.000142347
7.89539e-05
5.35563e-05
4.42274e-05
4.15033e-05
4.20076e-05
4.44437e-05
4.83368e-05
5.35615e-05
6.01983e-05
6.84868e-05
7.88294e-05
9.18362e-05
0.000108414
0.000129914
0.000158357
0.000196427
0.000247791
0.000317702
0.000411608
0.000530455
0.000664951
0.000767406
0.000869922
0.000757666
0.000566505
0.00223324
0.00263359
0.00296377
0.00344799
0.00281898
0.00215772
0.00154924
0.00106735
0.000808781
0.000597678
0.000420252
0.000281547
0.000188242
0.000122888
8.33715e-05
6.34666e-05
5.4752e-05
5.19198e-05
5.25141e-05
5.52208e-05
5.93706e-05
6.47951e-05
7.14926e-05
7.95763e-05
8.92543e-05
0.000100832
0.000114734
0.000131575
0.000152282
0.000178387
0.000210798
0.000251069
0.000301554
0.00036536
0.000445928
0.000559793
0.000603945
0.000562716
0.000460288
0.000366085
)
;

boundaryField
{
    floor
    {
        Cmu             0.09;
        kappa           0.41;
        E               9.8;
        type            epsilonWallFunction;
        value           nonuniform List<scalar> 
29
(
0.000440934
3.26607e-05
5.75528e-05
7.34521e-05
6.97415e-05
6.38637e-05
5.74382e-05
5.01995e-05
4.35748e-05
3.8045e-05
3.35168e-05
2.97992e-05
2.67181e-05
2.41214e-05
2.19175e-05
1.99678e-05
1.81311e-05
1.62402e-05
1.46755e-05
1.14225e-05
1.14225e-05
2.07789e-05
3.00207e-05
3.94504e-05
0.000440934
3.26607e-05
5.42986e-05
0.00028829
0.00060212
)
;
    }
    ceiling
    {
        Cmu             0.09;
        kappa           0.41;
        E               9.8;
        type            epsilonWallFunction;
        value           nonuniform List<scalar> 
43
(
0.00223324
0.00263359
0.00296377
0.00344799
0.00281898
0.00215772
0.00154924
0.00106735
0.000808781
0.000597678
0.000420252
0.000281547
0.000188242
0.000122888
8.33715e-05
6.34666e-05
5.4752e-05
5.19198e-05
5.25141e-05
5.52208e-05
5.93706e-05
6.47951e-05
7.14926e-05
7.95763e-05
8.92543e-05
0.000100832
0.000114734
0.000131575
0.000152282
0.000178387
0.000210798
0.000251069
0.000301554
0.00036536
0.000445928
0.000559793
0.000603945
0.000562716
0.000460288
0.000366085
0.00986782
0.0170408
0.00343588
)
;
    }
    sWall
    {
        Cmu             0.09;
        kappa           0.41;
        E               9.8;
        type            epsilonWallFunction;
        value           uniform 0.00223324;
    }
    nWall
    {
        Cmu             0.09;
        kappa           0.41;
        E               9.8;
        type            epsilonWallFunction;
        value           nonuniform List<scalar> 6(0.000191162 0.000216129 0.000317177 0.000542963 0.000566505 0.000366085);
    }
    sideWalls
    {
        type            empty;
    }
    glass1
    {
        Cmu             0.09;
        kappa           0.41;
        E               9.8;
        type            epsilonWallFunction;
        value           nonuniform List<scalar> 9(0.000289701 0.000815985 0.00159592 0.0027505 0.00441721 0.00679381 0.00977477 0.0105628 0.00986782);
    }
    glass2
    {
        Cmu             0.09;
        kappa           0.41;
        E               9.8;
        type            epsilonWallFunction;
        value           nonuniform List<scalar> 2(0.00123357 0.000999939);
    }
    sun
    {
        Cmu             0.09;
        kappa           0.41;
        E               9.8;
        type            epsilonWallFunction;
        value           nonuniform List<scalar> 
14
(
0.000289701
0.000360421
0.000368461
0.000417971
0.000466415
0.000513562
0.0005608
0.000610512
0.000656592
0.000685468
0.000687345
0.000655741
0.000593224
0.000514978
)
;
    }
    heatsource1
    {
        Cmu             0.09;
        kappa           0.41;
        E               9.8;
        type            epsilonWallFunction;
        value           nonuniform List<scalar> 3(7.68656e-05 0.000137 0.000191162);
    }
    heatsource2
    {
        Cmu             0.09;
        kappa           0.41;
        E               9.8;
        type            epsilonWallFunction;
        value           nonuniform List<scalar> 4(0.00044988 0.000138525 0.000138525 0.000402928);
    }
    Table_master
    {
        Cmu             0.09;
        kappa           0.41;
        E               9.8;
        type            epsilonWallFunction;
        value           nonuniform List<scalar> 9(0.00012217 9.01092e-05 6.80038e-05 5.25421e-05 4.1516e-05 3.35145e-05 2.76451e-05 2.34133e-05 2.05384e-05);
    }
    Table_slave
    {
        Cmu             0.09;
        kappa           0.41;
        E               9.8;
        type            epsilonWallFunction;
        value           nonuniform List<scalar> 9(0.000164308 0.000131932 0.00011287 0.000100068 8.94479e-05 7.93423e-05 6.99408e-05 6.03445e-05 4.97471e-05);
    }
    inlet
    {
        type            turbulentMixingLengthDissipationRateInlet;
        mixingLength    0.01;
        phi             phi;
        k               k;
        value           uniform 0.000101881;
    }
    outlet
    {
        type            zeroGradient;
    }
}


// ************************************************************************* //
