/*--------------------------------*- C++ -*----------------------------------*\
  =========                 |
  \\      /  F ield         | OpenFOAM: The Open Source CFD Toolbox
   \\    /   O peration     | Website:  https://openfoam.org
    \\  /    A nd           | Version:  6
     \\/     M anipulation  |
\*---------------------------------------------------------------------------*/
FoamFile
{
    version     2.0;
    format      ascii;
    class       surfaceScalarField;
    location    "100";
    object      phi;
}
// * * * * * * * * * * * * * * * * * * * * * * * * * * * * * * * * * * * * * //

dimensions      [1 0 -1 0 0 0 0];

internalField   nonuniform List<scalar> 
852
(
-0.00287747
0.00293712
-0.00375269
0.000875285
-0.00448957
0.00073695
-0.00511016
0.000620664
-0.00558113
0.000471043
-0.00588076
0.000299705
-0.00598412
0.000103431
-0.00586271
-0.000121343
-0.00549477
-0.000367865
-0.00489021
-0.000604493
-0.0040972
-0.000792933
-0.00318868
-0.000908451
-0.00223146
-0.000957147
-0.00122103
-0.00101035
-0.00121918
-0.000586528
0.000589828
-9.85717e-05
-0.000487914
0.000572362
-0.000670883
0.00104487
-0.000472455
0.0013573
-0.000312386
0.00155908
-0.000201745
0.00166942
-0.00011031
0.00172487
-5.5424e-05
0.00176063
-3.57388e-05
0.00178881
-2.81669e-05
0.00181127
-2.24583e-05
0.00182674
-1.54737e-05
0.00182994
-3.20936e-06
0.00180834
2.15864e-05
0.00173433
7.39895e-05
0.00156275
0.00017155
0.00126758
0.00029515
0.000859761
0.0004078
0.000863735
-0.00205555
0.00515252
-0.00297329
0.0017931
-0.00375841
0.00152214
-0.00437485
0.00123717
-0.00483652
0.000932785
-0.00513576
0.000599011
-0.00524848
0.000216221
-0.00514355
-0.000226202
-0.00480359
-0.000707768
-0.00424963
-0.00115839
-0.00354142
-0.00150108
-0.00275618
-0.00169363
-0.00197575
-0.00173751
-0.00132532
-0.00166071
-0.00113759
-0.00140685
-0.000341633
-0.000795931
-0.000341616
0.000667807
-6.91664e-05
0.00104232
-0.000862372
0.00125062
-0.000879114
0.00146216
-0.000683936
0.0016329
-0.00048307
0.00174054
-0.000309321
0.00175479
-0.000124511
0.00175518
-5.57734e-05
0.00175766
-3.81845e-05
0.00176052
-3.10003e-05
0.00176284
-2.47627e-05
0.00176441
-1.70429e-05
0.00176352
-2.31518e-06
0.00175479
3.03041e-05
0.00170672
0.000122034
0.00151173
0.000366526
0.0011703
0.000636557
0.00072792
0.000850156
0.00160229
-0.00145524
0.00685097
-0.00228627
0.0026242
-0.00299369
0.00222963
-0.00352458
0.00176813
-0.00393063
0.00133891
-0.00420601
0.000874454
-0.00431821
0.000328483
-0.00421883
-0.000325524
-0.00388408
-0.00104247
-0.00335393
-0.00168848
-0.00270311
-0.00215185
-0.00200944
-0.00238724
-0.00134869
-0.0023982
-0.000801142
-0.00220819
-0.000409258
-0.00179866
-1.61964e-05
-0.00118892
-0.000357734
0.00139844
-0.00145769
0.00163535
-0.0010992
0.0016418
-0.000885496
0.00167383
-0.000715886
0.00173265
-0.000541825
0.00181212
-0.000388727
0.00168782
0.00163225
0.00159427
0.00156345
0.00153887
0.00152199
0.00151983
0.00155027
0.00167244
0.00139565
0.000643298
0.00104687
0.000985317
0.000598221
0.00129879
0.00221693
-0.00103823
0.0082022
-0.00174047
0.0033265
-0.00221451
0.00270373
-0.00257615
0.00212984
-0.00286655
0.00162938
-0.00307476
0.00108272
-0.00316058
0.000414357
-0.00304221
-0.00044384
-0.00269384
-0.00139078
-0.00219472
-0.00218755
-0.00163148
-0.00271505
-0.00107009
-0.00294858
-0.000559853
-0.0029084
-0.000124152
-0.00264384
0.00026223
-0.00218498
0.000678886
-0.0016055
0.0013591
-0.00103788
0.00216325
-0.000794462
0.00169575
-0.000990099
0.00161874
-0.00102212
0.00157541
-0.000842089
0.00153469
-0.000675098
0.00151457
-0.000521639
0.00148141
-0.000355504
0.0016441
-0.000162792
0.0017503
-0.000106299
0.00183662
-8.64286e-05
0.00190362
-6.71072e-05
0.00193666
-3.31666e-05
0.00191466
2.18726e-05
0.00181426
0.000100265
0.00160508
0.000209046
0.00123358
0.000371348
0.00111483
0.000762046
0.000836297
0.00126383
0.000412215
0.00172285
0.0026508
-0.000743195
0.00931679
-0.00131895
0.00390232
-0.00143639
0.00282124
-0.0015599
0.00225342
-0.0016773
0.00174683
-0.00175979
0.00116527
-0.00176614
0.00042077
-0.00157427
-0.00063566
-0.0012044
-0.00176061
-0.000775643
-0.00261627
-0.000358327
-0.00313233
9.95005e-06
-0.00331682
0.000310964
-0.00320937
0.000547055
-0.00287988
0.000759268
-0.00239714
0.00099668
-0.00184285
0.00129279
-0.00133391
0.00151702
-0.00101862
0.00146354
-0.000936546
0.00132259
-0.000881083
0.0012227
-0.000742128
0.00114766
-0.000599997
0.00109961
-0.000473522
0.00109376
-0.000349604
0.00117094
-0.000239919
0.0012517
-0.000187025
0.00132973
-0.000164417
0.00140191
-0.000139258
0.00145824
-8.94763e-05
0.00147936
7.71117e-07
0.00144593
0.0001337
0.00134813
0.000306854
0.00118662
0.000532864
0.00105137
0.000897295
0.000910711
0.00140448
0.00058741
0.00204614
0.000546631
0.00269157
-0.00106727
0.0016137
-0.00152809
0.00046063
-0.00147792
-0.00065806
0.010395
-0.00109752
0.00434185
-0.000722538
0.00244632
-0.00050612
0.00203706
-0.000410109
0.00165089
-0.000326793
0.00108202
-0.000135905
0.00022994
0.000204925
-0.000976434
0.000558244
-0.00211388
0.000846052
-0.00290405
0.00104331
-0.00332956
0.00114836
-0.00342183
0.00118142
-0.0032424
0.00116884
-0.00286726
0.0011413
-0.00236955
0.00112955
-0.00183104
0.00113822
-0.00134252
0.00111841
-0.000998744
0.00100678
-0.000824846
0.000843784
-0.000718023
0.000711466
-0.000609747
0.000620834
-0.000509309
0.000570901
-0.000423538
0.000569313
-0.000347972
0.000617931
-0.0002885
0.000690137
-0.0002592
0.000772141
-0.000246396
0.00085894
-0.000226038
0.000945132
-0.000175655
0.00101969
-7.37755e-05
0.0010656
8.77924e-05
0.00107974
0.000292716
0.00107003
0.000542574
0.00108888
0.000878442
0.00119526
0.0012981
0.00139777
0.00184362
0.00190117
0.00218816
0.00217614
0.00133872
0.00177502
0.000861753
0.000357502
-0.000804813
0.0116631
-0.000767405
0.00430451
0.000258555
0.00142042
0.000794225
0.00150146
0.00108468
0.0013605
0.0014048
0.000761956
0.0018495
-0.000214689
0.00226612
-0.001393
0.00249907
-0.00234679
0.00255664
-0.00296159
0.0024622
-0.0032351
0.00225123
-0.00321085
0.00196688
-0.00295802
0.00165175
-0.0025521
0.00134068
-0.00205844
0.00106184
-0.00155215
0.000824319
-0.00110493
0.000621859
-0.000796221
0.000425904
-0.000628829
0.000247284
-0.000539345
0.000110194
-0.000472605
1.9019e-05
-0.000418088
-2.96706e-05
-0.00037481
-3.61864e-05
-0.000341424
-4.75405e-06
-0.000319906
5.01302e-05
-0.000314064
0.000118491
-0.000314743
0.000199362
-0.000306899
0.000297166
-0.000273454
0.00041623
-0.000192836
0.000542605
-3.85814e-05
0.000666487
0.000168833
0.000798736
0.000410323
0.000977543
0.000699631
0.00126705
0.00100859
0.00173495
0.0013757
0.00247701
0.0014461
0.00306838
0.000747338
0.00313158
0.000798555
0.00355454
0.00246897
0.00971083
0.00305692
0.00371661
0.00320124
0.00127616
0.0034027
0.00130007
0.00362292
0.00114035
0.00402695
0.000358
0.00449347
-0.000681136
0.0046887
-0.00158818
0.00458361
-0.00224168
0.00423483
-0.00261279
0.00371746
-0.00271773
0.00310074
-0.00259412
0.00244728
-0.00230455
0.00180863
-0.00191342
0.00121621
-0.00146598
0.000704326
-0.00104022
0.000288926
-0.000689476
-1.64135e-05
-0.000490825
-0.000240182
-0.000405009
-0.000407318
-0.000372163
-0.000530653
-0.00034923
-0.000617096
-0.000331612
-0.000671979
-0.0003199
-0.00069905
-0.000314332
-0.000703325
-0.000315616
-0.000693799
-0.000323579
-0.000675993
-0.000332541
-0.00064897
-0.000333917
-0.000604487
-0.000317934
-0.000524182
-0.000273139
-0.000380363
-0.000182401
-0.00019675
-1.47822e-05
1.30762e-05
0.000200494
0.000279678
0.000433026
0.000621621
0.000666639
0.00110208
0.000895234
0.00166089
0.000887287
0.00187913
0.000529088
0.0010886
0.00158908
0.00491189
0.0102779
0.0139876
0.0123535
0.00291033
0.0110426
0.00261107
0.0100992
0.00208376
0.00937717
0.0010801
0.00854883
0.000147249
0.00755524
-0.000594588
0.00646872
-0.00115518
0.00535698
-0.00150107
0.00426434
-0.00162512
0.00321231
-0.00154209
0.00223092
-0.00132316
0.00135172
-0.0010342
0.000576673
-0.000690903
-4.37191e-05
-0.000419779
-0.000469612
-0.000263534
-0.000733444
-0.000226947
-0.000915782
-0.000222631
-0.00106011
-0.000227803
-0.00117705
-0.000232266
-0.00127239
-0.000236252
-0.00135126
-0.000241009
-0.0014187
-0.00024688
-0.00148082
-0.000253481
-0.00154565
-0.000258748
-0.0016209
-0.000257285
-0.00171426
-0.000240554
-0.0018352
-0.000196995
-0.00199593
-0.000112403
-0.00220491
2.65753e-05
-0.00244734
0.000227655
-0.00275455
0.000507708
-0.00321194
0.000890408
-0.00391803
0.00137274
-0.00493996
0.00191716
-0.00639596
0.00234328
-0.0081725
0.00230563
-0.00765284
0.00106942
-0.00244288
0.00487194
0.00409431
0.00446327
0.00301959
0.00528371
0.00126316
0.00549374
0.000869896
0.00523959
0.000401207
0.00475969
-0.000114837
0.00410871
-0.000504321
0.00333231
-0.000724746
0.00248868
-0.000781524
0.00160482
-0.000658239
0.000742648
-0.000460971
-3.87745e-05
-0.000252742
-0.000645183
-8.44537e-05
-0.00102789
-3.70323e-05
-0.0012556
-3.57808e-05
-0.0014217
-6.08167e-05
-0.00155831
-8.59841e-05
-0.00168039
-0.0001057
-0.0017928
-0.00011984
-0.00189896
-0.000130074
-0.00200253
-0.000137431
-0.00210717
-0.000142229
-0.00221656
-0.00014409
-0.00233395
-0.000141351
-0.00246087
-0.000130359
-0.00259606
-0.000105356
-0.00273436
-5.86844e-05
-0.00286549
1.87222e-05
-0.00297772
0.000138815
-0.00307136
0.000321298
-0.00315693
0.000593277
-0.00324099
0.000974478
-0.00332313
0.00145487
-0.00335465
0.00194869
-0.0032722
0.00226083
-0.00290388
0.00193732
-0.00161949
-0.000214961
-0.0039842
-0.00064194
0.00478925
0.000748118
0.0016294
0.00114512
0.00086601
0.00142575
0.000589148
0.00152864
0.000298216
0.00138329
3.04555e-05
0.00103703
-0.000158095
0.000528928
-0.000216643
-9.39057e-05
-0.000158652
-0.000724708
-2.74071e-05
-0.00123851
5.2875e-05
-0.00158086
8.96456e-05
-0.00175817
9.29033e-05
-0.00186122
6.60527e-05
-0.0019341
3.71309e-05
-0.00200684
1.19436e-05
-0.00208479
-8.00649e-06
-0.00216657
-2.39079e-05
-0.00225039
-3.60034e-05
-0.00233572
-4.4735e-05
-0.00242243
-5.07111e-05
-0.00251027
-5.43723e-05
-0.00259862
-5.57346e-05
-0.00268593
-5.40301e-05
-0.00276888
-4.74031e-05
-0.00284144
-3.27916e-05
-0.00289431
-5.81107e-06
-0.00291546
3.98836e-05
-0.00288986
0.000113221
-0.00279427
0.000225711
-0.00259516
0.000394174
-0.00226305
0.000642369
-0.00178463
0.000976459
-0.00113866
0.00130272
-0.000142395
0.00126458
0.00118727
0.00060766
0.001584
-0.00061169
-0.00231425
-0.00771165
-0.010468
-0.00563672
-0.00398375
-0.00310063
-0.00249793
-0.00218899
-0.0021503
-0.00230212
-0.002514
-0.00266902
-0.00269363
-0.0026385
-0.00254701
-0.00245261
-0.00238532
-0.00234717
-0.00233437
-0.00234164
-0.00236491
-0.00240036
-0.00244461
-0.00249489
-0.00254888
-0.00260429
-0.00265803
-0.00270517
-0.00273774
-0.00274335
-0.00270329
-0.00258991
-0.00236408
-0.00196981
-0.00132741
-0.000351003
0.000951504
0.0022157
0.00282284
0.00221054
)
;

boundaryField
{
    floor
    {
        type            calculated;
        value           nonuniform List<scalar> 
29
(
0
0
0
0
0
0
0
0
0
0
0
0
0
0
0
0
0
0
0
0
-3.98939e-06
-1.06464e-05
-1.64356e-05
-2.1667e-05
-1.77528e-06
-3.27523e-06
-8.77905e-06
-9.84095e-06
-9.61087e-06
)
;
    }
    ceiling
    {
        type            calculated;
        value           nonuniform List<scalar> 
43
(
-4.46098e-05
-4.33008e-05
-4.19881e-05
-2.34984e-05
-1.70243e-05
-1.34571e-05
-1.06487e-05
-8.18164e-06
-6.23996e-06
-4.73558e-06
-3.60219e-06
-2.77254e-06
-2.22684e-06
-1.81095e-06
-1.47641e-06
-1.21034e-06
-1.00193e-06
-8.41076e-07
-7.18547e-07
-6.22431e-07
-5.4315e-07
-4.75909e-07
-4.1771e-07
-3.66731e-07
-3.21856e-07
-2.82369e-07
-2.47766e-07
-2.17658e-07
-1.91738e-07
-1.69789e-07
-1.4704e-07
-1.19171e-07
-8.15326e-08
-2.75868e-08
5.41803e-08
2.17448e-07
3.87857e-07
5.23422e-07
6.19869e-07
1.45219e-06
9.98473e-06
6.92193e-06
-5.31001e-05
)
;
    }
    sWall
    {
        type            calculated;
        value           uniform -0.000267379;
    }
    nWall
    {
        type            calculated;
        value           nonuniform List<scalar> 6(-5.03699e-05 -6.04026e-05 -6.54697e-05 -7.81683e-05 -8.59315e-05 -0.00010516);
    }
    sideWalls
    {
        type            empty;
        value           nonuniform 0();
    }
    glass1
    {
        type            calculated;
        value           nonuniform List<scalar> 9(-5.95796e-05 -0.000159781 -0.000243154 -0.000312944 -0.000371337 -0.000420139 -0.000463166 -0.000516673 -0.000576992);
    }
    glass2
    {
        type            calculated;
        value           nonuniform List<scalar> 2(-0.000268749 -0.000298057);
    }
    sun
    {
        type            calculated;
        value           uniform 0;
    }
    heatsource1
    {
        type            calculated;
        value           nonuniform List<scalar> 3(2.0438e-07 2.04334e-07 2.04351e-07);
    }
    heatsource2
    {
        type            calculated;
        value           nonuniform List<scalar> 4(5.11456e-08 5.12927e-08 0 0);
    }
    Table_master
    {
        type            calculated;
        value           nonuniform List<scalar> 9(-1.53299e-07 -1.53384e-07 -1.53419e-07 -1.53444e-07 -1.53464e-07 -1.53478e-07 -1.53487e-07 -1.53479e-07 -1.53436e-07);
    }
    Table_slave
    {
        type            calculated;
        value           nonuniform List<scalar> 9(1.53252e-07 1.53266e-07 1.53243e-07 1.53224e-07 1.53217e-07 1.53223e-07 1.53237e-07 1.5328e-07 1.5336e-07);
    }
    inlet
    {
        type            calculated;
        value           uniform -0.00605602;
    }
    outlet
    {
        type            calculated;
        value           nonuniform List<scalar> 2(0.00802367 0.00279965);
    }
}


// ************************************************************************* //
