/*--------------------------------*- C++ -*----------------------------------*\
  =========                 |
  \\      /  F ield         | OpenFOAM: The Open Source CFD Toolbox
   \\    /   O peration     | Website:  https://openfoam.org
    \\  /    A nd           | Version:  6
     \\/     M anipulation  |
\*---------------------------------------------------------------------------*/
FoamFile
{
    version     2.0;
    format      ascii;
    class       surfaceScalarField;
    location    "320";
    object      phi;
}
// * * * * * * * * * * * * * * * * * * * * * * * * * * * * * * * * * * * * * //

dimensions      [1 0 -1 0 0 0 0];

internalField   nonuniform List<scalar> 
852
(
-0.00238664
0.00242012
-0.00334879
0.000962135
-0.00405009
0.000701297
-0.00454449
0.000494384
-0.00479943
0.000254928
-0.00478249
-1.69502e-05
-0.00446047
-0.000322024
-0.00383295
-0.000627533
-0.00296014
-0.000872822
-0.00195411
-0.00100604
-0.000948863
-0.00100525
-8.43736e-05
-0.000864501
0.000415579
-0.000499965
0.000498293
-8.27275e-05
0.000495531
1.36316e-05
-1.75357e-05
7.90869e-05
-6.5479e-05
0.000369664
-0.0002906
0.000754486
-0.000384845
0.00110487
-0.000350409
0.00137407
-0.000269219
0.00152468
-0.000150636
0.00158744
-6.27858e-05
0.0016164
-2.89813e-05
0.00163098
-1.46078e-05
0.00163478
-3.81984e-06
0.00162806
6.69226e-06
0.00160688
2.11561e-05
0.00155771
4.91421e-05
0.00144796
0.000109724
0.00122092
0.000227014
0.000823697
0.000397197
0.000148315
0.000675353
0.000142774
-0.00175771
0.00426985
-0.00265656
0.00186098
-0.00336637
0.0014111
-0.00386299
0.000990993
-0.00412784
0.00051977
-0.00412887
-1.59359e-05
-0.00383782
-0.000613077
-0.00326801
-0.00119736
-0.00249722
-0.00164361
-0.00164433
-0.00185895
-0.00083116
-0.00181843
-0.000161647
-0.00153403
0.000348862
-0.00101049
0.000711964
-0.000445843
0.00108198
0.000125503
0.000644423
0.000437492
0.000644359
-0.000112192
8.57952e-05
0.000409106
-0.000586796
0.000790039
-0.000671553
0.00109312
-0.000687947
0.00134295
-0.000600256
0.00152573
-0.000452024
0.00156866
-0.000193591
0.00157778
-7.19266e-05
0.00158695
-3.81733e-05
0.00159449
-2.21714e-05
0.00159924
-8.59126e-06
0.00160126
4.64559e-06
0.00159948
2.29109e-05
0.00158943
5.91672e-05
0.00153772
0.000161409
0.00133636
0.000428343
0.000992687
0.000740846
0.000599303
0.00106871
0.00072753
-0.00126744
0.00568029
-0.002022
0.00261554
-0.00265875
0.00204784
-0.00310355
0.00143578
-0.00335268
0.000768896
-0.00335883
-9.79603e-06
-0.00307326
-0.000898649
-0.00253249
-0.00173814
-0.00184006
-0.00233604
-0.0011167
-0.00258232
-0.000457982
-0.00247716
7.34427e-05
-0.00206546
0.000500816
-0.00143788
0.000807728
-0.000752769
0.0010038
-7.05829e-05
0.000867295
0.000573985
0.00151164
0.0005962
-0.000524082
0.000937298
-0.000927911
0.00124262
-0.000976887
0.00142407
-0.000869424
0.00155535
-0.000731549
0.00172073
-0.000617425
0.00152727
0.00145547
0.00141743
0.00139538
0.00138692
0.00139169
0.00141473
0.00147403
0.00163556
0.00143095
0.000632925
0.00118933
0.00098244
0.000840683
0.00141733
0.00154539
-0.000905042
0.0067731
-0.00147633
0.00318681
-0.00192028
0.00249179
-0.00223755
0.00175305
-0.00242526
0.00095659
-0.00239248
-4.25848e-05
-0.00207219
-0.00121894
-0.0015551
-0.00225523
-0.00096396
-0.00292718
-0.000398046
-0.00314824
8.66982e-05
-0.00296191
0.000475487
-0.00245427
0.000802812
-0.00176522
0.00107398
-0.00102396
0.00131489
-0.000311503
0.00159394
0.000294916
0.00244359
0.000661978
0.00229935
0.000131122
0.00223721
-0.000461959
0.00199095
-0.000681671
0.00179323
-0.000779179
0.00167116
-0.000747377
0.00158793
-0.000648339
0.00145966
-0.000489174
0.00167901
-0.000219527
0.00179494
-0.000116109
0.00187784
-8.30801e-05
0.00194375
-6.60988e-05
0.00199011
-4.65391e-05
0.00200304
-1.31054e-05
0.00195722
4.56348e-05
0.00181319
0.000143844
0.00150414
0.000308862
0.00146817
0.000668868
0.001362
0.00108859
0.00119485
0.00158445
0.00271061
-0.000641964
0.00764195
-0.00103651
0.00358135
-0.00116582
0.00262109
-0.00126572
0.00185293
-0.00132608
0.00101695
-0.00116467
-0.000204007
-0.000779343
-0.00160427
-0.000320523
-0.00271405
0.000108362
-0.00335606
0.000459165
-0.00349904
0.000723246
-0.003226
0.00093011
-0.00266114
0.00110549
-0.00194061
0.00127229
-0.00119077
0.0014725
-0.000511732
0.00175369
1.3713e-05
0.00213622
0.000279435
0.00222807
3.92522e-05
0.00205034
-0.000284239
0.0018469
-0.00047825
0.00163645
-0.000568749
0.00145937
-0.000570318
0.00131943
-0.000508424
0.0012259
-0.000395669
0.00125513
-0.000248787
0.00129892
-0.000159935
0.00134186
-0.000126046
0.00138832
-0.000112597
0.00143756
-9.58067e-05
0.00148203
-5.76143e-05
0.00150622
2.1412e-05
0.00149442
0.000155608
0.00145185
0.000351394
0.00148028
0.00064041
0.00161651
0.000952318
0.00209295
0.00110798
0.00327551
0.00152802
0.00217522
0.00110005
0.00133481
0.000840177
0.00137274
-0.000548689
0.00845125
-0.000770192
0.00380285
-0.000457344
0.00230823
-0.00022638
0.00162196
-9.3222e-06
0.000799879
0.000366417
-0.000579756
0.000779571
-0.00201743
0.00110097
-0.00303545
0.00129312
-0.00354821
0.00137682
-0.00358274
0.00138352
-0.0032327
0.00134725
-0.00262489
0.00130452
-0.00189791
0.00128784
-0.0011741
0.00133097
-0.000554882
0.00145376
-0.000109091
0.00162604
0.000107138
0.00164249
2.27766e-05
0.00151466
-0.000156424
0.0013387
-0.000302307
0.00115002
-0.000380099
0.000975764
-0.000396084
0.000832364
-0.000365052
0.000737089
-0.000300423
0.00071032
-0.00022205
0.000725052
-0.0001747
0.000760825
-0.000161854
0.000811485
-0.000163293
0.000875421
-0.000159779
0.000951913
-0.000134144
0.00103823
-6.49406e-05
0.00112565
6.81506e-05
0.00121354
0.00026346
0.00134727
0.00050665
0.00155114
0.000748411
0.00177728
0.000881806
0.00208192
0.00122335
0.00184491
0.00133703
0.00112668
0.00155837
0.00253909
-0.000599346
0.00934154
-0.000429442
0.00363293
0.000460471
0.00141831
0.00102492
0.0010575
0.00158862
0.000236159
0.00215392
-0.00114507
0.00250185
-0.00236536
0.00260918
-0.00314277
0.00250914
-0.00344816
0.00226353
-0.00333713
0.00193985
-0.00290903
0.00159767
-0.00228273
0.00128998
-0.00159024
0.00105329
-0.000937438
0.000917635
-0.000419246
0.000884361
-7.58391e-05
0.000912922
7.85564e-05
0.000889054
4.66225e-05
0.000793931
-6.13245e-05
0.000652635
-0.000161036
0.000493295
-0.000220787
0.000339016
-0.000241836
0.000208862
-0.000234931
0.00012052
-0.000212115
8.61128e-05
-0.000187678
9.32291e-05
-0.000181853
0.000125098
-0.000193761
0.000173082
-0.000211316
0.000236007
-0.000222744
0.000319116
-0.000217292
0.0004346
-0.000180465
0.000588147
-8.5436e-05
0.000764284
8.72835e-05
0.00096318
0.000307717
0.00118424
0.000527317
0.00136472
0.000701287
0.00159321
0.000994829
0.00172346
0.00120675
0.00148982
0.00179199
0.00407022
0.00194933
0.007718
0.00253901
0.00304325
0.00277808
0.00117923
0.00331632
0.000519248
0.00402191
-0.000469449
0.00443729
-0.00156045
0.00445547
-0.00238353
0.00413356
-0.00282085
0.00357225
-0.00288684
0.00288299
-0.00264787
0.00216439
-0.00219044
0.00148883
-0.0016072
0.000924549
-0.001026
0.000502309
-0.000515228
0.000245314
-0.00016228
0.000131917
3.75306e-05
0.000102625
0.000107823
7.0056e-05
7.91642e-05
-3.93018e-06
1.26326e-05
-0.000116148
-4.8849e-05
-0.000246001
-9.09679e-05
-0.000372835
-0.000115037
-0.000479299
-0.000128504
-0.00055184
-0.000139611
-0.000585024
-0.000154534
-0.000588645
-0.00017827
-0.000575228
-0.000207219
-0.00055278
-0.000233804
-0.000524144
-0.000251421
-0.000485809
-0.000255667
-0.000422757
-0.000243557
-0.000300274
-0.000207959
-0.000100122
-0.000112908
0.000142529
6.50269e-05
0.000381839
0.000287969
0.000565874
0.000517216
0.000772135
0.000788532
0.00095441
0.00102444
0.000538208
0.00220815
0.00477989
0.00805434
0.011075
0.00972934
0.00252486
0.00908817
0.00116041
0.00844714
0.000171577
0.00754861
-0.000661907
0.00643046
-0.00126535
0.00519392
-0.00158429
0.0039356
-0.00162852
0.00274034
-0.00145262
0.00167312
-0.00112325
0.000762956
-0.000697064
7.48665e-05
-0.000337943
-0.000369102
-7.12952e-05
-0.000600253
6.88373e-05
-0.000692481
0.000129728
-0.000723427
0.000138737
-0.000756438
0.000112143
-0.000814289
7.04486e-05
-0.000894851
3.16766e-05
-0.000987927
2.0696e-06
-0.00108072
-2.22877e-05
-0.00116201
-4.72466e-05
-0.00122425
-7.74173e-05
-0.00126731
-0.000111516
-0.00129858
-0.000147037
-0.00132668
-0.000179164
-0.00135974
-0.000200787
-0.00140719
-0.00020401
-0.00148186
-0.000181029
-0.0016001
-0.00012536
-0.00177057
-3.75271e-05
-0.00199843
0.000114914
-0.0022843
0.000350858
-0.00268724
0.00069088
-0.00333195
0.00116188
-0.00434163
0.00179819
-0.00577616
0.00245893
-0.00600828
0.00244025
-0.00104441
0.00595184
0.00289997
0.00508749
0.00202482
0.00478976
0.000469394
0.00440917
-0.000281261
0.00370927
-0.000565431
0.00278835
-0.000663383
0.00178602
-0.000626216
0.000809811
-0.00047646
-6.22883e-05
-0.000251205
-0.000727455
-3.19411e-05
-0.00113723
7.1793e-05
-0.00134422
0.000135654
-0.00143154
0.000156116
-0.00145987
0.000158029
-0.00146986
0.00014869
-0.00148652
0.00012876
-0.00151893
0.000102821
-0.0015639
7.66038e-05
-0.00161459
5.27241e-05
-0.00166625
2.93282e-05
-0.00171985
6.31399e-06
-0.0017778
-1.95114e-05
-0.0018427
-4.66581e-05
-0.00191727
-7.25096e-05
-0.00200278
-9.36896e-05
-0.00209863
-0.000104978
-0.00220328
-9.93997e-05
-0.00231551
-6.88374e-05
-0.00243697
-3.93684e-06
-0.00256692
9.23864e-05
-0.00269135
0.000239307
-0.00280345
0.000462923
-0.0028978
0.000785191
-0.0029591
0.00122316
-0.00294421
0.00178326
-0.00271462
0.0022293
-0.00117303
0.000898623
-0.0021768
0.000413633
0.00247512
0.00119767
0.00124081
0.00115713
0.000509955
0.00080699
6.88646e-05
0.000331386
-8.9865e-05
-0.000232027
-0.000100032
-0.000817786
-4.05115e-05
-0.0013357
4.14016e-05
-0.00170285
0.000115897
-0.00189423
0.000159392
-0.00199189
0.000169409
-0.00202121
0.000164929
-0.00201564
0.000150505
-0.00199325
0.0001356
-0.00196624
0.000121641
-0.00194425
0.000106731
-0.00193195
9.04766e-05
-0.00192934
7.39544e-05
-0.00193467
5.80024e-05
-0.00194794
4.25553e-05
-0.00196943
2.77619e-05
-0.00200499
1.60097e-05
-0.0020589
7.21438e-06
-0.00213338
1.92305e-06
-0.00222864
1.52932e-06
-0.00234111
7.46087e-06
-0.00246186
2.13036e-05
-0.0025756
4.48718e-05
-0.00265855
7.89671e-05
-0.00270506
0.000138862
-0.00268983
0.000224039
-0.00257368
0.000346743
-0.00231092
0.000522395
-0.00183497
0.00074717
-0.000958733
0.000906988
0.000464336
0.000806195
0.00142074
-5.78129e-05
-0.000714645
-0.00571279
-0.00693129
-0.00447805
-0.00326257
-0.00278199
-0.00274627
-0.0028711
-0.00300747
-0.00308594
-0.0030843
-0.00301009
-0.00289427
-0.00276985
-0.00265078
-0.00254663
-0.00245763
-0.00238268
-0.00232268
-0.00227897
-0.00225179
-0.00224056
-0.00224478
-0.00226379
-0.00229457
-0.00233423
-0.00237936
-0.00242521
-0.00246564
-0.00249298
-0.00249775
-0.00246963
-0.00238291
-0.00221232
-0.0019202
-0.00145338
-0.000762479
8.76188e-05
0.000836036
0.000721012
)
;

boundaryField
{
    floor
    {
        type            calculated;
        value           nonuniform List<scalar> 
29
(
0
0
0
0
0
0
0
0
0
0
0
0
0
0
0
0
0
0
0
0
5.5093e-06
1.45171e-05
2.27899e-05
2.96052e-05
2.74877e-06
3.87649e-06
8.83894e-06
1.36614e-05
1.31098e-05
)
;
    }
    ceiling
    {
        type            calculated;
        value           nonuniform List<scalar> 
43
(
2.44729e-05
2.2747e-05
2.18513e-05
2.52886e-05
2.93207e-05
3.30868e-05
3.49036e-05
3.62821e-05
3.79064e-05
3.97172e-05
4.16407e-05
4.3525e-05
4.49435e-05
4.58243e-05
4.63103e-05
4.6547e-05
4.66489e-05
4.66926e-05
4.67159e-05
4.67286e-05
4.67315e-05
4.67287e-05
4.67313e-05
4.67549e-05
4.68332e-05
4.70096e-05
4.7333e-05
4.78529e-05
4.86063e-05
4.96026e-05
5.08077e-05
5.21077e-05
5.34119e-05
5.45912e-05
5.55377e-05
5.62315e-05
5.68539e-05
5.77422e-05
5.7174e-05
5.9023e-05
2.75786e-05
2.26113e-05
1.12334e-05
)
;
    }
    sWall
    {
        type            calculated;
        value           uniform -0.000166032;
    }
    nWall
    {
        type            calculated;
        value           nonuniform List<scalar> 6(-3.81584e-05 -3.97105e-05 -4.13367e-05 -4.06761e-05 -4.14497e-05 -5.26932e-05);
    }
    sideWalls
    {
        type            empty;
        value           nonuniform 0();
    }
    glass1
    {
        type            calculated;
        value           nonuniform List<scalar> 9(-3.34805e-05 -9.2037e-05 -0.000143005 -0.00018778 -0.000226887 -0.000260616 -0.000290946 -0.000325805 -0.000363922);
    }
    glass2
    {
        type            calculated;
        value           nonuniform List<scalar> 2(-0.000171499 -0.000184014);
    }
    sun
    {
        type            calculated;
        value           uniform 0;
    }
    heatsource1
    {
        type            calculated;
        value           nonuniform List<scalar> 3(2.02694e-07 2.0317e-07 2.03517e-07);
    }
    heatsource2
    {
        type            calculated;
        value           nonuniform List<scalar> 4(5.09563e-08 5.10494e-08 0 0);
    }
    Table_master
    {
        type            calculated;
        value           nonuniform List<scalar> 9(-1.52509e-07 -1.52633e-07 -1.52668e-07 -1.52687e-07 -1.52699e-07 -1.52703e-07 -1.52698e-07 -1.5268e-07 -1.52628e-07);
    }
    Table_slave
    {
        type            calculated;
        value           nonuniform List<scalar> 9(1.52384e-07 1.52403e-07 1.5237e-07 1.5234e-07 1.52317e-07 1.52307e-07 1.52304e-07 1.5232e-07 1.52374e-07);
    }
    inlet
    {
        type            calculated;
        value           uniform -0.00632691;
    }
    outlet
    {
        type            calculated;
        value           nonuniform List<scalar> 2(0.00585432 0.00119572);
    }
}


// ************************************************************************* //
