// -*- C++ -*-
// File generated by PyFoam - sorry for the ugliness

FoamFile
{
 version 2.0;
 format ascii;
 class volVectorField;
 location "400";
 object U;
}

dimensions [ 0 1 -1 0 0 0 0 ];

internalField nonuniform List<vector> 459
(
  (0.0343023 0.0852243 0)
  (-0.165617 0.0253063 0)
  (-0.189545 0.0177537 0)
  (-0.220016 0.0124175 0)
  (-0.242462 0.00654982 0)
  (-0.25608 0.000389195 0)
  (-0.259594 -0.00612586 0)
  (-0.25166 -0.0130068 0)
  (-0.232842 -0.0198774 0)
  (-0.204377 -0.0257174 0)
  (-0.169062 -0.0296821 0)
  (-0.130184 -0.0314731 0)
  (-0.0909154 -0.0316517 0)
  (-0.0561433 -0.0319692 0)
  (-0.0401624 -0.0341672 0)
  (-0.000719067 0.00713691 0)
  (-0.0215668 -0.0177775 0)
  (0.00241704 -0.0260579 0)
  (0.0228147 -0.0190669 0)
  (0.0382129 -0.0126837 0)
  (0.0493703 -0.00803258 0)
  (0.0558346 -0.00480917 0)
  (0.0589922 -0.00313303 0)
  (0.0603967 -0.00240226 0)
  (0.061114 -0.00204684 0)
  (0.0615472 -0.00181953 0)
  (0.0617441 -0.00163653 0)
  (0.0616452 -0.00140743 0)
  (0.0610444 -0.000965855 0)
  (0.059385 6.69426e-05 0)
  (0.0554868 0.00222317 0)
  (0.0480701 0.00449224 0)
  (0.0410022 0.006262 0)
  (-0.0125693 0.0201225 0)
  (0.207485 0.174232 0)
  (-0.154401 0.0663357 0)
  (-0.151937 0.0517777 0)
  (-0.183124 0.0406631 0)
  (-0.20505 0.0282063 0)
  (-0.21862 0.0144255 0)
  (-0.222574 -0.000965804 0)
  (-0.21533 -0.0176624 0)
  (-0.197958 -0.0337053 0)
  (-0.172066 -0.0466162 0)
  (-0.140705 -0.0545554 0)
  (-0.10726 -0.0569039 0)
  (-0.074986 -0.0543194 0)
  (-0.0477735 -0.0484239 0)
  (-0.0305115 -0.0402867 0)
  (-0.0166387 -0.0201392 0)
  (-0.00773534 0.0110779 0)
  (0.0641289 0.0302525 0)
  (0.0324939 -0.0194088 0)
  (0.0388448 -0.0298705 0)
  (0.0494194 -0.0250814 0)
  (0.0575816 -0.0170408 0)
  (0.0628399 -0.009789 0)
  (0.0648475 -0.00394178 0)
  (0.0650876 -0.000726467 0)
  (0.0649813 0.00066074 0)
  (0.0650473 0.00131423 0)
  (0.0651935 0.00172843 0)
  (0.0652968 0.0020897 0)
  (0.0653129 0.00255462 0)
  (0.0651944 0.00346264 0)
  (0.0644097 0.00570934 0)
  (0.0605447 0.0119534 0)
  (0.0508244 0.0171156 0)
  (0.0453728 0.0204581 0)
  (-0.0470276 0.0435901 0)
  (0.365986 0.260435 0)
  (-0.17079 0.105446 0)
  (-0.113649 0.0834503 0)
  (-0.143504 0.0635609 0)
  (-0.162587 0.0430995 0)
  (-0.174793 0.0208047 0)
  (-0.178131 -0.00416939 0)
  (-0.170059 -0.0308729 0)
  (-0.152624 -0.055828 0)
  (-0.128214 -0.0749385 0)
  (-0.100185 -0.0856897 0)
  (-0.0716223 -0.0876569 0)
  (-0.0449056 -0.0819678 0)
  (-0.0222578 -0.0701077 0)
  (-0.0058946 -0.0533592 0)
  (0.00719717 -0.0276031 0)
  (0.0144954 0.00597219 0)
  (0.106146 -0.0412193 0)
  (0.0720035 -0.0434721 0)
  (0.0678871 -0.0388683 0)
  (0.070136 -0.0307138 0)
  (0.0716778 -0.0215382 0)
  (0.0724131 -0.0139002 0)
  (0.0707077 -0.0113907 0)
  (0.0669804 -0.00821135 0)
  (0.0644581 -0.00649494 0)
  (0.0633524 -0.00552116 0)
  (0.0629019 -0.00490796 0)
  (0.0627169 -0.00448107 0)
  (0.0628368 -0.00405267 0)
  (0.0637214 -0.00327982 0)
  (0.0665607 -0.000208117 0)
  (0.0644573 0.016939 0)
  (0.0510111 0.0288621 0)
  (0.0515361 0.0368449 0)
  (-0.0772592 0.0684141 0)
  (0.50834 0.329624 0)
  (-0.204674 0.14009 0)
  (-0.0736466 0.109986 0)
  (-0.101417 0.0825305 0)
  (-0.11467 0.0563329 0)
  (-0.122983 0.0272853 0)
  (-0.12298 -0.0068339 0)
  (-0.111696 -0.0439524 0)
  (-0.0932684 -0.0771996 0)
  (-0.0709894 -0.101034 0)
  (-0.047922 -0.11308 0)
  (-0.026263 -0.113828 0)
  (-0.00691743 -0.105266 0)
  (0.00991369 -0.0886954 0)
  (0.0233999 -0.0673624 0)
  (0.0377346 -0.0416762 0)
  (0.059876 -0.0159125 0)
  (0.0899071 -0.00121643 0)
  (0.0979798 -0.0338041 0)
  (0.0845082 -0.0382553 0)
  (0.0763192 -0.0334757 0)
  (0.0726207 -0.0270183 0)
  (0.0703223 -0.0196495 0)
  (0.0694483 -0.0111742 0)
  (0.0714874 -0.0066485 0)
  (0.0757456 -0.00541734 0)
  (0.0793712 -0.00472663 0)
  (0.0820021 -0.00415369 0)
  (0.0837451 -0.00334976 0)
  (0.0840054 -0.00207271 0)
  (0.0816158 -9.80651e-05 0)
  (0.0753329 0.00284709 0)
  (0.0623904 0.00728914 0)
  (0.0511847 0.0274982 0)
  (0.0400843 0.0440387 0)
  (0.0546697 0.0569298 0)
  (-0.109515 0.0908247 0)
  (0.630402 0.38321 0)
  (-0.2457 0.168465 0)
  (-0.0347135 0.124692 0)
  (-0.0576196 0.0927995 0)
  (-0.062505 0.0634513 0)
  (-0.0638663 0.0299436 0)
  (-0.0548858 -0.0122608 0)
  (-0.0378857 -0.0588581 0)
  (-0.0192181 -0.0972506 0)
  (-0.00153748 -0.12226 0)
  (0.0135514 -0.132586 0)
  (0.0252645 -0.130328 0)
  (0.0343607 -0.118932 0)
  (0.0414772 -0.100868 0)
  (0.047672 -0.0788291 0)
  (0.0549206 -0.0553952 0)
  (0.0657555 -0.0358926 0)
  (0.0761191 -0.0301721 0)
  (0.0778758 -0.0354945 0)
  (0.0715444 -0.0337606 0)
  (0.0638263 -0.0284201 0)
  (0.0581033 -0.0226933 0)
  (0.0542202 -0.016969 0)
  (0.0523701 -0.0112325 0)
  (0.0528534 -0.00643698 0)
  (0.0553146 -0.00431592 0)
  (0.0580372 -0.00357753 0)
  (0.0607177 -0.00288881 0)
  (0.0632099 -0.00133174 0)
  (0.0651182 0.00167618 0)
  (0.0651756 0.00621028 0)
  (0.0627882 0.0123854 0)
  (0.0572944 0.0208098 0)
  (0.0505377 0.0362738 0)
  (0.0410141 0.0546161 0)
  (0.0627547 0.0747081 0)
  (-0.0199818 0.10313 0)
  (0.0451732 0.0319785 0)
  (-0.0619451 -0.0345459 0)
  (-0.270385 -0.0569932 0)
  (0.717931 0.427911 0)
  (-0.285064 0.187528 0)
  (-0.00575971 0.11967 0)
  (-0.0125071 0.0920489 0)
  (-0.00593599 0.0638764 0)
  (0.00304298 0.0245598 0)
  (0.0292775 -0.0278881 0)
  (0.0502747 -0.0769981 0)
  (0.0654802 -0.112959 0)
  (0.0746314 -0.133727 0)
  (0.0783231 -0.140283 0)
  (0.0778659 -0.135172 0)
  (0.0746512 -0.121525 0)
  (0.0700293 -0.102323 0)
  (0.0654484 -0.0805067 0)
  (0.0622784 -0.0587684 0)
  (0.0614462 -0.0407635 0)
  (0.060836 -0.0309422 0)
  (0.0568337 -0.0280264 0)
  (0.0493339 -0.0254138 0)
  (0.0412946 -0.0214917 0)
  (0.0349953 -0.0173967 0)
  (0.0308255 -0.0135755 0)
  (0.0289207 -0.0100539 0)
  (0.0292065 -0.00746681 0)
  (0.0311879 -0.0067346 0)
  (0.0339631 -0.00682635 0)
  (0.0372035 -0.00655806 0)
  (0.0407399 -0.00496844 0)
  (0.0442839 -0.00118344 0)
  (0.0474999 0.00510137 0)
  (0.0491313 0.0134579 0)
  (0.0494387 0.0240044 0)
  (0.0498903 0.0384254 0)
  (0.0488841 0.0562568 0)
  (0.0712735 0.0788945 0)
  (0.0518667 0.0966528 0)
  (0.0919147 0.0675257 0)
  (0.115101 0.0442976 0)
  (-0.129032 -0.00759296 0)
  (0.770095 0.468692 0)
  (-0.303645 0.173162 0)
  (0.0214979 0.0679262 0)
  (0.0481196 0.064285 0)
  (0.0676738 0.0471077 0)
  (0.0963198 0.00298014 0)
  (0.128853 -0.0511942 0)
  (0.148154 -0.0939552 0)
  (0.155282 -0.121623 0)
  (0.152192 -0.134776 0)
  (0.141371 -0.135427 0)
  (0.125592 -0.126376 0)
  (0.107394 -0.110605 0)
  (0.0889272 -0.0910605 0)
  (0.0719508 -0.0703923 0)
  (0.0576078 -0.0507285 0)
  (0.0464615 -0.0346606 0)
  (0.0375578 -0.0245672 0)
  (0.0289773 -0.0197568 0)
  (0.020382 -0.0170334 0)
  (0.0127826 -0.0145529 0)
  (0.00713823 -0.0123725 0)
  (0.00359605 -0.0106257 0)
  (0.00210458 -0.00929386 0)
  (0.00245459 -0.00870785 0)
  (0.00412564 -0.00916693 0)
  (0.00652151 -0.0099887 0)
  (0.00944626 -0.0103106 0)
  (0.0129642 -0.00927304 0)
  (0.0172075 -0.00586306 0)
  (0.0231096 0.000924151 0)
  (0.0290987 0.0101694 0)
  (0.0346504 0.0209058 0)
  (0.0416949 0.0337038 0)
  (0.0494554 0.0482888 0)
  (0.0714951 0.0665276 0)
  (0.0848788 0.0741755 0)
  (0.11702 0.0517023 0)
  (0.156629 0.0435207 0)
  (-0.0352862 0.092847 0)
  (0.874809 0.470512 0)
  (-0.066001 0.15212 0)
  (0.108954 -0.0125448 0)
  (0.179737 -0.036601 0)
  (0.204759 -0.0469806 0)
  (0.23663 -0.0699904 0)
  (0.256126 -0.0935611 0)
  (0.258779 -0.111014 0)
  (0.245852 -0.120079 0)
  (0.22132 -0.120574 0)
  (0.189613 -0.113583 0)
  (0.15476 -0.100935 0)
  (0.119937 -0.08449 0)
  (0.0875751 -0.0664177 0)
  (0.0593341 -0.0487038 0)
  (0.0358905 -0.0326555 0)
  (0.0179912 -0.0203233 0)
  (0.00496871 -0.0131441 0)
  (-0.00502368 -0.0101569 0)
  (-0.0125114 -0.00919657 0)
  (-0.0183539 -0.0087223 0)
  (-0.0225348 -0.00853438 0)
  (-0.025222 -0.00862863 0)
  (-0.0266034 -0.00901735 0)
  (-0.0269344 -0.00982535 0)
  (-0.026623 -0.0110694 0)
  (-0.0260354 -0.0124067 0)
  (-0.0252593 -0.0133766 0)
  (-0.0241204 -0.0134755 0)
  (-0.0222093 -0.0121125 0)
  (-0.0185309 -0.00855511 0)
  (-0.00970856 -0.00209275 0)
  (-0.000905371 0.00630231 0)
  (0.00980855 0.0146825 0)
  (0.0215721 0.0216962 0)
  (0.0414278 0.0288954 0)
  (0.0601209 0.0219743 0)
  (0.0796241 -0.00533476 0)
  (0.138284 0.0395897 0)
  (-0.409828 0.204556 0)
  (1.02158 0.423601 0)
  (0.486177 0.279916 0)
  (0.500615 0.184537 0)
  (0.524881 0.114725 0)
  (0.505762 0.0651997 0)
  (0.4654 0.0184917 0)
  (0.417836 -0.0218846 0)
  (0.365392 -0.0505871 0)
  (0.308263 -0.0661702 0)
  (0.249285 -0.0702138 0)
  (0.191873 -0.0659052 0)
  (0.138685 -0.0565109 0)
  (0.0912297 -0.0441373 0)
  (0.0510286 -0.0309263 0)
  (0.0183824 -0.0187149 0)
  (-0.00767773 -0.00868772 0)
  (-0.023834 -0.00374614 0)
  (-0.0336448 -0.00237927 0)
  (-0.0402245 -0.00273521 0)
  (-0.0452146 -0.00368588 0)
  (-0.0492479 -0.0047006 0)
  (-0.05251 -0.0057344 0)
  (-0.0551584 -0.00680705 0)
  (-0.0573804 -0.00794554 0)
  (-0.0594257 -0.00919275 0)
  (-0.0616265 -0.0105011 0)
  (-0.0643146 -0.0116342 0)
  (-0.0677763 -0.0122083 0)
  (-0.0723212 -0.0116849 0)
  (-0.0783773 -0.00935387 0)
  (-0.0864805 -0.00439688 0)
  (-0.0966964 0.0037763 0)
  (-0.107028 0.0145741 0)
  (-0.122014 0.0281472 0)
  (-0.145696 0.0445564 0)
  (-0.180561 0.0626717 0)
  (-0.22992 0.0785312 0)
  (-0.286247 0.0895442 0)
  (-0.354142 0.0957523 0)
  (-0.613829 0.0979102 0)
  (-0.155934 0.00555867 0)
  (0.124483 0.00886522 0)
  (0.207461 -0.0236355 0)
  (0.193389 -0.0368974 0)
  (0.177531 -0.0376552 0)
  (0.155873 -0.0348162 0)
  (0.126717 -0.0300957 0)
  (0.0930218 -0.0237078 0)
  (0.0582415 -0.016159 0)
  (0.0236536 -0.00804868 0)
  (-0.0103744 3.83184e-05 0)
  (-0.034833 0.00517535 0)
  (-0.0514602 0.00796514 0)
  (-0.061697 0.00878034 0)
  (-0.0672302 0.00803666 0)
  (-0.0709442 0.0070267 0)
  (-0.0738095 0.00611303 0)
  (-0.0763543 0.00531778 0)
  (-0.0789213 0.00453975 0)
  (-0.0816242 0.00359368 0)
  (-0.0844715 0.00254054 0)
  (-0.0875607 0.00143292 0)
  (-0.0910139 0.00035242 0)
  (-0.0949435 -0.00053524 0)
  (-0.0994145 -0.000962776 0)
  (-0.10442 -0.000612195 0)
  (-0.109868 0.000857929 0)
  (-0.115557 0.00377821 0)
  (-0.120915 0.00857077 0)
  (-0.125081 0.016072 0)
  (-0.128505 0.0274163 0)
  (-0.13142 0.0429455 0)
  (-0.134584 0.0617497 0)
  (-0.138471 0.0802625 0)
  (-0.139955 0.0888365 0)
  (-0.122141 0.0669772 0)
  (-0.0767827 -0.0246677 0)
  (-0.276382 -0.201085 0)
  (0.00727374 0.197582 0)
  (0.0417382 0.0740019 0)
  (-0.000598145 0.00872173 0)
  (-0.0102284 0.00055224 0)
  (-0.0208361 0.00149944 0)
  (-0.034151 0.000794428 0)
  (-0.0499692 0.00124933 0)
  (-0.0659346 0.0032954 0)
  (-0.0793221 0.00559613 0)
  (-0.0877424 0.00651827 0)
  (-0.0927628 0.00526316 0)
  (-0.0952043 0.00183739 0)
  (-0.0958674 -0.00242502 0)
  (-0.0955601 -0.00704587 0)
  (-0.0951898 -0.0119662 0)
  (-0.0953773 -0.016736 0)
  (-0.0961717 -0.0210354 0)
  (-0.0974652 -0.0245743 0)
  (-0.099117 -0.0271536 0)
  (-0.101073 -0.028754 0)
  (-0.103367 -0.0295225 0)
  (-0.10593 -0.0294635 0)
  (-0.108722 -0.0288026 0)
  (-0.111706 -0.0277164 0)
  (-0.114768 -0.0261096 0)
  (-0.117664 -0.0237428 0)
  (-0.120006 -0.0202038 0)
  (-0.121268 -0.0148462 0)
  (-0.120939 -0.00752893 0)
  (-0.118127 0.00202242 0)
  (-0.11143 0.0145988 0)
  (-0.0995864 0.0308799 0)
  (-0.0822662 0.0503393 0)
  (-0.0603033 0.0688358 0)
  (-0.0367071 0.0794101 0)
  (0.00382077 0.062974 0)
  (0.142798 -0.0072653 0)
  (-0.206089 -0.111177 0)
  (-0.0505391 -0.322769 0)
  (-0.415701 -0.122833 0)
  (-0.303041 0.0669037 0)
  (-0.246996 -0.0184745 0)
  (-0.206017 -0.026325 0)
  (-0.193161 -0.0162217 0)
  (-0.188145 -0.00686695 0)
  (-0.184748 0.000956932 0)
  (-0.180696 0.00827796 0)
  (-0.174898 0.0154907 0)
  (-0.167034 0.0226628 0)
  (-0.157307 0.0297475 0)
  (-0.146639 0.0365799 0)
  (-0.13621 0.0431113 0)
  (-0.126885 0.0495911 0)
  (-0.119069 0.0560167 0)
  (-0.112858 0.0623304 0)
  (-0.108112 0.068309 0)
  (-0.104604 0.0735023 0)
  (-0.102138 0.0774791 0)
  (-0.100537 0.0799873 0)
  (-0.0996567 0.080989 0)
  (-0.0994104 0.080595 0)
  (-0.0997379 0.0788524 0)
  (-0.100566 0.0761608 0)
  (-0.101798 0.0729174 0)
  (-0.103292 0.0692585 0)
  (-0.104798 0.065287 0)
  (-0.105907 0.061055 0)
  (-0.105937 0.0565721 0)
  (-0.103606 0.0528474 0)
  (-0.0970062 0.0508441 0)
  (-0.0837353 0.051388 0)
  (-0.0620404 0.0553972 0)
  (-0.0326124 0.0633444 0)
  (0.0147732 0.0744249 0)
  (0.0578916 0.0751265 0)
  (0.0993021 0.061493 0)
  (0.16217 0.0344933 0)
  (-0.225219 -0.0176984 0)
)
;

boundaryField
{
  floor
  {
    type noSlip;
  }
  ceiling
  {
    type noSlip;
  }
  sWall
  {
    type noSlip;
  }
  nWall
  {
    type noSlip;
  }
  sideWalls
  {
    type empty;
  }
  glass1
  {
    type noSlip;
  }
  glass2
  {
    type noSlip;
  }
  sun
  {
    type noSlip;
  }
  heatsource1
  {
    type noSlip;
  }
  heatsource2
  {
    type noSlip;
  }
  Table_master
  {
    type noSlip;
  }
  Table_slave
  {
    type noSlip;
  }
  inlet
  {
    type fixedValue;
    value uniform (0.277164 -0.114805 0);
  }
  outlet
  {
    type zeroGradient;
  }
} 	// ************************************************************************* //

