// -*- C++ -*-
// File generated by PyFoam - sorry for the ugliness

FoamFile
{
 version 2.0;
 format ascii;
 class volVectorField;
 location "600";
 object U;
}

dimensions [ 0 1 -1 0 0 0 0 ];

internalField nonuniform List<vector> 459
(
  (0.0369576 0.0842959 0)
  (-0.163704 0.0243934 0)
  (-0.186292 0.0176954 0)
  (-0.216719 0.0128479 0)
  (-0.239941 0.00747971 0)
  (-0.255307 0.00183851 0)
  (-0.261691 -0.00418634 0)
  (-0.257518 -0.0106603 0)
  (-0.24265 -0.0175085 0)
  (-0.21768 -0.0239017 0)
  (-0.184607 -0.0289734 0)
  (-0.146164 -0.032323 0)
  (-0.105267 -0.034526 0)
  (-0.0673673 -0.0375291 0)
  (-0.0490165 -0.0428185 0)
  (0.00298684 0.00604602 0)
  (-0.0176895 -0.0186233 0)
  (0.00767698 -0.025706 0)
  (0.0265149 -0.0182804 0)
  (0.0414959 -0.0118838 0)
  (0.0517072 -0.00741605 0)
  (0.0572392 -0.00452531 0)
  (0.0597716 -0.00304357 0)
  (0.0608739 -0.00236446 0)
  (0.0614467 -0.00201158 0)
  (0.0617738 -0.00178344 0)
  (0.0618718 -0.00159953 0)
  (0.0616808 -0.00136417 0)
  (0.0609866 -0.000911372 0)
  (0.0592221 0.00013978 0)
  (0.0552027 0.00232291 0)
  (0.0476364 0.00461739 0)
  (0.0405561 0.00625956 0)
  (-0.0134236 0.0198285 0)
  (0.212125 0.172623 0)
  (-0.153962 0.0640342 0)
  (-0.149506 0.0511399 0)
  (-0.180721 0.0411385 0)
  (-0.203308 0.0299742 0)
  (-0.218489 0.0176894 0)
  (-0.225236 0.00383706 0)
  (-0.221774 -0.011717 0)
  (-0.208136 -0.027723 0)
  (-0.185367 -0.0418345 0)
  (-0.155872 -0.0519169 0)
  (-0.12283 -0.0568514 0)
  (-0.0896844 -0.0570005 0)
  (-0.0609591 -0.0539618 0)
  (-0.0426041 -0.0477413 0)
  (-0.0272598 -0.0261741 0)
  (-0.00981003 0.0038646 0)
  (0.0686033 0.0269748 0)
  (0.0366136 -0.0198661 0)
  (0.0416783 -0.0288925 0)
  (0.0518924 -0.0233465 0)
  (0.0596211 -0.0151608 0)
  (0.0641836 -0.00808575 0)
  (0.0657109 -0.00302055 0)
  (0.0657538 -0.000336195 0)
  (0.0656113 0.000857931 0)
  (0.065656 0.00145493 0)
  (0.0657709 0.00184721 0)
  (0.0658471 0.00220091 0)
  (0.065842 0.0026653 0)
  (0.0657072 0.00358918 0)
  (0.0649009 0.00587169 0)
  (0.0609954 0.0121918 0)
  (0.0511727 0.0174248 0)
  (0.0456076 0.0206201 0)
  (-0.0471008 0.0431833 0)
  (0.372338 0.25823 0)
  (-0.172428 0.10228 0)
  (-0.111779 0.0825932 0)
  (-0.14192 0.064358 0)
  (-0.161436 0.045938 0)
  (-0.175079 0.026081 0)
  (-0.181412 0.00363784 0)
  (-0.177486 -0.0213977 0)
  (-0.163658 -0.0467249 0)
  (-0.141805 -0.0681777 0)
  (-0.114873 -0.0825218 0)
  (-0.0861022 -0.0883754 0)
  (-0.0583682 -0.0862991 0)
  (-0.03435 -0.077613 0)
  (-0.0163928 -0.0624589 0)
  (-0.00200783 -0.0375697 0)
  (0.0108351 -0.00420329 0)
  (0.104503 -0.0493055 0)
  (0.0702727 -0.0465375 0)
  (0.0666526 -0.0390454 0)
  (0.0694201 -0.0294545 0)
  (0.0712183 -0.0196438 0)
  (0.0717407 -0.0115695 0)
  (0.0697702 -0.00966588 0)
  (0.0665931 -0.00716387 0)
  (0.0645867 -0.00582648 0)
  (0.063745 -0.00507224 0)
  (0.0634305 -0.00460421 0)
  (0.0633523 -0.00427369 0)
  (0.0635799 -0.00389737 0)
  (0.0645764 -0.00315047 0)
  (0.0675547 -0.000103965 0)
  (0.0655709 0.0171104 0)
  (0.0521563 0.029247 0)
  (0.0522342 0.0373416 0)
  (-0.0760795 0.0682368 0)
  (0.515686 0.327029 0)
  (-0.208327 0.136473 0)
  (-0.0722082 0.108908 0)
  (-0.100899 0.0835353 0)
  (-0.114409 0.060147 0)
  (-0.1242 0.0347102 0)
  (-0.128291 0.00453216 0)
  (-0.121365 -0.0302988 0)
  (-0.105997 -0.0648712 0)
  (-0.0851911 -0.0925731 0)
  (-0.0620873 -0.109736 0)
  (-0.0393896 -0.115387 0)
  (-0.0187853 -0.110951 0)
  (-0.000851548 -0.0979702 0)
  (0.0140899 -0.0777436 0)
  (0.0288066 -0.0524587 0)
  (0.0511737 -0.027136 0)
  (0.0820841 -0.00810121 0)
  (0.0920844 -0.0384728 0)
  (0.0791617 -0.0403301 0)
  (0.0718418 -0.033659 0)
  (0.0692939 -0.0261258 0)
  (0.0681786 -0.0181705 0)
  (0.0685818 -0.00930777 0)
  (0.0714828 -0.00565495 0)
  (0.075831 -0.00492494 0)
  (0.0795482 -0.00449306 0)
  (0.0824204 -0.00404018 0)
  (0.0844061 -0.00329042 0)
  (0.0848503 -0.00204563 0)
  (0.082573 -0.000105643 0)
  (0.0763912 0.00278099 0)
  (0.0636245 0.00712543 0)
  (0.0525963 0.0274838 0)
  (0.0416459 0.0444178 0)
  (0.0554704 0.0577888 0)
  (-0.10645 0.0913556 0)
  (0.638029 0.380517 0)
  (-0.25071 0.164901 0)
  (-0.0334703 0.123515 0)
  (-0.0583171 0.0940456 0)
  (-0.0634679 0.068115 0)
  (-0.0668813 0.0395558 0)
  (-0.0655515 0.00314093 0)
  (-0.0510543 -0.0413052 0)
  (-0.0337846 -0.082855 0)
  (-0.015901 -0.113464 0)
  (0.000627742 -0.130453 0)
  (0.0143272 -0.133668 0)
  (0.0249949 -0.126153 0)
  (0.0333236 -0.110791 0)
  (0.040286 -0.0899626 0)
  (0.0478158 -0.0665601 0)
  (0.0584367 -0.0455972 0)
  (0.0694718 -0.0363611 0)
  (0.0722513 -0.040065 0)
  (0.066509 -0.0367018 0)
  (0.0594863 -0.0298859 0)
  (0.0547608 -0.023135 0)
  (0.0520329 -0.016844 0)
  (0.0514083 -0.0109782 0)
  (0.0529005 -0.00674931 0)
  (0.0560072 -0.00492929 0)
  (0.0592198 -0.00420657 0)
  (0.0623036 -0.00340043 0)
  (0.0650684 -0.00169138 0)
  (0.0670944 0.001461 0)
  (0.0671246 0.00608051 0)
  (0.0646162 0.0122536 0)
  (0.0589715 0.0206246 0)
  (0.0520824 0.0362239 0)
  (0.0425497 0.0550379 0)
  (0.0635823 0.0757789 0)
  (-0.0178178 0.104528 0)
  (0.0445493 0.032664 0)
  (-0.0629508 -0.0354828 0)
  (-0.27018 -0.0577421 0)
  (0.724977 0.425455 0)
  (-0.290608 0.184506 0)
  (-0.00482462 0.118716 0)
  (-0.0146081 0.0939185 0)
  (-0.0087236 0.069641 0)
  (-0.00340583 0.0386592 0)
  (0.0136013 -0.00581798 0)
  (0.0340115 -0.0572637 0)
  (0.0503955 -0.0993199 0)
  (0.061748 -0.127107 0)
  (0.0680301 -0.140213 0)
  (0.0698988 -0.140306 0)
  (0.0685889 -0.130313 0)
  (0.0653157 -0.113284 0)
  (0.0614284 -0.0921805 0)
  (0.0583859 -0.0700381 0)
  (0.0572608 -0.0504976 0)
  (0.0566355 -0.0380928 0)
  (0.0529071 -0.033178 0)
  (0.0456829 -0.0289533 0)
  (0.0380842 -0.0237302 0)
  (0.0325387 -0.0187717 0)
  (0.0293544 -0.0145104 0)
  (0.0285317 -0.0108923 0)
  (0.0297781 -0.00850865 0)
  (0.0324467 -0.00786096 0)
  (0.0356973 -0.00782963 0)
  (0.0392565 -0.00731386 0)
  (0.0429676 -0.00543071 0)
  (0.0465341 -0.0013599 0)
  (0.0496262 0.0051243 0)
  (0.0509978 0.0135334 0)
  (0.0509961 0.0240475 0)
  (0.0511585 0.0385711 0)
  (0.049965 0.0568483 0)
  (0.0719601 0.0801224 0)
  (0.0527268 0.0986016 0)
  (0.0917726 0.0689716 0)
  (0.115178 0.0447671 0)
  (-0.130363 -0.00864198 0)
  (0.77376 0.466473 0)
  (-0.309402 0.170777 0)
  (0.0204276 0.0681286 0)
  (0.0432584 0.0696209 0)
  (0.0592698 0.0582669 0)
  (0.07526 0.0252486 0)
  (0.107505 -0.0271534 0)
  (0.129759 -0.075321 0)
  (0.140859 -0.110642 0)
  (0.141985 -0.131355 0)
  (0.135069 -0.138374 0)
  (0.12241 -0.133995 0)
  (0.106467 -0.121256 0)
  (0.0893294 -0.103091 0)
  (0.0727869 -0.0824155 0)
  (0.0581727 -0.0618404 0)
  (0.0462612 -0.0439959 0)
  (0.036592 -0.0315722 0)
  (0.0274295 -0.0247597 0)
  (0.0185262 -0.0206284 0)
  (0.0110109 -0.0172022 0)
  (0.0058529 -0.0144648 0)
  (0.00304299 -0.0124607 0)
  (0.00234452 -0.0110605 0)
  (0.00336169 -0.0104884 0)
  (0.00547504 -0.0108271 0)
  (0.00813827 -0.0113573 0)
  (0.0112173 -0.0112882 0)
  (0.0148068 -0.00982077 0)
  (0.0190399 -0.00597497 0)
  (0.0249248 0.00120466 0)
  (0.0305986 0.0105694 0)
  (0.0357724 0.0212999 0)
  (0.0424771 0.0341928 0)
  (0.0499663 0.0491723 0)
  (0.071839 0.068021 0)
  (0.0850016 0.0764713 0)
  (0.116755 0.0538895 0)
  (0.156519 0.0443827 0)
  (-0.0372452 0.0929161 0)
  (0.877185 0.469947 0)
  (-0.0725209 0.150525 0)
  (0.104914 -0.00977732 0)
  (0.171522 -0.0224944 0)
  (0.184171 -0.0242313 0)
  (0.207907 -0.0478948 0)
  (0.232878 -0.0757701 0)
  (0.24272 -0.0993762 0)
  (0.236654 -0.11537 0)
  (0.218071 -0.122367 0)
  (0.191054 -0.120511 0)
  (0.159426 -0.111275 0)
  (0.126588 -0.0968535 0)
  (0.0949138 -0.0791848 0)
  (0.0662787 -0.0606035 0)
  (0.0416789 -0.0430699 0)
  (0.0218821 -0.0285067 0)
  (0.00701323 -0.0189472 0)
  (-0.00451178 -0.0142392 0)
  (-0.0127241 -0.0124474 0)
  (-0.0187084 -0.011553 0)
  (-0.0227002 -0.0111423 0)
  (-0.0250647 -0.0111106 0)
  (-0.0261295 -0.0113898 0)
  (-0.0262389 -0.0120283 0)
  (-0.0258159 -0.0129778 0)
  (-0.0251748 -0.0139187 0)
  (-0.0243577 -0.0144421 0)
  (-0.0231721 -0.0140827 0)
  (-0.0212117 -0.012272 0)
  (-0.017458 -0.00828061 0)
  (-0.00815538 -0.00137364 0)
  (0.000119782 0.0072853 0)
  (0.010591 0.0156352 0)
  (0.0223117 0.0229129 0)
  (0.0424818 0.030523 0)
  (0.061825 0.0239893 0)
  (0.0821894 -0.0042021 0)
  (0.141614 0.0385844 0)
  (-0.406812 0.203242 0)
  (1.02145 0.425066 0)
  (0.486909 0.281435 0)
  (0.500311 0.18928 0)
  (0.517716 0.125421 0)
  (0.492173 0.0811629 0)
  (0.456239 0.0374573 0)
  (0.415325 -0.00544783 0)
  (0.368631 -0.0404742 0)
  (0.316531 -0.0635999 0)
  (0.261532 -0.0744018 0)
  (0.20679 -0.0748623 0)
  (0.15488 -0.06805 0)
  (0.107889 -0.0569753 0)
  (0.0662352 -0.0433358 0)
  (0.0313848 -0.0294285 0)
  (0.00272477 -0.0170412 0)
  (-0.017925 -0.0089116 0)
  (-0.030128 -0.00594485 0)
  (-0.0382536 -0.00561482 0)
  (-0.0440485 -0.00635878 0)
  (-0.0485064 -0.00729562 0)
  (-0.0519872 -0.00824607 0)
  (-0.0547861 -0.00920083 0)
  (-0.0571459 -0.0101795 0)
  (-0.0593255 -0.011207 0)
  (-0.0616408 -0.0122248 0)
  (-0.0643947 -0.013017 0)
  (-0.0678516 -0.0132254 0)
  (-0.0723128 -0.0123306 0)
  (-0.0782076 -0.00963512 0)
  (-0.0860727 -0.00433836 0)
  (-0.0959554 0.00410221 0)
  (-0.105613 0.0149793 0)
  (-0.120245 0.0285561 0)
  (-0.143434 0.0450551 0)
  (-0.177691 0.063437 0)
  (-0.226518 0.0797798 0)
  (-0.282878 0.0915941 0)
  (-0.351601 0.098804 0)
  (-0.613303 0.101796 0)
  (-0.178712 0.0153894 0)
  (0.134398 0.0339961 0)
  (0.226303 0.00806885 0)
  (0.217378 -0.0136658 0)
  (0.203526 -0.0259114 0)
  (0.184345 -0.0321703 0)
  (0.156596 -0.0343217 0)
  (0.123024 -0.0328416 0)
  (0.0870214 -0.0283615 0)
  (0.0512772 -0.0216737 0)
  (0.0181915 -0.0133162 0)
  (-0.0155581 -0.00317677 0)
  (-0.0381551 0.0030691 0)
  (-0.0531651 0.00621912 0)
  (-0.0618833 0.0068727 0)
  (-0.0669689 0.00620805 0)
  (-0.0706751 0.00520021 0)
  (-0.0739816 0.00396399 0)
  (-0.077227 0.00268922 0)
  (-0.0805084 0.001489 0)
  (-0.0839349 0.000372391 0)
  (-0.087583 -0.000640986 0)
  (-0.0915305 -0.00147943 0)
  (-0.0958772 -0.00201528 0)
  (-0.100688 -0.002039 0)
  (-0.10595 -0.00127833 0)
  (-0.111572 0.00057158 0)
  (-0.117356 0.00381003 0)
  (-0.122755 0.00879139 0)
  (-0.126809 0.0164085 0)
  (-0.130074 0.0278039 0)
  (-0.132833 0.0433248 0)
  (-0.13581 0.0621871 0)
  (-0.139498 0.0809504 0)
  (-0.140887 0.0898441 0)
  (-0.123868 0.0680068 0)
  (-0.0829099 -0.0237243 0)
  (-0.27628 -0.199654 0)
  (-0.0157982 0.203352 0)
  (0.0518363 0.0867194 0)
  (0.017237 0.0184845 0)
  (0.00907818 0.00659299 0)
  (0.00561268 0.00392564 0)
  (-0.000252304 -0.000966194 0)
  (-0.0138715 -0.0039236 0)
  (-0.0316304 -0.00386042 0)
  (-0.0500837 -0.00224031 0)
  (-0.066382 -0.000559857 0)
  (-0.0782955 4.83578e-05 0)
  (-0.08471 -0.00159145 0)
  (-0.0879512 -0.00569356 0)
  (-0.0894282 -0.010795 0)
  (-0.0901758 -0.0163346 0)
  (-0.0911093 -0.0216463 0)
  (-0.092537 -0.0259711 0)
  (-0.0944088 -0.0289874 0)
  (-0.0967551 -0.0308195 0)
  (-0.099525 -0.0316397 0)
  (-0.10262 -0.0316883 0)
  (-0.105991 -0.031334 0)
  (-0.109587 -0.0306181 0)
  (-0.113318 -0.029504 0)
  (-0.117023 -0.0278582 0)
  (-0.120434 -0.0254201 0)
  (-0.123151 -0.0217642 0)
  (-0.124649 -0.0162372 0)
  (-0.124404 -0.0085928 0)
  (-0.12162 0.00124403 0)
  (-0.114902 0.0140483 0)
  (-0.102956 0.0304981 0)
  (-0.0853863 0.0501903 0)
  (-0.0630566 0.0693132 0)
  (-0.0387431 0.0806824 0)
  (0.000650819 0.0652465 0)
  (0.143886 -0.0060779 0)
  (-0.206304 -0.110322 0)
  (-0.0480544 -0.322228 0)
  (-0.414164 -0.121035 0)
  (-0.302118 0.0710522 0)
  (-0.234507 -0.0194241 0)
  (-0.19077 -0.0310405 0)
  (-0.171578 -0.0210551 0)
  (-0.163041 -0.0115881 0)
  (-0.159438 -0.00322624 0)
  (-0.157466 0.00516177 0)
  (-0.154984 0.0134624 0)
  (-0.150953 0.0216976 0)
  (-0.145038 0.0300492 0)
  (-0.13738 0.0385638 0)
  (-0.128658 0.0469377 0)
  (-0.120174 0.0549422 0)
  (-0.112807 0.0626016 0)
  (-0.107025 0.0696537 0)
  (-0.102922 0.0756909 0)
  (-0.100304 0.0802321 0)
  (-0.0988681 0.0830172 0)
  (-0.0983514 0.0841476 0)
  (-0.0985598 0.0837757 0)
  (-0.0993536 0.0822588 0)
  (-0.100627 0.0801307 0)
  (-0.102297 0.0774911 0)
  (-0.104259 0.0744217 0)
  (-0.106356 0.0709957 0)
  (-0.10833 0.0672656 0)
  (-0.109775 0.0632423 0)
  (-0.110018 0.0589009 0)
  (-0.107817 0.0551234 0)
  (-0.101278 0.0530695 0)
  (-0.0880313 0.0535407 0)
  (-0.0662046 0.0574319 0)
  (-0.0361299 0.0652719 0)
  (0.0101672 0.0764319 0)
  (0.0550876 0.0779763 0)
  (0.0970147 0.0643094 0)
  (0.162181 0.0371312 0)
  (-0.228951 -0.0150632 0)
)
;

boundaryField
{
  floor
  {
    type noSlip;
  }
  ceiling
  {
    type noSlip;
  }
  sWall
  {
    type noSlip;
  }
  nWall
  {
    type noSlip;
  }
  sideWalls
  {
    type empty;
  }
  glass1
  {
    type noSlip;
  }
  glass2
  {
    type noSlip;
  }
  sun
  {
    type noSlip;
  }
  heatsource1
  {
    type noSlip;
  }
  heatsource2
  {
    type noSlip;
  }
  Table_master
  {
    type noSlip;
  }
  Table_slave
  {
    type noSlip;
  }
  inlet
  {
    type fixedValue;
    value uniform (0.277164 -0.114805 0);
  }
  outlet
  {
    type zeroGradient;
  }
} 	// ************************************************************************* //

