// -*- C++ -*-
// File generated by PyFoam - sorry for the ugliness

FoamFile
{
 version 2.0;
 format ascii;
 class volVectorField;
 location "100";
 object U;
}

dimensions [ 0 1 -1 0 0 0 0 ];

internalField nonuniform List<vector> 459
(
  (0.0791767 0.0588498 0)
  (-0.119709 0.00255997 0)
  (-0.103826 0.00322723 0)
  (-0.112085 0.0037937 0)
  (-0.119671 0.00290741 0)
  (-0.125755 0.0015197 0)
  (-0.129784 -0.000168726 0)
  (-0.131347 -0.00215222 0)
  (-0.129964 -0.00449424 0)
  (-0.125157 -0.00736055 0)
  (-0.116139 -0.0108444 0)
  (-0.101777 -0.0151189 0)
  (-0.0811719 -0.0206948 0)
  (-0.0568051 -0.0284682 0)
  (-0.0407349 -0.0378382 0)
  (-0.0449924 -0.00114772 0)
  (0.000999911 0.00922928 0)
  (-0.0213109 0.00670113 0)
  (-0.029411 0.00443542 0)
  (-0.0354148 0.0030162 0)
  (-0.0397527 0.0019329 0)
  (-0.0429574 0.00137422 0)
  (-0.0457856 0.00134846 0)
  (-0.0488095 0.00152329 0)
  (-0.0521861 0.00146343 0)
  (-0.0558873 0.000929514 0)
  (-0.0600018 -9.82557e-05 0)
  (-0.0641837 -0.00159554 0)
  (-0.0657612 -0.00396877 0)
  (-0.0592198 -0.00837429 0)
  (-0.0433644 -0.0152382 0)
  (-0.0277209 -0.013759 0)
  (-0.0184873 -0.00957949 0)
  (0.0361182 -0.00929627 0)
  (0.250942 0.127679 0)
  (-0.136419 0.0173077 0)
  (-0.0917423 0.0128348 0)
  (-0.103771 0.012725 0)
  (-0.112027 0.0109401 0)
  (-0.118496 0.0082589 0)
  (-0.122997 0.0049603 0)
  (-0.125343 0.00105395 0)
  (-0.12517 -0.00356233 0)
  (-0.122243 -0.00900605 0)
  (-0.116188 -0.0153466 0)
  (-0.106478 -0.0226823 0)
  (-0.0928345 -0.031429 0)
  (-0.0761734 -0.0422302 0)
  (-0.0591868 -0.054013 0)
  (-0.0444222 -0.0597548 0)
  (0.0298894 0.00911798 0)
  (-0.0580106 0.018657 0)
  (-0.0177068 0.0180608 0)
  (-0.0321448 0.013969 0)
  (-0.0368574 0.0102101 0)
  (-0.0397669 0.00791944 0)
  (-0.0412425 0.0064832 0)
  (-0.041643 0.00562879 0)
  (-0.0414973 0.00552467 0)
  (-0.0411687 0.00583264 0)
  (-0.0409011 0.0062591 0)
  (-0.0408331 0.00649407 0)
  (-0.0415597 0.00615391 0)
  (-0.0439183 0.00468037 0)
  (-0.0465452 0.000380461 0)
  (-0.0429663 -0.0112793 0)
  (-0.0270716 -0.0313941 0)
  (-0.0139393 -0.0248472 0)
  (-0.0111263 -0.0133078 0)
  (0.0569022 -0.00681045 0)
  (0.394057 0.194035 0)
  (-0.172454 0.0397742 0)
  (-0.0745217 0.0254897 0)
  (-0.0912394 0.021464 0)
  (-0.0995235 0.0175876 0)
  (-0.105713 0.0130396 0)
  (-0.110217 0.0077788 0)
  (-0.113045 0.00172925 0)
  (-0.113993 -0.00517613 0)
  (-0.112929 -0.0130389 0)
  (-0.10997 -0.0219138 0)
  (-0.10517 -0.0317903 0)
  (-0.0988228 -0.0426863 0)
  (-0.0915611 -0.054163 0)
  (-0.0843885 -0.0639165 0)
  (-0.0803225 -0.0672054 0)
  (-0.0878401 -0.0617157 0)
  (-0.0726957 0.0518002 0)
  (-0.0397362 0.0275557 0)
  (-0.0484277 0.0180247 0)
  (-0.0486397 0.0117526 0)
  (-0.0471306 0.0072828 0)
  (-0.0444152 0.00312127 0)
  (-0.0404399 -0.0024664 0)
  (-0.0382171 -0.00348499 0)
  (-0.0355133 -0.00278373 0)
  (-0.0321847 -0.00170038 0)
  (-0.0279453 -0.000577534 0)
  (-0.0231196 0.000184029 0)
  (-0.0202892 -0.000316665 0)
  (-0.0246917 -0.0061442 0)
  (-0.0319094 -0.0280069 0)
  (-0.0126312 -0.0540044 0)
  (-0.00330266 -0.0381922 0)
  (0.00047571 -0.0179987 0)
  (0.0630216 0.000301232 0)
  (0.507908 0.248476 0)
  (-0.208535 0.0657918 0)
  (-0.0545815 0.0383163 0)
  (-0.0754778 0.0302307 0)
  (-0.0836607 0.0242062 0)
  (-0.0886926 0.0181018 0)
  (-0.0922935 0.0114528 0)
  (-0.0946854 0.00397914 0)
  (-0.0958594 -0.00442503 0)
  (-0.0958185 -0.0136623 0)
  (-0.0951852 -0.02356 0)
  (-0.094547 -0.0339199 0)
  (-0.0947357 -0.0444094 0)
  (-0.0967461 -0.0540456 0)
  (-0.102146 -0.0604143 0)
  (-0.11463 -0.0590327 0)
  (-0.13582 -0.0414935 0)
  (-0.139491 0.00351683 0)
  (-0.106322 0.0418138 0)
  (-0.0823235 0.0245615 0)
  (-0.0784151 0.0163443 0)
  (-0.0777403 0.0100187 0)
  (-0.0792619 0.00491543 0)
  (-0.0813564 0.000249547 0)
  (-0.0827361 -0.00317368 0)
  (-0.0826282 -0.00380457 0)
  (-0.0812197 -0.00513495 0)
  (-0.0782039 -0.00675906 0)
  (-0.0730193 -0.0089888 0)
  (-0.064694 -0.0121572 0)
  (-0.0518356 -0.0166452 0)
  (-0.0323621 -0.0230852 0)
  (-0.00307384 -0.0341929 0)
  (0.000997303 -0.0569869 0)
  (-0.00131954 -0.0471542 0)
  (0.00183818 -0.0249311 0)
  (0.069218 0.0157757 0)
  (0.594139 0.292774 0)
  (-0.236788 0.0926946 0)
  (-0.036254 0.0482752 0)
  (-0.0551689 0.0374663 0)
  (-0.0633248 0.0293406 0)
  (-0.0667459 0.021595 0)
  (-0.0685727 0.0137116 0)
  (-0.0693812 0.00528808 0)
  (-0.0693232 -0.0038576 0)
  (-0.068838 -0.0134434 0)
  (-0.0687286 -0.0230059 0)
  (-0.0697146 -0.0322314 0)
  (-0.0725304 -0.0407551 0)
  (-0.0777247 -0.0478208 0)
  (-0.0857663 -0.0520684 0)
  (-0.0969111 -0.0513618 0)
  (-0.107971 -0.0414188 0)
  (-0.109941 -0.0172206 0)
  (-0.0996151 0.00837977 0)
  (-0.0844026 0.013449 0)
  (-0.0761514 0.0130274 0)
  (-0.0714511 0.0104329 0)
  (-0.0691492 0.00738129 0)
  (-0.068351 0.00432165 0)
  (-0.0682632 0.00168335 0)
  (-0.0680217 -0.000422943 0)
  (-0.0673292 -0.00247595 0)
  (-0.0658591 -0.00500467 0)
  (-0.0631267 -0.00854753 0)
  (-0.058499 -0.0135808 0)
  (-0.0513037 -0.020453 0)
  (-0.0412689 -0.0293737 0)
  (-0.03017 -0.0404857 0)
  (-0.0252191 -0.0539687 0)
  (-0.0242209 -0.0525902 0)
  (-0.0182677 -0.0411317 0)
  (0.0241709 -0.00782044 0)
  (0.0476007 -0.00567046 0)
  (0.0732807 0.00694237 0)
  (-0.049262 0.0353362 0)
  (0.645901 0.33165 0)
  (-0.256962 0.114353 0)
  (-0.0232318 0.0475028 0)
  (-0.0255712 0.0410316 0)
  (-0.0325495 0.0342335 0)
  (-0.0357358 0.0238614 0)
  (-0.0361783 0.0140244 0)
  (-0.035307 0.00470237 0)
  (-0.0334527 -0.00471541 0)
  (-0.0321351 -0.0138816 0)
  (-0.0319787 -0.0222934 0)
  (-0.0336153 -0.0296641 0)
  (-0.0375527 -0.0358563 0)
  (-0.0439703 -0.0404826 0)
  (-0.0526612 -0.0425476 0)
  (-0.0627806 -0.0403736 0)
  (-0.0714157 -0.0316382 0)
  (-0.0740122 -0.0165402 0)
  (-0.0695145 -0.00270753 0)
  (-0.0618672 0.00374326 0)
  (-0.0553906 0.00615614 0)
  (-0.0507905 0.00602887 0)
  (-0.0479439 0.00457937 0)
  (-0.0465688 0.00255024 0)
  (-0.0462656 0.000528402 0)
  (-0.0465289 -0.00141801 0)
  (-0.0469904 -0.00365665 0)
  (-0.0474878 -0.00666507 0)
  (-0.0477931 -0.0109696 0)
  (-0.0476455 -0.0170008 0)
  (-0.0469058 -0.0248652 0)
  (-0.0459626 -0.034227 0)
  (-0.0463966 -0.0442399 0)
  (-0.0503602 -0.0527421 0)
  (-0.0549153 -0.0548458 0)
  (-0.0537323 -0.0532654 0)
  (-0.0399711 -0.0493206 0)
  (-0.0165852 -0.0484436 0)
  (0.0481346 -0.0103737 0)
  (-0.0808827 0.0613965 0)
  (0.665268 0.366957 0)
  (-0.26161 0.105447 0)
  (-0.00116734 0.00743423 0)
  (0.0271167 0.0328558 0)
  (0.022038 0.040519 0)
  (0.0151556 0.0273599 0)
  (0.0137666 0.0136686 0)
  (0.0142211 0.00308974 0)
  (0.0151758 -0.00648148 0)
  (0.0153718 -0.0148195 0)
  (0.0142492 -0.021599 0)
  (0.0113292 -0.0266785 0)
  (0.00622216 -0.0303227 0)
  (-0.00132913 -0.03281 0)
  (-0.0106396 -0.0335881 0)
  (-0.0204863 -0.0315104 0)
  (-0.0287169 -0.0252851 0)
  (-0.0327403 -0.0156258 0)
  (-0.031958 -0.00656506 0)
  (-0.0286818 -0.00123196 0)
  (-0.0252138 0.00154428 0)
  (-0.0220512 0.00256392 0)
  (-0.0197924 0.00245682 0)
  (-0.0185325 0.00168393 0)
  (-0.0182078 0.000607738 0)
  (-0.0187558 -0.000709922 0)
  (-0.0199504 -0.00245138 0)
  (-0.0219176 -0.00498874 0)
  (-0.0248307 -0.00882445 0)
  (-0.0288942 -0.0143496 0)
  (-0.0344055 -0.0214421 0)
  (-0.0419909 -0.0293683 0)
  (-0.052702 -0.0369914 0)
  (-0.0668357 -0.0431396 0)
  (-0.081815 -0.0472327 0)
  (-0.0934246 -0.0507034 0)
  (-0.0966124 -0.0534265 0)
  (-0.0874708 -0.0501908 0)
  (-0.0751868 -0.0145457 0)
  (-0.135787 0.104645 0)
  (0.755768 0.378303 0)
  (-0.0760461 0.0730765 0)
  (0.0913217 -0.067951 0)
  (0.141154 -0.0100182 0)
  (0.119318 0.0213833 0)
  (0.0977778 0.0174859 0)
  (0.0901543 0.00761852 0)
  (0.0859476 -0.000517658 0)
  (0.0797436 -0.00813914 0)
  (0.0743897 -0.0145877 0)
  (0.0688166 -0.0194354 0)
  (0.0624283 -0.0224637 0)
  (0.0548688 -0.0239704 0)
  (0.0460203 -0.024454 0)
  (0.0361491 -0.0240677 0)
  (0.0260438 -0.0223571 0)
  (0.0171693 -0.0185703 0)
  (0.0112639 -0.0128834 0)
  (0.00896542 -0.00715227 0)
  (0.00913155 -0.00312908 0)
  (0.0101906 -0.000727375 0)
  (0.0114556 0.000509114 0)
  (0.0125968 0.000995951 0)
  (0.0133128 0.00101488 0)
  (0.0134962 0.000760638 0)
  (0.0130489 0.000268722 0)
  (0.0118176 -0.000541731 0)
  (0.00970445 -0.00182335 0)
  (0.0062587 -0.0038735 0)
  (0.000731966 -0.00712205 0)
  (-0.00762758 -0.0114847 0)
  (-0.0193415 -0.0161366 0)
  (-0.0352412 -0.0203211 0)
  (-0.0555666 -0.0240131 0)
  (-0.0790742 -0.0282133 0)
  (-0.103911 -0.0342258 0)
  (-0.127678 -0.0427371 0)
  (-0.147485 -0.0544903 0)
  (-0.180582 -0.068235 0)
  (-0.330121 -0.0779067 0)
  (0.880515 0.369771 0)
  (0.412737 0.224513 0)
  (0.319697 0.110862 0)
  (0.35193 0.111634 0)
  (0.271396 0.0939564 0)
  (0.213253 0.0660741 0)
  (0.186559 0.0428926 0)
  (0.169484 0.0255261 0)
  (0.154499 0.012093 0)
  (0.13962 0.00136482 0)
  (0.125948 -0.00628138 0)
  (0.113542 -0.0107776 0)
  (0.102014 -0.0128532 0)
  (0.0911133 -0.0133338 0)
  (0.0806721 -0.0128225 0)
  (0.0707698 -0.0115418 0)
  (0.0619645 -0.00942071 0)
  (0.055148 -0.00656824 0)
  (0.0508106 -0.00360675 0)
  (0.0485358 -0.00121864 0)
  (0.0475137 0.000428563 0)
  (0.0471333 0.00144778 0)
  (0.0469728 0.0020323 0)
  (0.0468383 0.00235738 0)
  (0.0465842 0.00254137 0)
  (0.046094 0.00262965 0)
  (0.0452217 0.00259938 0)
  (0.0436977 0.00239111 0)
  (0.0412576 0.00191551 0)
  (0.0375313 0.00101187 0)
  (0.0322113 -0.000339197 0)
  (0.0252965 -0.00184363 0)
  (0.0172631 -0.00309766 0)
  (0.00900731 -0.00413433 0)
  (0.00134849 -0.00606572 0)
  (-0.00505932 -0.00982025 0)
  (-0.00804777 -0.0143725 0)
  (-0.000941906 -0.0235694 0)
  (0.0194917 -0.0654769 0)
  (-0.228654 -0.149118 0)
  (-1.09578 -0.00248143 0)
  (0.192636 0.107159 0)
  (0.124089 0.0824869 0)
  (0.12785 0.0641157 0)
  (0.143947 0.0479447 0)
  (0.151052 0.0338819 0)
  (0.150058 0.023236 0)
  (0.145644 0.0162425 0)
  (0.139846 0.0121631 0)
  (0.133015 0.00993709 0)
  (0.125684 0.00886345 0)
  (0.118264 0.00829017 0)
  (0.110953 0.00815344 0)
  (0.103905 0.00835313 0)
  (0.0973887 0.00884531 0)
  (0.0918307 0.00943671 0)
  (0.0875265 0.00997812 0)
  (0.0844129 0.0103773 0)
  (0.0821987 0.0106121 0)
  (0.0805595 0.0107074 0)
  (0.0793578 0.0107447 0)
  (0.0784369 0.0107838 0)
  (0.0776778 0.0108679 0)
  (0.0769908 0.0110127 0)
  (0.0762858 0.0112077 0)
  (0.0754513 0.0114136 0)
  (0.0743501 0.0115471 0)
  (0.0727868 0.011454 0)
  (0.0705198 0.010942 0)
  (0.0675266 0.00982803 0)
  (0.0642531 0.00770896 0)
  (0.0613814 0.00381667 0)
  (0.059108 -0.00235147 0)
  (0.0574891 -0.0114966 0)
  (0.0570788 -0.0230616 0)
  (0.059188 -0.0378251 0)
  (0.0732816 -0.0661053 0)
  (-0.0349072 -0.121691 0)
  (-0.524472 0.0807869 0)
  (0.211503 0.0113411 0)
  (0.0858875 -0.00196837 0)
  (0.0862143 0.00829334 0)
  (0.11036 0.00227112 0)
  (0.126886 -0.0130947 0)
  (0.13488 -0.0297372 0)
  (0.137862 -0.0448485 0)
  (0.137674 -0.0575431 0)
  (0.135211 -0.0673531 0)
  (0.131254 -0.074019 0)
  (0.126508 -0.0776963 0)
  (0.121593 -0.0792349 0)
  (0.116991 -0.0793655 0)
  (0.113008 -0.0786718 0)
  (0.109758 -0.0774913 0)
  (0.107239 -0.0762173 0)
  (0.10538 -0.0752058 0)
  (0.104045 -0.0745906 0)
  (0.10307 -0.0743641 0)
  (0.102319 -0.0744256 0)
  (0.101701 -0.0746315 0)
  (0.101168 -0.0748409 0)
  (0.100701 -0.0749504 0)
  (0.100298 -0.0749049 0)
  (0.0999588 -0.0747023 0)
  (0.099671 -0.0744086 0)
  (0.0993953 -0.0741885 0)
  (0.0990457 -0.0743297 0)
  (0.0984961 -0.0752469 0)
  (0.0975612 -0.0772912 0)
  (0.0958737 -0.0794103 0)
  (0.0932968 -0.080998 0)
  (0.0893931 -0.0827223 0)
  (0.0836485 -0.0846424 0)
  (0.0752089 -0.0866299 0)
  (0.0808322 -0.0914551 0)
  (-0.0471363 -0.114998 0)
  (0.634632 0.195021 0)
  (0.16475 -0.250071 0)
  (-0.290587 0.14862 0)
  (0.136883 0.0729443 0)
  (0.0442075 0.123988 0)
  (0.0286111 0.157399 0)
  (0.0541173 0.172774 0)
  (0.0755058 0.187383 0)
  (0.0892649 0.20383 0)
  (0.0977886 0.220556 0)
  (0.103156 0.235677 0)
  (0.106558 0.247886 0)
  (0.108745 0.25644 0)
  (0.110289 0.261332 0)
  (0.111557 0.263435 0)
  (0.112725 0.263623 0)
  (0.113872 0.262623 0)
  (0.115043 0.26088 0)
  (0.116261 0.258853 0)
  (0.11748 0.256977 0)
  (0.118615 0.255499 0)
  (0.119595 0.254491 0)
  (0.120389 0.25389 0)
  (0.121013 0.253561 0)
  (0.12152 0.253349 0)
  (0.121986 0.253115 0)
  (0.122493 0.252755 0)
  (0.123115 0.252203 0)
  (0.123897 0.251444 0)
  (0.124818 0.25054 0)
  (0.125736 0.249658 0)
  (0.126323 0.249096 0)
  (0.12604 0.249185 0)
  (0.124165 0.248577 0)
  (0.119873 0.245849 0)
  (0.11205 0.241826 0)
  (0.0991528 0.237097 0)
  (0.0799752 0.232073 0)
  (0.0823461 0.226631 0)
  (-0.151248 0.296345 0)
)
;

boundaryField
{
  floor
  {
    type noSlip;
  }
  ceiling
  {
    type noSlip;
  }
  sWall
  {
    type noSlip;
  }
  nWall
  {
    type noSlip;
  }
  sideWalls
  {
    type empty;
  }
  glass1
  {
    type noSlip;
  }
  glass2
  {
    type noSlip;
  }
  sun
  {
    type noSlip;
  }
  heatsource1
  {
    type noSlip;
  }
  heatsource2
  {
    type noSlip;
  }
  Table_master
  {
    type noSlip;
  }
  Table_slave
  {
    type noSlip;
  }
  inlet
  {
    type fixedValue;
    value uniform (0.0707107 -0.0707107 0);
  }
  outlet
  {
    type zeroGradient;
  }
} 	// ************************************************************************* //

