/*--------------------------------*- C++ -*----------------------------------*\
  =========                 |
  \\      /  F ield         | OpenFOAM: The Open Source CFD Toolbox
   \\    /   O peration     | Website:  https://openfoam.org
    \\  /    A nd           | Version:  6
     \\/     M anipulation  |
\*---------------------------------------------------------------------------*/
FoamFile
{
    version     2.0;
    format      ascii;
    class       volScalarField;
    location    "400";
    object      alphat;
}
// * * * * * * * * * * * * * * * * * * * * * * * * * * * * * * * * * * * * * //

dimensions      [1 -1 -1 0 0 0 0];

internalField   nonuniform List<scalar> 
459
(
0.00097948
0.00109041
0.0011406
0.00120737
0.00127326
0.00134364
0.0014086
0.00145932
0.00148758
0.00148534
0.00138643
0.00127841
0.00114821
0.00101795
0.000889143
0.000529216
0.000703245
0.000817024
0.00084187
0.00084023
0.000819544
0.000774897
0.000726248
0.000681245
0.000641013
0.000605162
0.000573304
0.000544818
0.000518798
0.000494201
0.000469621
0.000442743
0.000402651
0.00035722
0.00123939
0.00317372
0.00317848
0.00371021
0.00425498
0.00468554
0.00508381
0.00547474
0.00583228
0.00611303
0.00619203
0.00590529
0.00537106
0.00424453
0.00275204
0.0010419
0.000860805
0.000781628
0.00273914
0.00287809
0.00330139
0.00355804
0.00341296
0.00242061
0.00201685
0.0017568
0.00156773
0.00142287
0.00130415
0.00119651
0.0010922
0.000985776
0.000889755
0.000825644
0.000669241
0.00041899
0.00145493
0.00432369
0.00400363
0.0045346
0.00483916
0.00506775
0.00532905
0.0056877
0.00617631
0.00673158
0.00714663
0.00718659
0.00692829
0.00623354
0.00495238
0.00306999
0.000998532
0.000854596
0.00240873
0.00329386
0.00410593
0.00459038
0.00416185
0.00104045
0.00090979
0.000805222
0.000722043
0.00065543
0.000601661
0.000558395
0.000524172
0.000499242
0.000566874
0.00069262
0.000715609
0.000453126
0.00165919
0.00522241
0.0041248
0.00461679
0.00464913
0.0046944
0.00483024
0.00515566
0.00575185
0.00649708
0.00707158
0.00733978
0.00732683
0.00702468
0.0062377
0.00483557
0.00251476
0.00111554
0.00165858
0.00270191
0.00402368
0.0051132
0.00568392
0.00507384
0.00114581
0.00104406
0.000972679
0.00091896
0.000874101
0.000832011
0.000791719
0.000748981
0.000698934
0.000653291
0.000681447
0.000792868
0.000503582
0.00186859
0.00631305
0.00433261
0.00463889
0.00455818
0.00447612
0.00450121
0.00480719
0.00548893
0.00629187
0.00694086
0.00728713
0.00736021
0.00723312
0.0068533
0.00611712
0.0049689
0.00454186
0.00517182
0.00598662
0.00669833
0.00714937
0.00728144
0.00695166
0.00562327
0.00501504
0.00468458
0.00445884
0.00424902
0.00398053
0.00356752
0.00303097
0.00240336
0.0017794
0.00132117
0.00116266
0.000810399
0.000575231
0.000580752
0.000590973
0.00209528
0.00759309
0.00538548
0.00491111
0.00485425
0.0045498
0.00443816
0.00472369
0.00543369
0.00630581
0.00700295
0.00735794
0.00743255
0.00739933
0.00735135
0.00724757
0.00711107
0.00744283
0.00801271
0.00842047
0.00859992
0.00854814
0.00829907
0.00787792
0.00728276
0.00680262
0.00643678
0.00612551
0.00582053
0.00548018
0.00504076
0.00447498
0.00379076
0.003039
0.00234613
0.00189039
0.00145922
0.00116341
0.0013239
0.000790679
0.00230619
0.00853864
0.0071692
0.00591836
0.00539928
0.00474398
0.0044749
0.00479043
0.00560281
0.00657018
0.00730669
0.00765326
0.00773922
0.00785815
0.00812981
0.00841662
0.00872775
0.00917457
0.00950588
0.00954984
0.00934457
0.00894635
0.00842501
0.0078535
0.00730448
0.00685976
0.00650341
0.00618824
0.00587732
0.00554778
0.00519575
0.00483317
0.00436794
0.00380883
0.00321064
0.00269281
0.0022023
0.00180842
0.00172849
0.00094812
0.00235647
0.00766975
0.00683261
0.00612057
0.00517679
0.00446979
0.00437284
0.00496616
0.00602419
0.00711521
0.00785077
0.00816792
0.00830585
0.00858995
0.00882588
0.00905957
0.00934722
0.0096083
0.00966657
0.00941767
0.00893509
0.00830506
0.00762278
0.00698135
0.00645413
0.00605502
0.00573976
0.00546094
0.00518719
0.00490349
0.00462464
0.0044013
0.00426241
0.0040436
0.00374035
0.00346219
0.00317849
0.00271729
0.00296028
0.00124675
0.0023106
0.00273578
0.0029495
0.00294362
0.00294895
0.00326451
0.00412679
0.00546325
0.00689518
0.00799894
0.00854173
0.00875993
0.00876688
0.00862976
0.00856968
0.00864222
0.00876107
0.00877871
0.00859181
0.00820127
0.00764309
0.00702082
0.00643195
0.00593427
0.00554478
0.00523344
0.00495906
0.00469163
0.004408
0.00408346
0.00371026
0.00333284
0.00301313
0.00277612
0.00258132
0.00240246
0.00223658
0.00208343
0.00197255
0.00129875
0.000743116
0.00141895
0.00263343
0.00439652
0.00622188
0.00772398
0.00863524
0.00899986
0.0088469
0.00842982
0.00803395
0.00779502
0.00769823
0.00766866
0.00761521
0.00746746
0.00721516
0.00690136
0.00658014
0.00628435
0.00602289
0.00578314
0.00555367
0.00530755
0.00502457
0.00469684
0.00432938
0.00393638
0.00353211
0.00314309
0.00281726
0.00257408
0.00241303
0.00230722
0.00221195
0.00208889
0.00195539
0.00137844
0.00151848
0.00576648
0.00803035
0.00903211
0.00942224
0.00946165
0.0091572
0.00858446
0.00794862
0.00744975
0.00715449
0.0070151
0.00695851
0.00693205
0.00690538
0.00686333
0.00680504
0.00674025
0.0066799
0.00662938
0.00658497
0.00653385
0.00646209
0.00635174
0.00618407
0.00594282
0.00561953
0.00521821
0.00475443
0.00425744
0.0037777
0.00335083
0.00300458
0.0027397
0.00252836
0.00236051
0.00294807
0.00150095
0.00177091
0.00188069
0.00198689
0.00232078
0.00227099
0.00214765
0.00205762
0.00197225
0.00187498
0.00177579
0.00169687
0.00164807
0.00162337
0.00161385
0.00161275
0.00161514
0.00161748
0.00161763
0.00161521
0.00161109
0.00160623
0.00160099
0.00159495
0.00158733
0.0015762
0.00155979
0.00153656
0.00150584
0.00146844
0.00142695
0.00138564
0.00134917
0.00132035
0.00130181
0.00129441
0.00129572
0.0012966
0.00127529
0.00125773
0.00122633
)
;

boundaryField
{
    floor
    {
        type            compressible::alphatWallFunction;
        Prt             0.85;
        value           nonuniform List<scalar> 
29
(
0.000126804
7.39065e-05
9.98998e-05
0.000116462
0.000120041
0.000119806
0.000116828
0.000110368
0.000103278
9.66673e-05
9.07126e-05
8.53676e-05
8.05851e-05
7.62809e-05
7.23246e-05
6.85616e-05
6.47777e-05
6.06108e-05
5.43343e-05
4.71222e-05
4.71216e-05
5.69017e-05
6.22253e-05
7.00019e-05
0.000126802
7.39056e-05
0.000111338
0.00012186
0.000158695
)
;
    }
    ceiling
    {
        type            compressible::alphatWallFunction;
        Prt             0.85;
        value           nonuniform List<scalar> 
43
(
0.000247292
0.000261739
0.000275628
0.000318811
0.000312434
0.000296543
0.000284881
0.00027377
0.000261044
0.000247994
0.000237554
0.000231072
0.000227784
0.000226516
0.000226369
0.000226689
0.000227001
0.000227021
0.000226699
0.000226149
0.0002255
0.000224799
0.000223992
0.000222974
0.000221486
0.00021929
0.000216177
0.000212052
0.000207018
0.000201415
0.000195819
0.000190862
0.000186934
0.000184402
0.000183389
0.000183568
0.000183687
0.000180771
0.000178366
0.000174055
0.000317534
0.00037157
0.000213647
)
;
    }
    sWall
    {
        type            compressible::alphatWallFunction;
        Prt             0.85;
        value           uniform 0.000246804;
    }
    nWall
    {
        type            compressible::alphatWallFunction;
        Prt             0.85;
        value           nonuniform List<scalar> 6(8.2942e-05 0.000112337 0.000134877 0.000194491 0.000211038 0.000173709);
    }
    sideWalls
    {
        type            empty;
    }
    glass1
    {
        type            compressible::alphatWallFunction;
        Prt             0.85;
        value           nonuniform List<scalar> 9(0.000138201 0.000174184 0.000203388 0.000230636 0.000258197 0.000287668 0.000314789 0.000321245 0.000315437);
    }
    glass2
    {
        type            compressible::alphatWallFunction;
        Prt             0.85;
        value           nonuniform List<scalar> 2(0.000175754 0.00018289);
    }
    sun
    {
        type            compressible::alphatWallFunction;
        Prt             0.85;
        value           nonuniform List<scalar> 
14
(
0.000139633
0.000155193
0.000162174
0.000171407
0.000180463
0.000190075
0.000198897
0.000205753
0.00020956
0.000209259
0.000195887
0.000181167
0.000163231
0.000145051
)
;
    }
    heatsource1
    {
        type            compressible::alphatWallFunction;
        Prt             0.85;
        value           nonuniform List<scalar> 3(8.07689e-05 8.15991e-05 8.31336e-05);
    }
    heatsource2
    {
        type            compressible::alphatWallFunction;
        Prt             0.85;
        value           nonuniform List<scalar> 4(0.000148309 0.000122648 0.000122647 0.000142212);
    }
    Table_master
    {
        type            compressible::alphatWallFunction;
        Prt             0.85;
        value           nonuniform List<scalar> 9(0.000148104 0.000129644 0.000114646 0.00010255 9.27413e-05 8.47351e-05 7.82288e-05 7.30381e-05 6.92301e-05);
    }
    Table_slave
    {
        type            compressible::alphatWallFunction;
        Prt             0.85;
        value           nonuniform List<scalar> 9(0.000162796 0.000148614 0.000138568 0.000130952 0.000124552 0.000118511 0.000112695 0.000106486 9.91609e-05);
    }
    inlet
    {
        type            fixedValue;
        value           uniform 1.94e-05;
    }
    outlet
    {
        type            zeroGradient;
    }
}


// ************************************************************************* //
