// -*- C++ -*-
// File generated by PyFoam - sorry for the ugliness

FoamFile
{
 version 2.0;
 format ascii;
 class volVectorField;
 location "400";
 object U;
}

dimensions [ 0 1 -1 0 0 0 0 ];

internalField nonuniform List<vector> 459
(
  (0.00206319 0.0586707 0)
  (-0.116951 0.0206159 0)
  (-0.141837 0.0107788 0)
  (-0.162146 0.00308776 0)
  (-0.170773 -0.00501366 0)
  (-0.165427 -0.0137523 0)
  (-0.145645 -0.023443 0)
  (-0.112794 -0.0326872 0)
  (-0.0717373 -0.0395131 0)
  (-0.030499 -0.042098 0)
  (0.0196654 -0.0301028 0)
  (0.0424087 -0.0186614 0)
  (0.0561461 -0.00717682 0)
  (0.0540001 0.0070722 0)
  (0.0601179 0.032879 0)
  (-0.0757422 0.00752352 0)
  (0.00870078 9.13079e-05 0)
  (0.00709274 -0.0145182 0)
  (0.0247718 -0.0174762 0)
  (0.0425926 -0.0152464 0)
  (0.0582041 -0.0113513 0)
  (0.0687184 -0.00661625 0)
  (0.0741579 -0.00393304 0)
  (0.0762148 -0.00291117 0)
  (0.0769017 -0.00250308 0)
  (0.0771817 -0.002222 0)
  (0.0771493 -0.00192977 0)
  (0.0766165 -0.00150801 0)
  (0.0751991 -0.000714904 0)
  (0.0720172 0.000997958 0)
  (0.0652736 0.00454687 0)
  (0.0529616 0.00977008 0)
  (0.0209088 0.0186643 0)
  (0.0606892 0.00949645 0)
  (0.101952 0.120611 0)
  (-0.104462 0.056228 0)
  (-0.115121 0.0391579 0)
  (-0.135972 0.0236553 0)
  (-0.145237 0.00584913 0)
  (-0.14122 -0.0146772 0)
  (-0.123661 -0.0363325 0)
  (-0.0947675 -0.054904 0)
  (-0.059625 -0.0657726 0)
  (-0.0247452 -0.0661142 0)
  (0.00951239 -0.0506362 0)
  (0.0324821 -0.0305997 0)
  (0.0482205 -0.0100888 0)
  (0.0570908 0.0114949 0)
  (0.0660484 0.0365437 0)
  (0.0634135 0.0375019 0)
  (0.0420122 0.0388475 0)
  (-0.0977816 0.0066995 0)
  (0.0248541 -0.0192075 0)
  (0.0299109 -0.0277657 0)
  (0.0424713 -0.0291306 0)
  (0.0553945 -0.0250626 0)
  (0.0660628 -0.0182301 0)
  (0.0716886 -0.00761985 0)
  (0.0729722 -0.0013432 0)
  (0.0728262 0.00105031 0)
  (0.0728907 0.00195316 0)
  (0.0731777 0.00249376 0)
  (0.0734001 0.00299393 0)
  (0.0734285 0.00369584 0)
  (0.0732129 0.0051271 0)
  (0.0721345 0.00848354 0)
  (0.0673315 0.0171378 0)
  (0.0566969 0.0264328 0)
  (0.0219539 0.0379838 0)
  (0.102727 0.0287243 0)
  (0.195481 0.180463 0)
  (-0.107224 0.0866777 0)
  (-0.088508 0.0617411 0)
  (-0.108671 0.0360527 0)
  (-0.117914 0.00696697 0)
  (-0.114093 -0.0258708 0)
  (-0.0971174 -0.0595479 0)
  (-0.0709388 -0.0864164 0)
  (-0.0412513 -0.0993444 0)
  (-0.013263 -0.095783 0)
  (0.012457 -0.0747897 0)
  (0.0315098 -0.0490577 0)
  (0.0457438 -0.0224612 0)
  (0.0549786 0.00387896 0)
  (0.0610043 0.0286826 0)
  (0.0584215 0.0427039 0)
  (0.0475296 0.0692995 0)
  (-0.0492741 -0.0195772 0)
  (0.0408997 -0.0385277 0)
  (0.0532049 -0.0439415 0)
  (0.0598589 -0.0413101 0)
  (0.0665946 -0.035074 0)
  (0.0727418 -0.028713 0)
  (0.0749775 -0.0210137 0)
  (0.0687318 -0.0135031 0)
  (0.0637275 -0.00958317 0)
  (0.061899 -0.0074496 0)
  (0.0615417 -0.00608655 0)
  (0.0616238 -0.00507753 0)
  (0.0622019 -0.00406338 0)
  (0.0640341 -0.0025008 0)
  (0.0689532 0.00211808 0)
  (0.0691733 0.0228007 0)
  (0.0607717 0.0388153 0)
  (0.0225089 0.0564444 0)
  (0.129232 0.058339 0)
  (0.283684 0.228826 0)
  (-0.121359 0.112097 0)
  (-0.0604271 0.0818536 0)
  (-0.0790058 0.0483906 0)
  (-0.0865703 0.00976337 0)
  (-0.0800546 -0.0355223 0)
  (-0.0620983 -0.0809738 0)
  (-0.0390345 -0.11431 0)
  (-0.0160338 -0.127449 0)
  (0.00468805 -0.119466 0)
  (0.0217978 -0.095341 0)
  (0.03594 -0.0648261 0)
  (0.0468358 -0.0335449 0)
  (0.0550616 -0.00405389 0)
  (0.0626679 0.0228932 0)
  (0.0718136 0.0444503 0)
  (0.0855601 0.0691334 0)
  (0.111724 0.0158807 0)
  (0.103001 -0.0115882 0)
  (0.0923447 -0.0332019 0)
  (0.0822249 -0.0421208 0)
  (0.0753114 -0.0411964 0)
  (0.0710838 -0.0355459 0)
  (0.0675323 -0.0273936 0)
  (0.0686566 -0.0163988 0)
  (0.0768357 -0.0109079 0)
  (0.0830414 -0.0079332 0)
  (0.0863538 -0.00614288 0)
  (0.0881308 -0.00473624 0)
  (0.0887123 -0.00324619 0)
  (0.0870812 -0.00123558 0)
  (0.0818656 0.00177496 0)
  (0.0701909 0.00650561 0)
  (0.0608032 0.0292494 0)
  (0.0600283 0.0482723 0)
  (0.0277257 0.0703186 0)
  (0.147978 0.0999567 0)
  (0.365103 0.26573 0)
  (-0.143447 0.130793 0)
  (-0.0316894 0.0944539 0)
  (-0.0467401 0.0565221 0)
  (-0.0501246 0.0109143 0)
  (-0.0350762 -0.0465725 0)
  (-0.0162763 -0.100637 0)
  (0.00150078 -0.136039 0)
  (0.0156891 -0.146175 0)
  (0.0264447 -0.134684 0)
  (0.0350729 -0.10821 0)
  (0.0420068 -0.0748695 0)
  (0.0473988 -0.0411961 0)
  (0.0523477 -0.0108296 0)
  (0.058803 0.014901 0)
  (0.0684286 0.0331789 0)
  (0.0834889 0.0401315 0)
  (0.0961278 0.00990725 0)
  (0.0950075 -0.0126854 0)
  (0.0865472 -0.027131 0)
  (0.076817 -0.0335111 0)
  (0.0678285 -0.0335514 0)
  (0.060423 -0.0294582 0)
  (0.054924 -0.0222881 0)
  (0.0532742 -0.011892 0)
  (0.0552661 -0.00600943 0)
  (0.0575164 -0.00357889 0)
  (0.0592943 -0.00240203 0)
  (0.0609819 -0.00113652 0)
  (0.0626233 0.00107654 0)
  (0.0636391 0.00474772 0)
  (0.0631741 0.0103475 0)
  (0.0607264 0.0185811 0)
  (0.0587244 0.0335294 0)
  (0.0647741 0.0495411 0)
  (0.0555642 0.0664592 0)
  (0.118856 0.0985699 0)
  (0.113042 0.0771335 0)
  (0.113288 0.0541259 0)
  (-0.187827 0.0509162 0)
  (0.431213 0.295062 0)
  (-0.169564 0.140966 0)
  (-0.0067589 0.0938965 0)
  (-0.0115479 0.0590028 0)
  (-0.00367384 0.00713508 0)
  (0.0226186 -0.0640728 0)
  (0.0385129 -0.117497 0)
  (0.0477026 -0.147824 0)
  (0.0512465 -0.154212 0)
  (0.0510146 -0.139976 0)
  (0.0488734 -0.111626 0)
  (0.0460543 -0.0769154 0)
  (0.0436009 -0.0428818 0)
  (0.042798 -0.0138314 0)
  (0.0451736 0.00840266 0)
  (0.0516857 0.0217963 0)
  (0.0626064 0.0232406 0)
  (0.0700091 0.00756566 0)
  (0.0695084 -0.00824541 0)
  (0.0632795 -0.0189609 0)
  (0.0547797 -0.0243035 0)
  (0.0459903 -0.0250383 0)
  (0.0381172 -0.0224003 0)
  (0.0320831 -0.0173794 0)
  (0.0289953 -0.0110937 0)
  (0.0288055 -0.00734086 0)
  (0.0299988 -0.0058967 0)
  (0.0318706 -0.00529342 0)
  (0.0343331 -0.0044102 0)
  (0.0373238 -0.0023108 0)
  (0.0411244 0.0019671 0)
  (0.0446672 0.00871651 0)
  (0.0477606 0.0179002 0)
  (0.0516063 0.0298935 0)
  (0.0601721 0.0421178 0)
  (0.0623005 0.0499373 0)
  (0.0872563 0.0651106 0)
  (0.0858659 0.05022 0)
  (0.113493 0.0476345 0)
  (-0.167154 0.0780205 0)
  (0.47993 0.319866 0)
  (-0.185998 0.127933 0)
  (0.0187008 0.0599173 0)
  (0.0360761 0.0353736 0)
  (0.065863 -0.0208766 0)
  (0.0891339 -0.0833252 0)
  (0.0992469 -0.128135 0)
  (0.0980081 -0.150298 0)
  (0.0884549 -0.150592 0)
  (0.0740817 -0.132742 0)
  (0.058305 -0.103104 0)
  (0.0435513 -0.0687003 0)
  (0.0318277 -0.0365467 0)
  (0.0244931 -0.0109658 0)
  (0.022461 0.00638999 0)
  (0.026208 0.0152718 0)
  (0.0333072 0.0152147 0)
  (0.0377161 0.00589794 0)
  (0.0370994 -0.00468584 0)
  (0.032159 -0.0123688 0)
  (0.024796 -0.0163632 0)
  (0.0167421 -0.0171329 0)
  (0.00931062 -0.0155999 0)
  (0.00358718 -0.0127006 0)
  (0.000485574 -0.00951881 0)
  (-5.80805e-05 -0.00784679 0)
  (0.000947399 -0.00758657 0)
  (0.00283781 -0.00781245 0)
  (0.0054407 -0.0077133 0)
  (0.00885162 -0.00652589 0)
  (0.0134142 -0.00321959 0)
  (0.0205982 0.00334854 0)
  (0.0279346 0.0121481 0)
  (0.0360897 0.0221167 0)
  (0.0465257 0.0317046 0)
  (0.0540709 0.0379002 0)
  (0.0686725 0.0486367 0)
  (0.0747121 0.0517199 0)
  (0.126381 0.0683851 0)
  (-0.118609 0.134311 0)
  (0.561311 0.317268 0)
  (-0.0419174 0.100412 0)
  (0.0766408 -0.0103733 0)
  (0.130603 -0.0512839 0)
  (0.163243 -0.0800791 0)
  (0.173914 -0.108476 0)
  (0.16785 -0.12976 0)
  (0.148173 -0.137477 0)
  (0.119464 -0.130032 0)
  (0.0869166 -0.10925 0)
  (0.0554207 -0.0802844 0)
  (0.028235 -0.0489496 0)
  (0.00849886 -0.0220458 0)
  (-0.00308633 -0.00294699 0)
  (-0.00656415 0.00734607 0)
  (-0.00423893 0.0115933 0)
  (0.000277748 0.0106481 0)
  (0.00272435 0.00480391 0)
  (0.00168202 -0.00175777 0)
  (-0.0027356 -0.00666062 0)
  (-0.00918395 -0.00922797 0)
  (-0.0161121 -0.00994598 0)
  (-0.0223237 -0.00958243 0)
  (-0.0269318 -0.00885684 0)
  (-0.0294547 -0.00836788 0)
  (-0.0301703 -0.00863882 0)
  (-0.029811 -0.00950464 0)
  (-0.0289097 -0.0105176 0)
  (-0.0276698 -0.011273 0)
  (-0.0260002 -0.0114115 0)
  (-0.0234489 -0.0104805 0)
  (-0.0189118 -0.00776327 0)
  (-0.00942418 -0.00241686 0)
  (0.00223865 0.00435103 0)
  (0.0139769 0.0098691 0)
  (0.0232022 0.0123689 0)
  (0.0349577 0.0161218 0)
  (0.0440189 0.0164787 0)
  (0.126792 0.0709228 0)
  (-0.376482 0.206728 0)
  (0.670713 0.306864 0)
  (0.321894 0.212423 0)
  (0.333592 0.147536 0)
  (0.349533 0.077865 0)
  (0.32567 0.0117998 0)
  (0.283231 -0.0419801 0)
  (0.233506 -0.0760279 0)
  (0.17927 -0.0890421 0)
  (0.124159 -0.0844968 0)
  (0.0721239 -0.0669558 0)
  (0.0275775 -0.0431381 0)
  (-0.00746302 -0.018682 0)
  (-0.0269849 -0.00290768 0)
  (-0.0362516 0.00536071 0)
  (-0.0380481 0.00894259 0)
  (-0.0366496 0.010016 0)
  (-0.0343452 0.00891673 0)
  (-0.0335594 0.00583934 0)
  (-0.0352341 0.0023889 0)
  (-0.0386208 -0.000369369 0)
  (-0.043479 -0.00210564 0)
  (-0.0486505 -0.00316209 0)
  (-0.0532873 -0.00396123 0)
  (-0.0568901 -0.00479857 0)
  (-0.0593272 -0.00582362 0)
  (-0.0609306 -0.00712838 0)
  (-0.0622114 -0.00858924 0)
  (-0.063635 -0.00998446 0)
  (-0.0656402 -0.0110625 0)
  (-0.0687212 -0.0114579 0)
  (-0.0734045 -0.0104861 0)
  (-0.0801155 -0.0069415 0)
  (-0.0892746 0.000689326 0)
  (-0.099479 0.0118555 0)
  (-0.114345 0.0270173 0)
  (-0.138722 0.0475512 0)
  (-0.171929 0.0743606 0)
  (-0.21321 0.104404 0)
  (-0.277904 0.131562 0)
  (-0.542755 0.145813 0)
  (0.207361 -0.0201131 0)
  (0.220639 -0.0209401 0)
  (0.214151 -0.04157 0)
  (0.180779 -0.0514888 0)
  (0.136626 -0.0513962 0)
  (0.0882832 -0.0448948 0)
  (0.0403244 -0.0331468 0)
  (-0.00601013 -0.0152392 0)
  (-0.0393758 -0.00013252 0)
  (-0.0581681 0.00836514 0)
  (-0.0667933 0.0121749 0)
  (-0.069439 0.0136986 0)
  (-0.069398 0.0142907 0)
  (-0.0682597 0.0144544 0)
  (-0.067114 0.0140744 0)
  (-0.0669906 0.0130994 0)
  (-0.0682505 0.0120138 0)
  (-0.070529 0.0112486 0)
  (-0.0732571 0.0108643 0)
  (-0.0760665 0.0106486 0)
  (-0.0788421 0.0103795 0)
  (-0.0816354 0.00984618 0)
  (-0.0845171 0.0095124 0)
  (-0.0876349 0.00959979 0)
  (-0.0911055 0.0103742 0)
  (-0.0949658 0.0120998 0)
  (-0.0992076 0.014904 0)
  (-0.103883 0.0185739 0)
  (-0.109167 0.0222798 0)
  (-0.114934 0.0254344 0)
  (-0.120005 0.0293849 0)
  (-0.124527 0.0363345 0)
  (-0.128351 0.0477195 0)
  (-0.13112 0.0642327 0)
  (-0.130089 0.0836421 0)
  (-0.119869 0.0916852 0)
  (-0.104107 0.0476696 0)
  (-0.190057 -0.171692 0)
  (0.0584548 0.100477 0)
  (0.00300359 0.0254411 0)
  (-0.00930853 -0.0123436 0)
  (-0.0126751 -0.0302203 0)
  (-0.0297988 -0.0369507 0)
  (-0.0517425 -0.0395683 0)
  (-0.071604 -0.0405791 0)
  (-0.0857589 -0.0419092 0)
  (-0.0928002 -0.0447293 0)
  (-0.0957464 -0.0481467 0)
  (-0.096286 -0.0512462 0)
  (-0.0954326 -0.0533577 0)
  (-0.0938465 -0.0545932 0)
  (-0.0918812 -0.0555968 0)
  (-0.0899267 -0.0571217 0)
  (-0.0884183 -0.0595744 0)
  (-0.0875799 -0.0627571 0)
  (-0.0873614 -0.0662289 0)
  (-0.0876086 -0.0696748 0)
  (-0.0882087 -0.07301 0)
  (-0.0891636 -0.0762284 0)
  (-0.0906476 -0.0792927 0)
  (-0.0928934 -0.0826166 0)
  (-0.0959908 -0.0862868 0)
  (-0.099959 -0.0901927 0)
  (-0.104652 -0.093937 0)
  (-0.109678 -0.0967309 0)
  (-0.114404 -0.097322 0)
  (-0.118141 -0.0939317 0)
  (-0.120301 -0.085021 0)
  (-0.119999 -0.0707868 0)
  (-0.11561 -0.0512392 0)
  (-0.105076 -0.0272667 0)
  (-0.0864717 -0.000753501 0)
  (-0.0596004 0.0232384 0)
  (-0.0267252 0.0307682 0)
  (0.0970503 -0.0573381 0)
  (-0.144109 -0.116039 0)
  (-0.131351 -0.243802 0)
  (-0.289613 -0.0474826 0)
  (-0.224914 0.141622 0)
  (-0.197453 0.131065 0)
  (-0.165536 0.135788 0)
  (-0.155345 0.145278 0)
  (-0.152826 0.152848 0)
  (-0.151094 0.160782 0)
  (-0.1477 0.170351 0)
  (-0.142262 0.180973 0)
  (-0.135662 0.190737 0)
  (-0.12923 0.198582 0)
  (-0.123643 0.204226 0)
  (-0.118969 0.20799 0)
  (-0.114899 0.210655 0)
  (-0.111119 0.213127 0)
  (-0.107564 0.216047 0)
  (-0.104402 0.219596 0)
  (-0.101843 0.223519 0)
  (-0.0999985 0.227434 0)
  (-0.098885 0.231108 0)
  (-0.0984765 0.234507 0)
  (-0.0987124 0.23773 0)
  (-0.0994564 0.240939 0)
  (-0.100568 0.244723 0)
  (-0.101906 0.249329 0)
  (-0.103293 0.254765 0)
  (-0.104512 0.260681 0)
  (-0.105318 0.266272 0)
  (-0.105413 0.270268 0)
  (-0.104303 0.271094 0)
  (-0.101092 0.267787 0)
  (-0.0944149 0.261252 0)
  (-0.0825384 0.252648 0)
  (-0.064112 0.244307 0)
  (-0.039582 0.239185 0)
  (-0.00763429 0.239172 0)
  (0.0269304 0.244004 0)
  (0.133483 0.280565 0)
  (-0.288381 0.275575 0)
)
;

boundaryField
{
  floor
  {
    type noSlip;
  }
  ceiling
  {
    type noSlip;
  }
  sWall
  {
    type noSlip;
  }
  nWall
  {
    type noSlip;
  }
  sideWalls
  {
    type empty;
  }
  glass1
  {
    type noSlip;
  }
  glass2
  {
    type noSlip;
  }
  sun
  {
    type noSlip;
  }
  heatsource1
  {
    type noSlip;
  }
  heatsource2
  {
    type noSlip;
  }
  Table_master
  {
    type noSlip;
  }
  Table_slave
  {
    type noSlip;
  }
  inlet
  {
    type fixedValue;
    value uniform (0.277164 -0.114805 0);
  }
  outlet
  {
    type zeroGradient;
  }
} 	// ************************************************************************* //

