/*--------------------------------*- C++ -*----------------------------------*\
  =========                 |
  \\      /  F ield         | OpenFOAM: The Open Source CFD Toolbox
   \\    /   O peration     | Website:  https://openfoam.org
    \\  /    A nd           | Version:  6
     \\/     M anipulation  |
\*---------------------------------------------------------------------------*/
FoamFile
{
    version     2.0;
    format      ascii;
    class       volScalarField;
    location    "500";
    object      alphat;
}
// * * * * * * * * * * * * * * * * * * * * * * * * * * * * * * * * * * * * * //

dimensions      [1 -1 -1 0 0 0 0];

internalField   nonuniform List<scalar> 
459
(
0.00119894
0.00130476
0.00132356
0.00138479
0.00144098
0.00149284
0.00154262
0.00159331
0.00163363
0.00165607
0.00165452
0.00162431
0.0015649
0.0014837
0.00139544
0.000521928
0.00064324
0.000710465
0.000694285
0.000664941
0.000631058
0.000593074
0.000556576
0.000523506
0.000493986
0.000467674
0.000444208
0.000423263
0.000404273
0.000386615
0.000369416
0.000351355
0.000340554
0.000312429
0.00165159
0.00389391
0.00367482
0.00426867
0.00483433
0.00540913
0.00594118
0.00634693
0.00670225
0.00700238
0.00720043
0.00723453
0.00700845
0.00631205
0.00452286
0.0014144
0.000914593
0.000580997
0.00113672
0.00151861
0.0017763
0.0018995
0.00188791
0.00157923
0.00138828
0.00124683
0.00113563
0.00104542
0.000969715
0.000901607
0.000838008
0.000777104
0.000724066
0.000675689
0.000804174
0.00042094
0.00203146
0.00532808
0.00450306
0.00575332
0.00634154
0.00677039
0.00709845
0.00735072
0.00761036
0.00789092
0.00816111
0.00836909
0.00844262
0.00830353
0.00776944
0.00623788
0.00137131
0.00118418
0.00161292
0.00197514
0.00227639
0.00246826
0.00239143
0.000841581
0.000749181
0.000674738
0.000614391
0.000564975
0.00052408
0.000489968
0.0004615
0.000438171
0.000471665
0.000542351
0.000899478
0.000491806
0.00239891
0.00690647
0.0044754
0.00611408
0.00669239
0.00687304
0.0069488
0.00703482
0.00720575
0.00746759
0.00779081
0.0081235
0.00838153
0.0085135
0.00844059
0.00792267
0.00613028
0.0016082
0.00201121
0.00254153
0.00298646
0.00330132
0.00347988
0.00325628
0.000942691
0.000865965
0.000812559
0.000772788
0.000738932
0.000706115
0.000674479
0.000640814
0.000600928
0.000565633
0.000574215
0.00103153
0.000545856
0.00277383
0.00895034
0.00494307
0.00582105
0.00665713
0.00674476
0.00665172
0.00659532
0.00673529
0.00699281
0.00734822
0.00774744
0.00807113
0.008249
0.00823243
0.00797201
0.00731086
0.00596885
0.00544559
0.00520181
0.00506047
0.00497104
0.00490238
0.00474657
0.00409116
0.00379682
0.00363371
0.00350391
0.00335613
0.0031372
0.00280639
0.00239007
0.00191917
0.00143479
0.00105818
0.00104857
0.000726773
0.000680147
0.000821102
0.000919587
0.00317004
0.0111678
0.00694407
0.0056413
0.00626509
0.00659859
0.00648576
0.0064254
0.00655377
0.00679077
0.00714263
0.00755358
0.00791028
0.00809578
0.00804365
0.00776382
0.00732944
0.00683802
0.00650624
0.00626479
0.00605569
0.00587751
0.00571927
0.00554203
0.00528054
0.00505063
0.00484331
0.00463821
0.00442333
0.00418812
0.00387083
0.00344537
0.00291037
0.00229449
0.00173012
0.0012755
0.000985657
0.000851215
0.00122479
0.00095828
0.00353654
0.0127573
0.00999198
0.00733153
0.00673065
0.00681102
0.00674726
0.00663415
0.00663154
0.00681457
0.00717559
0.00761943
0.00799807
0.00816633
0.00805045
0.00768967
0.00724138
0.00689905
0.00672399
0.00657432
0.00636249
0.00609341
0.00578984
0.00548325
0.00519839
0.00495626
0.00473924
0.0045342
0.00433932
0.00415985
0.00399561
0.00372958
0.0033135
0.0027834
0.00226091
0.00177564
0.0014348
0.00133431
0.00137452
0.00107991
0.00360926
0.0115315
0.0101308
0.0091883
0.00846628
0.00786373
0.00721637
0.0067929
0.00671652
0.00697027
0.00744038
0.00795498
0.00832844
0.00840671
0.0081449
0.00763651
0.0071165
0.00681669
0.00669549
0.00642093
0.00599529
0.00551693
0.00507562
0.00472246
0.00445841
0.00425601
0.00408816
0.00394556
0.0038317
0.00375631
0.00373061
0.00373013
0.00350617
0.00315039
0.00282963
0.00266711
0.00278447
0.00324842
0.00404959
0.00170173
0.00351316
0.00418462
0.00468851
0.00488995
0.00499554
0.00508813
0.00533001
0.0058132
0.00652149
0.00734294
0.00811065
0.00866021
0.00886193
0.00862436
0.00801993
0.00728583
0.00678488
0.00643296
0.00604256
0.00549681
0.00489535
0.00437166
0.00398178
0.00371129
0.00352007
0.00337249
0.00324692
0.00313311
0.00302519
0.00291766
0.00280501
0.00268708
0.00258848
0.00251574
0.00249422
0.0025166
0.00251429
0.00242243
0.00226833
0.00159827
0.00194115
0.0037834
0.00526081
0.0064357
0.00749372
0.00842941
0.00917668
0.00963972
0.00976764
0.00955597
0.00901379
0.00811863
0.00707736
0.00623702
0.0056877
0.00516678
0.00456817
0.00397053
0.0034876
0.00314892
0.00292295
0.00276901
0.00265756
0.00257167
0.0025032
0.00244898
0.00240847
0.00238297
0.00237605
0.00239432
0.00242229
0.00245869
0.00249688
0.00250961
0.00245103
0.00230449
0.00208404
0.00132233
0.00241275
0.00550215
0.00775802
0.00867688
0.00937067
0.00976133
0.00980857
0.00946631
0.00879351
0.00788065
0.00686461
0.00590689
0.00511047
0.00447576
0.00390999
0.00338372
0.00296275
0.00266883
0.00246571
0.00231924
0.00221636
0.00214721
0.00210379
0.00208207
0.00208005
0.00209633
0.002129
0.00217444
0.00223641
0.0023166
0.00241248
0.00251728
0.00261437
0.00268253
0.00266991
0.0027053
0.00271102
0.00134547
0.00210408
0.00222831
0.00231731
0.00245409
0.00234159
0.0022146
0.00211518
0.0020079
0.00188624
0.00174106
0.00157085
0.00138424
0.00119632
0.00102449
0.000885435
0.000787042
0.000723946
0.000686244
0.000666087
0.000658241
0.000659181
0.000667181
0.000680175
0.000697178
0.000718067
0.000742886
0.000771808
0.000805184
0.000843663
0.000888451
0.000939651
0.000996533
0.00105987
0.00113043
0.00120815
0.00130118
0.00133279
0.00130056
0.00122017
0.00113496
)
;

boundaryField
{
    floor
    {
        type            compressible::alphatWallFunction;
        Prt             0.85;
        value           nonuniform List<scalar> 
29
(
0.000196882
7.25972e-05
9.08287e-05
0.000100746
9.83695e-05
9.40429e-05
8.9018e-05
8.33454e-05
7.78522e-05
7.28364e-05
6.83256e-05
6.42764e-05
6.06407e-05
5.73749e-05
5.43962e-05
5.16102e-05
4.88808e-05
4.59967e-05
4.42629e-05
3.97136e-05
3.9713e-05
5.70114e-05
6.79908e-05
7.62302e-05
0.00019688
7.25963e-05
8.15328e-05
0.000167982
0.000225489
)
;
    }
    ceiling
    {
        type            compressible::alphatWallFunction;
        Prt             0.85;
        value           nonuniform List<scalar> 
43
(
0.000290544
0.000306585
0.000318021
0.000335618
0.000321291
0.000305002
0.000292176
0.000278256
0.000262368
0.000243256
0.00022062
0.000195485
0.00016978
0.000145869
0.000126176
0.000112023
0.000102836
9.73004e-05
9.43262e-05
9.31659e-05
9.33053e-05
9.4489e-05
9.64077e-05
9.89116e-05
0.000101978
0.000105606
0.000109817
0.000114652
0.000120196
0.000126612
0.000133901
0.000141943
0.000150836
0.00016067
0.000171421
0.000184187
0.000188501
0.000184103
0.000173079
0.000161303
0.000468195
0.000549866
0.000330089
)
;
    }
    sWall
    {
        type            compressible::alphatWallFunction;
        Prt             0.85;
        value           uniform 0.000289332;
    }
    nWall
    {
        type            compressible::alphatWallFunction;
        Prt             0.85;
        value           nonuniform List<scalar> 6(0.000130729 0.000136213 0.000153299 0.000186747 0.000189898 0.000160978);
    }
    sideWalls
    {
        type            empty;
    }
    glass1
    {
        type            compressible::alphatWallFunction;
        Prt             0.85;
        value           nonuniform List<scalar> 9(0.000165858 0.000226282 0.000275699 0.000322644 0.000369827 0.000419014 0.000463992 0.000472988 0.00046149);
    }
    glass2
    {
        type            compressible::alphatWallFunction;
        Prt             0.85;
        value           nonuniform List<scalar> 2(0.000236335 0.000222688);
    }
    sun
    {
        type            compressible::alphatWallFunction;
        Prt             0.85;
        value           nonuniform List<scalar> 
14
(
0.000170042
0.000184549
0.000187114
0.000195442
0.000203049
0.000210039
0.000216725
0.000223507
0.000228885
0.000231871
0.000231664
0.00022764
0.000219706
0.000208805
)
;
    }
    heatsource1
    {
        type            compressible::alphatWallFunction;
        Prt             0.85;
        value           nonuniform List<scalar> 3(9.63952e-05 0.000116939 0.000131039);
    }
    heatsource2
    {
        type            compressible::alphatWallFunction;
        Prt             0.85;
        value           nonuniform List<scalar> 4(0.000199571 0.000130329 0.000130327 0.000193727);
    }
    Table_master
    {
        type            compressible::alphatWallFunction;
        Prt             0.85;
        value           nonuniform List<scalar> 9(0.000119883 0.000106511 9.55941e-05 8.66364e-05 7.92206e-05 7.30226e-05 6.78063e-05 6.3418e-05 5.97961e-05);
    }
    Table_slave
    {
        type            compressible::alphatWallFunction;
        Prt             0.85;
        value           nonuniform List<scalar> 9(0.00013432 0.000123385 0.000115706 0.000109948 0.000105019 0.000100215 9.55585e-05 9.05737e-05 8.4626e-05);
    }
    inlet
    {
        type            fixedValue;
        value           uniform 1.94e-05;
    }
    outlet
    {
        type            zeroGradient;
    }
}


// ************************************************************************* //
