// -*- C++ -*-
// File generated by PyFoam - sorry for the ugliness

FoamFile
{
 version 2.0;
 format ascii;
 class volVectorField;
 location "490";
 object U;
}

dimensions [ 0 1 -1 0 0 0 0 ];

internalField nonuniform List<vector> 459
(
  (0.0243601 0.0718619 0)
  (-0.139614 0.0230233 0)
  (-0.163826 0.016687 0)
  (-0.192592 0.0118135 0)
  (-0.21439 0.00651014 0)
  (-0.228378 0.000850056 0)
  (-0.23318 -0.00529866 0)
  (-0.226975 -0.0120187 0)
  (-0.209658 -0.0191937 0)
  (-0.181832 -0.0257574 0)
  (-0.14611 -0.0305778 0)
  (-0.1066 -0.0327493 0)
  (-0.0680486 -0.0314101 0)
  (-0.031985 -0.0251777 0)
  (0.0242619 -0.0131619 0)
  (-0.121801 -0.000863591 0)
  (0.0409909 -0.000324017 0)
  (0.0134787 -0.00119942 0)
  (0.012424 -0.0041392 0)
  (0.0186298 -0.00380641 0)
  (0.0234976 -0.00265434 0)
  (0.0263453 -0.00199249 0)
  (0.0283579 -0.00161072 0)
  (0.0298946 -0.00136315 0)
  (0.0310609 -0.00119224 0)
  (0.0319011 -0.00104974 0)
  (0.0324029 -0.000890924 0)
  (0.032458 -0.0006348 0)
  (0.0318171 -0.000106149 0)
  (0.029972 0.00102102 0)
  (0.0261837 0.00315373 0)
  (0.0223236 0.00510996 0)
  (-0.0483041 0.0126734 0)
  (0.146281 -0.00970657 0)
  (0.165707 0.14681 0)
  (-0.131076 0.0596648 0)
  (-0.13417 0.0485361 0)
  (-0.163845 0.0389194 0)
  (-0.185465 0.0280256 0)
  (-0.199667 0.0157044 0)
  (-0.205142 0.00148266 0)
  (-0.199881 -0.0147887 0)
  (-0.184139 -0.0315157 0)
  (-0.158968 -0.0459747 0)
  (-0.127302 -0.0556534 0)
  (-0.0931093 -0.0589916 0)
  (-0.0606973 -0.0552326 0)
  (-0.033466 -0.0441549 0)
  (-0.0116775 -0.0258659 0)
  (0.000361996 -0.00422821 0)
  (0.00155945 0.0147585 0)
  (-0.153643 0.000316128 0)
  (0.0371977 -0.0125231 0)
  (0.0239525 -0.0100731 0)
  (0.0272235 -0.0093464 0)
  (0.0324967 -0.00656052 0)
  (0.0354466 -0.00343597 0)
  (0.0360299 -0.00228532 0)
  (0.0364568 -0.00143685 0)
  (0.0368652 -0.000751005 0)
  (0.0372112 -0.00017052 0)
  (0.0374908 0.000378033 0)
  (0.0377224 0.00101408 0)
  (0.0378841 0.00190861 0)
  (0.0378776 0.00325217 0)
  (0.0372745 0.00568144 0)
  (0.0343214 0.011283 0)
  (0.0338502 0.0161052 0)
  (-0.0460972 0.0216396 0)
  (0.204951 0.00134538 0)
  (0.296656 0.220239 0)
  (-0.14406 0.0947772 0)
  (-0.102387 0.0785727 0)
  (-0.131249 0.0614127 0)
  (-0.150731 0.0433095 0)
  (-0.164261 0.0231873 0)
  (-0.170091 3.12095e-05 0)
  (-0.16498 -0.0261022 0)
  (-0.149615 -0.0525013 0)
  (-0.125959 -0.074262 0)
  (-0.0974353 -0.087557 0)
  (-0.0676871 -0.0905211 0)
  (-0.0402063 -0.0828119 0)
  (-0.0170909 -0.0649654 0)
  (0.000569436 -0.0396968 0)
  (0.0130013 -0.0122051 0)
  (0.0129652 0.0211021 0)
  (-0.0961852 -0.008305 0)
  (0.0372659 -0.0236715 0)
  (0.0460978 -0.0222603 0)
  (0.0481553 -0.0164993 0)
  (0.0504244 -0.00985039 0)
  (0.0503287 -0.00466169 0)
  (0.0463292 -0.00676185 0)
  (0.043551 -0.00597316 0)
  (0.0416741 -0.00551478 0)
  (0.040262 -0.00525957 0)
  (0.03918 -0.00512349 0)
  (0.038455 -0.00500836 0)
  (0.0382623 -0.00474977 0)
  (0.039115 -0.00394417 0)
  (0.0421397 -0.000911507 0)
  (0.0422875 0.0133689 0)
  (0.0440228 0.0227804 0)
  (-0.0255965 0.0283192 0)
  (0.224175 0.0256101 0)
  (0.416945 0.279743 0)
  (-0.17198 0.125441 0)
  (-0.0679754 0.104451 0)
  (-0.0955798 0.0810773 0)
  (-0.110182 0.0580651 0)
  (-0.121232 0.0320465 0)
  (-0.12629 0.000705794 0)
  (-0.119429 -0.0359262 0)
  (-0.103386 -0.07212 0)
  (-0.0814643 -0.100335 0)
  (-0.0571536 -0.116281 0)
  (-0.0330573 -0.118528 0)
  (-0.0116967 -0.107789 0)
  (0.00762855 -0.084817 0)
  (0.0237445 -0.0560024 0)
  (0.040117 -0.0258528 0)
  (0.0587425 -0.000972004 0)
  (0.0861542 -0.0623428 0)
  (0.0908485 -0.0390827 0)
  (0.0884808 -0.0330324 0)
  (0.0792209 -0.0262773 0)
  (0.072022 -0.017899 0)
  (0.0684923 -0.00988107 0)
  (0.0674978 -0.00238868 0)
  (0.0683038 -0.00100239 0)
  (0.0673264 -0.00118931 0)
  (0.0655374 -0.00120422 0)
  (0.0633829 -0.00112486 0)
  (0.0609203 -0.000963392 0)
  (0.0580124 -0.000671816 0)
  (0.0543762 -0.000148043 0)
  (0.0494292 0.000818931 0)
  (0.0417875 0.00253435 0)
  (0.0373134 0.0163614 0)
  (0.0447193 0.0262567 0)
  (-0.00924264 0.0311501 0)
  (0.235857 0.0574777 0)
  (0.524121 0.325863 0)
  (-0.20789 0.149935 0)
  (-0.0323798 0.120314 0)
  (-0.0577127 0.0932611 0)
  (-0.0649349 0.0676751 0)
  (-0.071188 0.0380137 0)
  (-0.0734319 4.46158e-05 0)
  (-0.060815 -0.0466632 0)
  (-0.0441862 -0.0906593 0)
  (-0.0259116 -0.122355 0)
  (-0.00832393 -0.138564 0)
  (0.0078527 -0.138612 0)
  (0.0208603 -0.124757 0)
  (0.0325371 -0.100855 0)
  (0.0439145 -0.0715784 0)
  (0.0566724 -0.0424131 0)
  (0.0724079 -0.0206449 0)
  (0.0846514 -0.0173155 0)
  (0.0865637 -0.0161941 0)
  (0.0800963 -0.016717 0)
  (0.0724056 -0.0143563 0)
  (0.066053 -0.00972591 0)
  (0.0615282 -0.00481389 0)
  (0.0584616 -0.00064677 0)
  (0.0559253 0.00171681 0)
  (0.053456 0.00295201 0)
  (0.0507468 0.00367179 0)
  (0.0479858 0.00417904 0)
  (0.0452535 0.0046927 0)
  (0.042497 0.00541291 0)
  (0.03964 0.00654922 0)
  (0.0366599 0.00836492 0)
  (0.0335891 0.0112394 0)
  (0.0325626 0.0175213 0)
  (0.0416833 0.0228775 0)
  (0.0173713 0.0213212 0)
  (0.114709 0.0546842 0)
  (0.0837291 0.0541418 0)
  (-0.0969628 0.0570617 0)
  (0.337398 -0.0214524 0)
  (0.605675 0.364146 0)
  (-0.24518 0.166071 0)
  (-0.00274822 0.119899 0)
  (-0.0191282 0.0969653 0)
  (-0.0176125 0.0721101 0)
  (-0.0173301 0.0419537 0)
  (-0.00976935 4.14603e-05 0)
  (0.0110603 -0.0613697 0)
  (0.0255738 -0.107804 0)
  (0.0370506 -0.137793 0)
  (0.0452555 -0.151027 0)
  (0.0503742 -0.148632 0)
  (0.0533331 -0.133191 0)
  (0.0554631 -0.108574 0)
  (0.0578974 -0.0797019 0)
  (0.0616612 -0.0520231 0)
  (0.0669848 -0.0309865 0)
  (0.0699253 -0.0215797 0)
  (0.067445 -0.017771 0)
  (0.0613602 -0.0142747 0)
  (0.0546961 -0.0100014 0)
  (0.0487322 -0.00533916 0)
  (0.0438051 -0.0010309 0)
  (0.0399198 0.00242993 0)
  (0.0370574 0.00457393 0)
  (0.0346074 0.00553351 0)
  (0.0322625 0.00594419 0)
  (0.0300239 0.0062124 0)
  (0.0279176 0.00657058 0)
  (0.0259565 0.00719406 0)
  (0.0242008 0.00824015 0)
  (0.0227991 0.00984614 0)
  (0.0219217 0.0120469 0)
  (0.0225104 0.0148758 0)
  (0.0276397 0.0160575 0)
  (0.0155942 0.00764847 0)
  (0.0389306 0.0329883 0)
  (0.0427035 0.055528 0)
  (-0.1355 0.0732599 0)
  (0.35149 -0.0403892 0)
  (0.651652 0.398046 0)
  (-0.267333 0.153839 0)
  (0.0206451 0.0832861 0)
  (0.027335 0.0851485 0)
  (0.0355134 0.0683381 0)
  (0.0435951 0.0338441 0)
  (0.0686311 -0.0207104 0)
  (0.0895319 -0.0767787 0)
  (0.0999055 -0.118631 0)
  (0.102383 -0.143634 0)
  (0.0990256 -0.152543 0)
  (0.0915579 -0.14712 0)
  (0.0819659 -0.130125 0)
  (0.0721742 -0.105326 0)
  (0.0635356 -0.0772849 0)
  (0.056889 -0.0510779 0)
  (0.0523347 -0.0308465 0)
  (0.0480606 -0.0189727 0)
  (0.0425 -0.0124563 0)
  (0.0361526 -0.00781429 0)
  (0.0300645 -0.00374644 0)
  (0.024604 2.15815e-05 0)
  (0.0203518 0.00316406 0)
  (0.0174978 0.00544677 0)
  (0.0154864 0.0068206 0)
  (0.0138744 0.00742646 0)
  (0.0124048 0.00765255 0)
  (0.0110287 0.00778799 0)
  (0.00978862 0.00799854 0)
  (0.00878216 0.00839352 0)
  (0.0081711 0.00904894 0)
  (0.00816943 0.0100004 0)
  (0.00893555 0.0111883 0)
  (0.010742 0.0124887 0)
  (0.0139356 0.0132175 0)
  (0.00746559 0.0115187 0)
  (0.0130893 0.0340611 0)
  (0.0324795 0.074518 0)
  (-0.184448 0.0902576 0)
  (0.440919 -0.0480315 0)
  (0.744927 0.401169 0)
  (-0.0770243 0.125721 0)
  (0.0824248 0.0132223 0)
  (0.124836 0.0105162 0)
  (0.127374 0.00518839 0)
  (0.135721 -0.0277964 0)
  (0.166648 -0.0651898 0)
  (0.180927 -0.0985125 0)
  (0.179184 -0.123299 0)
  (0.16636 -0.137056 0)
  (0.146514 -0.13914 0)
  (0.122938 -0.130291 0)
  (0.0985595 -0.11255 0)
  (0.0758557 -0.0889235 0)
  (0.0562515 -0.0630903 0)
  (0.0404167 -0.0397077 0)
  (0.0284871 -0.0220153 0)
  (0.0197143 -0.0112286 0)
  (0.0126848 -0.00510885 0)
  (0.00664101 -0.0010927 0)
  (0.00152077 0.00202559 0)
  (-0.0021007 0.0044836 0)
  (-0.00446233 0.00629507 0)
  (-0.0059473 0.00759356 0)
  (-0.00687736 0.00841769 0)
  (-0.00753886 0.00882855 0)
  (-0.00809419 0.00899347 0)
  (-0.0085561 0.00905431 0)
  (-0.00883965 0.0090913 0)
  (-0.00879126 0.00914358 0)
  (-0.00819974 0.00922543 0)
  (-0.00681407 0.00934627 0)
  (-0.00440287 0.00954514 0)
  (-0.000688847 0.0100499 0)
  (0.00439084 0.0114456 0)
  (0.00655704 0.0144762 0)
  (0.0169574 0.0341601 0)
  (0.0542272 0.0755629 0)
  (-0.146168 0.075773 0)
  (0.73522 0.00378911 0)
  (0.870073 0.401865 0)
  (0.418053 0.284992 0)
  (0.422036 0.214558 0)
  (0.415029 0.145701 0)
  (0.382715 0.0930587 0)
  (0.358865 0.043501 0)
  (0.328836 -0.00846247 0)
  (0.293426 -0.0530412 0)
  (0.254449 -0.0838224 0)
  (0.212886 -0.0998434 0)
  (0.170372 -0.10276 0)
  (0.128844 -0.0950477 0)
  (0.0903932 -0.079647 0)
  (0.0572055 -0.0596485 0)
  (0.0302771 -0.0381107 0)
  (0.00993713 -0.0196491 0)
  (-0.00456761 -0.00651966 0)
  (-0.0133911 0.000386923 0)
  (-0.0194566 0.00408787 0)
  (-0.0234067 0.00629972 0)
  (-0.0259294 0.00787239 0)
  (-0.027477 0.00911326 0)
  (-0.0282756 0.0101037 0)
  (-0.0285325 0.0108804 0)
  (-0.0284233 0.0114327 0)
  (-0.028101 0.0117556 0)
  (-0.0276488 0.0118827 0)
  (-0.0270641 0.0118481 0)
  (-0.0262811 0.0116643 0)
  (-0.025188 0.0113234 0)
  (-0.0236315 0.0108092 0)
  (-0.0214147 0.0101267 0)
  (-0.0183003 0.00935455 0)
  (-0.0139857 0.00873743 0)
  (-0.00813954 0.00882479 0)
  (-0.000626697 0.0109949 0)
  (0.0159831 0.0231649 0)
  (0.0532901 0.0530508 0)
  (-0.110235 0.0444732 0)
  (0.724617 0.0456135 0)
  (0.124535 0.057423 0)
  (0.232564 0.0800632 0)
  (0.269111 0.0557191 0)
  (0.263082 0.0213964 0)
  (0.24994 -0.00890254 0)
  (0.229882 -0.035342 0)
  (0.201253 -0.0545716 0)
  (0.164668 -0.0648442 0)
  (0.123603 -0.0662297 0)
  (0.0817944 -0.0597984 0)
  (0.0426547 -0.0475499 0)
  (0.00958154 -0.0316787 0)
  (-0.0159017 -0.0139374 0)
  (-0.0307644 -0.00163488 0)
  (-0.0397097 0.00551283 0)
  (-0.0444877 0.00892717 0)
  (-0.0469009 0.0106772 0)
  (-0.048157 0.011751 0)
  (-0.0486234 0.0125243 0)
  (-0.0485027 0.0131019 0)
  (-0.0479226 0.013498 0)
  (-0.0469906 0.0137161 0)
  (-0.0457998 0.0137414 0)
  (-0.0444349 0.0135598 0)
  (-0.0429568 0.013172 0)
  (-0.0413967 0.0125837 0)
  (-0.0397647 0.0117932 0)
  (-0.0380584 0.0107867 0)
  (-0.0362643 0.00954136 0)
  (-0.0343597 0.00803254 0)
  (-0.032345 0.00620582 0)
  (-0.0303174 0.00382283 0)
  (-0.0282744 0.000860004 0)
  (-0.0243401 0.0010184 0)
  (-0.0141883 0.0101582 0)
  (-0.00441983 0.0315599 0)
  (-0.159714 0.0251569 0)
  (0.440968 0.0730088 0)
  (-0.027838 0.121756 0)
  (0.089471 0.0800018 0)
  (0.118916 0.0176808 0)
  (0.1286 -0.0336375 0)
  (0.126963 -0.0723502 0)
  (0.116356 -0.0876911 0)
  (0.0939609 -0.0883201 0)
  (0.0656624 -0.0855378 0)
  (0.0350817 -0.081677 0)
  (0.00540945 -0.0782379 0)
  (-0.0200998 -0.0781623 0)
  (-0.0386628 -0.0805799 0)
  (-0.0517375 -0.0810742 0)
  (-0.0589276 -0.0815304 0)
  (-0.0622933 -0.0817631 0)
  (-0.0636444 -0.0823799 0)
  (-0.0640338 -0.0832435 0)
  (-0.0638529 -0.0839588 0)
  (-0.0632248 -0.0844393 0)
  (-0.0622226 -0.0847016 0)
  (-0.0609042 -0.0847965 0)
  (-0.0593239 -0.0847782 0)
  (-0.0575372 -0.0847108 0)
  (-0.0556048 -0.0846592 0)
  (-0.0535888 -0.084682 0)
  (-0.0515505 -0.0848402 0)
  (-0.049554 -0.0852139 0)
  (-0.047676 -0.0859126 0)
  (-0.0460219 -0.0870723 0)
  (-0.0447734 -0.0888309 0)
  (-0.044304 -0.0912641 0)
  (-0.0452301 -0.0941374 0)
  (-0.0476792 -0.0962084 0)
  (-0.0493429 -0.0940853 0)
  (-0.0482192 -0.0793092 0)
  (-0.0587582 -0.0502775 0)
  (-0.129678 -0.036131 0)
  (0.350075 -0.00830219 0)
  (0.151729 -0.186264 0)
  (-0.251233 -0.0278963 0)
  (-0.163956 0.232573 0)
  (-0.0889157 0.227016 0)
  (-0.0481457 0.233562 0)
  (-0.0210289 0.262798 0)
  (-0.0103729 0.294519 0)
  (-0.0104567 0.291269 0)
  (-0.0226579 0.273843 0)
  (-0.0400366 0.266531 0)
  (-0.056344 0.266266 0)
  (-0.069552 0.270616 0)
  (-0.0787673 0.278292 0)
  (-0.0839872 0.287874 0)
  (-0.0857197 0.294579 0)
  (-0.0853432 0.300172 0)
  (-0.083798 0.304391 0)
  (-0.0816846 0.307827 0)
  (-0.0794356 0.310788 0)
  (-0.0771865 0.31322 0)
  (-0.07493 0.315222 0)
  (-0.0726414 0.316874 0)
  (-0.0703073 0.318235 0)
  (-0.0679353 0.319342 0)
  (-0.0655563 0.320229 0)
  (-0.063226 0.320922 0)
  (-0.0610204 0.321437 0)
  (-0.0590319 0.321796 0)
  (-0.0573654 0.322041 0)
  (-0.0561318 0.322251 0)
  (-0.0554457 0.32257 0)
  (-0.0554652 0.323238 0)
  (-0.0564271 0.324583 0)
  (-0.0582519 0.326626 0)
  (-0.0593849 0.327903 0)
  (-0.0576028 0.324856 0)
  (-0.0587134 0.311187 0)
  (-0.0881577 0.291281 0)
  (-0.155436 0.289149 0)
  (0.447526 0.327687 0)
)
;

boundaryField
{
  floor
  {
    type noSlip;
  }
  ceiling
  {
    type noSlip;
  }
  sWall
  {
    type noSlip;
  }
  nWall
  {
    type noSlip;
  }
  sideWalls
  {
    type empty;
  }
  glass1
  {
    type noSlip;
  }
  glass2
  {
    type noSlip;
  }
  sun
  {
    type noSlip;
  }
  heatsource1
  {
    type noSlip;
  }
  heatsource2
  {
    type noSlip;
  }
  Table_master
  {
    type noSlip;
  }
  Table_slave
  {
    type noSlip;
  }
  inlet
  {
    type fixedValue;
    value uniform (0.277164 -0.114805 0);
  }
  outlet
  {
    type zeroGradient;
  }
} 	// ************************************************************************* //

