/*--------------------------------*- C++ -*----------------------------------*\
  =========                 |
  \\      /  F ield         | OpenFOAM: The Open Source CFD Toolbox
   \\    /   O peration     | Website:  https://openfoam.org
    \\  /    A nd           | Version:  6
     \\/     M anipulation  |
\*---------------------------------------------------------------------------*/
FoamFile
{
    version     2.0;
    format      ascii;
    class       surfaceScalarField;
    location    "200";
    object      phi;
}
// * * * * * * * * * * * * * * * * * * * * * * * * * * * * * * * * * * * * * //

dimensions      [1 0 -1 0 0 0 0];

internalField   nonuniform List<scalar> 
852
(
-0.00263224
0.00269888
-0.0029989
0.000366718
-0.00348255
0.000483701
-0.00396894
0.000486444
-0.00440565
0.000436759
-0.00476783
0.000362228
-0.00503498
0.000267209
-0.0051851
0.000150169
-0.00519318
8.13293e-06
-0.00502898
-0.000164149
-0.00466451
-0.000364418
-0.00408064
-0.000583821
-0.003239
-0.000841591
-0.00198255
-0.0012564
-0.00197983
-0.000431009
0.000435174
-5.59633e-05
-0.000374994
0.000454222
-0.000510131
0.000878257
-0.00042398
0.00125477
-0.000376461
0.00156506
-0.000310228
0.00170121
-0.000136092
0.00172286
-2.15981e-05
0.00170738
1.55396e-05
0.00167884
2.85899e-05
0.00164252
3.63763e-05
0.00160164
4.09356e-05
0.00155644
4.52553e-05
0.00150044
5.60511e-05
0.00141434
8.61563e-05
0.00126698
0.000147412
0.00105564
0.000211387
0.000825326
0.000230364
0.000831197
-0.00192989
0.00480452
-0.00260964
0.00104652
-0.00324236
0.00111647
-0.00377322
0.00101736
-0.00423041
0.000894007
-0.00460946
0.000741332
-0.00489636
0.000554154
-0.00507248
0.000326349
-0.00511683
5.25341e-05
-0.00501116
-0.000269769
-0.00473821
-0.000637324
-0.00428212
-0.00103986
-0.00364008
-0.00148358
-0.00291975
-0.00197668
-0.00255389
-0.00234564
-0.000446752
-0.00210714
-0.000446751
0.000725975
-0.000280272
0.000620516
-0.000269482
0.000588923
-0.000478485
0.000806495
-0.000641498
0.00109766
-0.000667573
0.00137069
-0.000583196
0.00142562
-0.000190971
0.00142462
-2.05401e-05
0.00142177
1.84479e-05
0.00141794
3.24776e-05
0.00141295
4.14235e-05
0.00140791
4.60281e-05
0.00140286
5.03654e-05
0.00139517
6.37968e-05
0.00135825
0.000123124
0.00120631
0.00029941
0.000947927
0.00046982
0.000649034
0.000529307
0.00149503
-0.00143654
0.00650409
-0.00222594
0.00183597
-0.00286679
0.00175738
-0.00337512
0.00152573
-0.00381772
0.00133666
-0.00419511
0.00111877
-0.00449512
0.000854212
-0.0047004
0.000531677
-0.00479188
0.000144068
-0.00475351
-0.000308091
-0.00457813
-0.00081265
-0.00427509
-0.00134284
-0.00388901
-0.00186962
-0.00351943
-0.00234621
-0.00320708
-0.00265794
-0.00254132
-0.00277285
-0.00298802
-0.000291611
2.51331e-05
-0.000211487
-0.000349553
0.000116708
-0.000806627
0.00043901
-0.000963745
0.000725555
-0.000954062
0.00115864
-0.00101622
0.000967879
0.000947551
0.000966211
0.000998901
0.00104054
0.00108678
0.00113735
0.00120136
0.00132469
0.0011072
0.000516958
0.000829301
0.000747771
0.000510302
0.000848355
0.0020273
-0.00107953
0.00791716
-0.00187866
0.00263515
-0.00238249
0.00226126
-0.00279854
0.00194184
-0.00317696
0.00171513
-0.0035129
0.00145476
-0.00379505
0.00113641
-0.00400748
0.000744159
-0.00412951
0.000266149
-0.00414069
-0.000296855
-0.00404167
-0.000911618
-0.00386894
-0.00151553
-0.00368983
-0.00204867
-0.00357567
-0.00246032
-0.00352772
-0.00270585
-0.00354133
-0.00275918
-0.00422015
-0.00230915
-0.00280522
-0.00140182
-0.00175203
-0.00102801
-0.000951709
-0.00114982
-0.000319953
-0.00143833
7.35275e-05
-0.00135717
0.000278518
-0.001159
0.000221702
-0.000959354
0.000750258
-0.000528655
0.00114495
-0.000394793
0.00148891
-0.000344059
0.0017906
-0.000301787
0.00203217
-0.000241662
0.00217815
-0.000146084
0.00218123
-3.17176e-06
0.00200123
0.000179895
0.00158627
0.000414866
0.00131168
0.000791605
0.000870461
0.00118904
0.000233148
0.00148572
0.00228875
-0.000800124
0.00910913
-0.00155827
0.00339335
-0.00181231
0.00251535
-0.00208958
0.00221916
-0.00236093
0.00198654
-0.00260745
0.00170133
-0.00282042
0.00134944
-0.00298967
0.000913461
-0.00309761
0.000374141
-0.00311371
-0.000280706
-0.00303591
-0.000989372
-0.00291667
-0.00163472
-0.0028163
-0.00214899
-0.00276971
-0.00250686
-0.0027785
-0.00269701
-0.00285586
-0.00268177
-0.00282051
-0.00234446
-0.00231928
-0.001903
-0.00165439
-0.00169285
-0.00101277
-0.00179139
-0.000453293
-0.00199776
-0.000113812
-0.0016966
7.58879e-05
-0.00134864
0.000216783
-0.00110019
0.000529942
-0.00084176
0.000838312
-0.000703108
0.00112378
-0.000629471
0.00138796
-0.000565914
0.00161954
-0.00047319
0.00179075
-0.000317238
0.0018595
-7.18654e-05
0.00179578
0.000243666
0.00161745
0.000593254
0.00140208
0.00100703
0.00112213
0.00146904
0.000564973
0.00204293
0.00028944
0.00256433
-0.00118511
0.0014744
-0.00164799
0.000462724
-0.00158993
-0.000708343
0.0102587
-0.00136984
0.00405491
-0.00120441
0.00234996
-0.00127841
0.00229321
-0.00143292
0.00214111
-0.00156619
0.00183464
-0.00166753
0.00145083
-0.00174127
0.00098725
-0.00178419
0.000417115
-0.00175922
-0.000305626
-0.00167445
-0.00107409
-0.00159394
-0.00171519
-0.00156141
-0.00218147
-0.00159034
-0.00247787
-0.00167477
-0.00261254
-0.0017787
-0.00257779
-0.00175411
-0.002369
-0.0015392
-0.00211788
-0.00121351
-0.00201849
-0.000847419
-0.00215744
-0.000438588
-0.00240654
-0.000203171
-0.00193197
-7.52752e-05
-0.00147649
4.04759e-05
-0.00121589
0.000222833
-0.00102406
0.000429566
-0.000909786
0.000641539
-0.00084139
0.000855752
-0.000780074
0.001069
-0.000686386
0.00126837
-0.000516556
0.0014226
-0.000226037
0.00148807
0.000178248
0.00148376
0.00059762
0.00146785
0.001023
0.00150229
0.00143465
0.00161213
0.00193314
0.00205769
0.00211882
0.00231646
0.00121567
0.00192352
0.000855716
0.000402825
-0.000977414
0.0117204
-0.00111952
0.00419706
-0.000356801
0.0015873
-0.000206218
0.00214268
-0.000310224
0.00224516
-0.000381853
0.00190633
-0.000370799
0.00143983
-0.000309265
0.000925766
-0.000205291
0.000313192
-8.72287e-05
-0.000423638
2.48387e-07
-0.00116152
1.36368e-05
-0.00172853
-5.68471e-05
-0.00211094
-0.000200914
-0.00233376
-0.000393782
-0.00241963
-0.000586161
-0.00238537
-0.000701537
-0.00225358
-0.000719237
-0.00210013
-0.000682179
-0.0020555
-0.000587519
-0.00225205
-0.00034953
-0.00264448
-0.000244067
-0.00203738
-0.000222794
-0.00149771
-0.000205653
-0.00123298
-0.000151877
-0.00107779
-7.11557e-05
-0.000990454
2.99949e-05
-0.000942487
0.000151319
-0.000901345
0.000297997
-0.00083301
0.000480529
-0.000699036
0.000706609
-0.000452064
0.000921782
-3.68715e-05
0.00109865
0.000420804
0.00129363
0.000828079
0.00158237
0.00114597
0.00204979
0.00146577
0.00277632
0.00139234
0.00337603
0.000616011
0.00344281
0.000788993
0.00391964
0.00210159
0.0101571
0.00252103
0.00377768
0.00235463
0.00175374
0.00208306
0.00241431
0.00173854
0.00258973
0.00153638
0.00210853
0.00151448
0.00146178
0.00160983
0.000830463
0.00180668
0.0001164
0.0019828
-0.000599713
0.00199303
-0.0011717
0.00185498
-0.00159042
0.00161108
-0.001867
0.00129742
-0.00202004
0.000947898
-0.00207006
0.000601377
-0.0020388
0.00030016
-0.00195232
5.72679e-05
-0.0018572
-0.000151166
-0.00184703
-0.000303718
-0.00209946
-0.000222754
-0.0027254
-0.000253637
-0.00200645
-0.000368116
-0.00138318
-0.000483136
-0.00111791
-0.000571894
-0.000988973
-0.000638866
-0.000923429
-0.000689243
-0.000892057
-0.000721787
-0.000868749
-0.000728157
-0.000826588
-0.000688021
-0.00073912
-0.000560423
-0.00057961
-0.00027503
-0.000322211
6.99746e-05
7.58527e-05
0.000413052
0.000485055
0.000788143
0.000770936
0.00125119
0.00100277
0.00169788
0.000945708
0.00177701
0.000536931
0.000887827
0.00167822
0.00512661
0.0107505
0.0145242
0.0119758
0.0043022
0.009801
0.00458916
0.00804505
0.00434574
0.0068369
0.00331673
0.00606096
0.00223777
0.00559609
0.00129539
0.0052108
0.000501737
0.00477123
-0.000160088
0.0042875
-0.000687926
0.00377317
-0.00107604
0.0032384
-0.00133219
0.00269483
-0.00147642
0.00215742
-0.00153261
0.00164325
-0.00152459
0.00116714
-0.00147617
0.000727769
-0.00141778
0.00030219
-0.00142141
-5.82374e-05
-0.00173899
-8.32526e-05
-0.00270034
-0.000232733
-0.00185692
-0.000510433
-0.00110542
-0.000774478
-0.000853809
-0.00100528
-0.000758113
-0.00122356
-0.000705101
-0.00144495
-0.000670616
-0.0016778
-0.000635843
-0.00192886
-0.000575479
-0.00220529
-0.000462637
-0.00251311
-0.000271742
-0.00286247
2.72073e-05
-0.00322875
0.000442183
-0.00371407
0.000970423
-0.00452067
0.00157759
-0.005707
0.00218915
-0.00736534
0.00260409
-0.00930705
0.00247869
-0.00860197
0.000973194
-0.00311893
0.00512758
0.00511797
0.00481007
0.00490669
0.00562605
0.00352979
0.00599237
0.00295044
0.0060619
0.00216829
0.00602435
0.00133298
0.00589426
0.000631872
0.00563044
0.000103774
0.00522191
-0.000279353
0.0047086
-0.000562694
0.00413323
-0.000756782
0.00353155
-0.000874694
0.00293044
-0.000931462
0.00234767
-0.000941781
0.00179023
-0.000918689
0.00124366
-0.000871177
0.000657565
-0.000835274
0.000130443
-0.00121183
-1.56049e-05
-0.00255425
-0.000287537
-0.00158493
-0.000722261
-0.000670648
-0.00107776
-0.000498252
-0.00137068
-0.000465147
-0.00165628
-0.000419443
-0.00195526
-0.000371586
-0.00226864
-0.000322414
-0.00258603
-0.000258032
-0.00288593
-0.000162693
-0.00313116
-2.64634e-05
-0.00330524
0.000201341
-0.00342585
0.000562845
-0.00352464
0.00106926
-0.00362701
0.00168001
-0.00368686
0.00224905
-0.00359896
0.00251624
-0.00314535
0.00202513
-0.00176645
-0.000405658
-0.00479322
-0.000654242
0.00581571
0.00153805
0.00271442
0.00279999
0.00226788
0.00375278
0.00199768
0.00451443
0.00140668
0.00497785
0.00086959
0.00515694
0.000452824
0.00510644
0.000154307
0.00489081
-6.36855e-05
0.0045522
-0.000224041
0.00412788
-0.00033242
0.00365214
-0.00039892
0.00315149
-0.000430764
0.00264486
-0.000435114
0.00214395
-0.000417745
0.00164973
-0.000376915
0.00113541
-0.000320917
0.000539735
-0.000616112
-0.000234262
-0.0017802
-0.000836022
-0.000983124
-0.00123202
-0.000274597
-0.00151887
-0.000211346
-0.00174918
-0.00023479
-0.00195377
-0.000214798
-0.0021449
-0.000180405
-0.00232552
-0.000141738
-0.00249123
-9.22724e-05
-0.00263194
-2.19365e-05
-0.00272793
6.95792e-05
-0.00272148
0.000194941
-0.00256414
0.000405558
-0.00222274
0.000727912
-0.00171461
0.00117193
-0.00104541
0.00157989
2.00404e-05
0.00145085
0.00135792
0.000687296
0.00161316
-0.000660843
-0.00307877
-0.00883546
-0.011313
-0.00545944
-0.00272235
-0.000436438
0.00157629
0.00299736
0.00388133
0.00434888
0.00451847
0.00447074
0.00426329
0.00394814
0.00356721
0.00315521
0.00273972
0.0023425
0.00198701
0.00168836
0.0010953
-0.00066129
-0.00162182
-0.0018745
-0.00206418
-0.00227746
-0.00247096
-0.00263036
-0.00275148
-0.0028236
-0.00282596
-0.0027375
-0.00252444
-0.00210157
-0.00135719
-0.000169651
0.00142471
0.00288957
0.00359102
0.00294507
)
;

boundaryField
{
    floor
    {
        type            calculated;
        value           nonuniform List<scalar> 
29
(
0
0
0
0
0
0
0
0
0
0
0
0
0
0
0
0
0
0
0
0
-5.82404e-06
-1.47465e-05
-2.19245e-05
-2.82511e-05
-2.66063e-06
-4.11695e-06
-1.04791e-05
-1.37398e-05
-1.3056e-05
)
;
    }
    ceiling
    {
        type            calculated;
        value           nonuniform List<scalar> 
43
(
-4.02112e-05
-3.90456e-05
-3.77994e-05
-2.26497e-05
-1.79988e-05
-1.50135e-05
-1.43588e-05
-1.43465e-05
-1.46857e-05
-1.52483e-05
-1.59105e-05
-1.65571e-05
-1.72294e-05
-1.79506e-05
-1.87343e-05
-1.95827e-05
-2.04808e-05
-2.13852e-05
-2.22299e-05
-2.30141e-05
-2.35678e-05
-2.25465e-05
-2.18623e-05
-2.16129e-05
-2.14551e-05
-2.12459e-05
-2.0955e-05
-2.05741e-05
-2.00988e-05
-1.95248e-05
-1.88333e-05
-1.8071e-05
-1.72569e-05
-1.64144e-05
-1.55614e-05
-1.44214e-05
-1.39703e-05
-1.41064e-05
-1.48419e-05
-1.51267e-05
6.83683e-06
4.05132e-06
-4.34948e-05
)
;
    }
    sWall
    {
        type            calculated;
        value           uniform -0.000246077;
    }
    nWall
    {
        type            calculated;
        value           nonuniform List<scalar> 6(-5.82185e-05 -6.91788e-05 -7.39618e-05 -9.21036e-05 -0.000101243 -0.000118524);
    }
    sideWalls
    {
        type            empty;
        value           nonuniform 0();
    }
    glass1
    {
        type            calculated;
        value           nonuniform List<scalar> 9(-6.65897e-05 -0.000175701 -0.000262973 -0.000333492 -0.000391807 -0.000441212 -0.000484175 -0.00053825 -0.000600271);
    }
    glass2
    {
        type            calculated;
        value           nonuniform List<scalar> 2(-0.000319094 -0.000356387);
    }
    sun
    {
        type            calculated;
        value           uniform 0;
    }
    heatsource1
    {
        type            calculated;
        value           nonuniform List<scalar> 3(2.05699e-07 2.05558e-07 2.05569e-07);
    }
    heatsource2
    {
        type            calculated;
        value           nonuniform List<scalar> 4(5.12415e-08 5.15016e-08 0 0);
    }
    Table_master
    {
        type            calculated;
        value           nonuniform List<scalar> 9(-1.54307e-07 -1.54435e-07 -1.54463e-07 -1.54477e-07 -1.54485e-07 -1.54489e-07 -1.54489e-07 -1.54483e-07 -1.54454e-07);
    }
    Table_slave
    {
        type            calculated;
        value           nonuniform List<scalar> 9(1.54416e-07 1.5433e-07 1.54223e-07 1.54128e-07 1.54054e-07 1.54014e-07 1.54024e-07 1.54039e-07 1.54116e-07);
    }
    inlet
    {
        type            calculated;
        value           uniform -0.00594336;
    }
    outlet
    {
        type            calculated;
        value           nonuniform List<scalar> 2(0.00912176 0.00251657);
    }
}


// ************************************************************************* //
