/*--------------------------------*- C++ -*----------------------------------*\
  =========                 |
  \\      /  F ield         | OpenFOAM: The Open Source CFD Toolbox
   \\    /   O peration     | Website:  https://openfoam.org
    \\  /    A nd           | Version:  6
     \\/     M anipulation  |
\*---------------------------------------------------------------------------*/
FoamFile
{
    version     2.0;
    format      ascii;
    class       volScalarField;
    location    "300";
    object      nut;
}
// * * * * * * * * * * * * * * * * * * * * * * * * * * * * * * * * * * * * * //

dimensions      [0 2 -1 0 0 0 0];

internalField   nonuniform List<scalar> 
459
(
0.00108103
0.00117916
0.00119749
0.00125407
0.0013066
0.00135571
0.00140377
0.00145032
0.00148239
0.0014944
0.00148127
0.00143978
0.00136999
0.00127815
0.00117969
0.000461074
0.000558585
0.000624199
0.000619054
0.000597396
0.000569409
0.000534143
0.000499125
0.000467272
0.000438954
0.000413869
0.00039168
0.000372015
0.000354343
0.0003381
0.00032251
0.000306593
0.000300667
0.000278244
0.00148294
0.00361766
0.0034531
0.00401672
0.00456332
0.00510943
0.00558961
0.00595093
0.00627495
0.00653395
0.00669011
0.00669915
0.00649674
0.00592381
0.00440315
0.00119265
0.000715309
0.000500672
0.00102068
0.00140962
0.00170109
0.00186463
0.00186794
0.00150975
0.00130801
0.00116305
0.00105114
0.00096159
0.000887219
0.000821788
0.000762234
0.000706349
0.000657234
0.000612352
0.000751777
0.000382849
0.00181642
0.00494515
0.00427061
0.00537884
0.00591058
0.00630135
0.00660547
0.00684908
0.00711145
0.00738138
0.00762559
0.00779202
0.00782783
0.007664
0.00710961
0.00545555
0.00118567
0.000988966
0.00140708
0.00179103
0.00215102
0.00240975
0.00234967
0.000767139
0.000677316
0.000605841
0.000548566
0.000502125
0.000463998
0.000432397
0.000406159
0.000384886
0.000419303
0.00048846
0.000856262
0.000452962
0.00213521
0.00633263
0.00428348
0.00569413
0.00616542
0.00632007
0.0064238
0.00655088
0.00676076
0.00703808
0.00735244
0.00763307
0.00782454
0.00787606
0.00771502
0.00711869
0.0052485
0.00141272
0.00175428
0.00225954
0.00274957
0.00315014
0.00340789
0.00318689
0.000871754
0.000797077
0.000746134
0.000708923
0.000677526
0.000645908
0.000615282
0.000582459
0.000543457
0.000511189
0.000526924
0.0010214
0.000503126
0.00245831
0.00810237
0.00471715
0.00548559
0.00611611
0.00615335
0.00610712
0.00617356
0.00635889
0.00663807
0.00699536
0.00732932
0.0075665
0.00764843
0.0075614
0.00727556
0.00664174
0.00545696
0.00504413
0.00491713
0.00489497
0.00490566
0.00489503
0.00472849
0.00399034
0.00365832
0.00347142
0.00332446
0.00316569
0.00295692
0.00262241
0.00220709
0.00174893
0.00130492
0.000970325
0.000994277
0.000700274
0.000616352
0.000737088
0.000830145
0.00279881
0.0100183
0.00648451
0.00545206
0.00594379
0.0061584
0.00601577
0.00606509
0.0062045
0.00645856
0.00681091
0.0071756
0.00743837
0.00751462
0.00738983
0.00711841
0.00678674
0.0064607
0.00628994
0.00618551
0.00608198
0.00596643
0.00582215
0.00560624
0.00525817
0.00494361
0.0046653
0.0044032
0.00414572
0.00388503
0.00357441
0.00316518
0.00266091
0.00209773
0.00159493
0.00118164
0.000955236
0.000833491
0.00118527
0.000873638
0.00310834
0.0113603
0.00909005
0.00697849
0.00659634
0.00654454
0.00633395
0.00619474
0.00623281
0.00647182
0.00685434
0.0072555
0.00752857
0.00757279
0.0073808
0.00705415
0.00677895
0.00668856
0.00671866
0.00669387
0.00655486
0.00632177
0.00601224
0.00563947
0.00523772
0.00486365
0.00453259
0.00424011
0.00398581
0.00377174
0.00359501
0.00337793
0.00302344
0.00255407
0.00209104
0.00167143
0.00140444
0.00136699
0.00143162
0.00103228
0.0031677
0.0101314
0.00897426
0.00824719
0.00767498
0.0069866
0.00641924
0.0061732
0.00627338
0.00664353
0.00714286
0.00759294
0.00782557
0.00775945
0.00743259
0.00701147
0.00675726
0.00678034
0.00682396
0.00665244
0.00630815
0.00585349
0.00534711
0.00485237
0.00442141
0.00407299
0.0037993
0.00359072
0.00344253
0.00335304
0.00332184
0.0033297
0.00323615
0.00296104
0.00273154
0.00267282
0.00292126
0.00345213
0.00410918
0.00155393
0.00308251
0.00365469
0.00406706
0.00418916
0.00426211
0.0044633
0.00488997
0.00555195
0.00636966
0.00719702
0.00787681
0.00825651
0.00822657
0.00782525
0.00723055
0.00678551
0.00657149
0.00644658
0.00621258
0.00579442
0.00524057
0.00464543
0.00409853
0.0036587
0.00333604
0.00310816
0.00294678
0.00282998
0.00274147
0.0026685
0.00260144
0.00253505
0.00248287
0.00244706
0.00244129
0.0024508
0.00241101
0.00227519
0.00210198
0.00143741
0.00156097
0.00316252
0.00496206
0.00646377
0.0076367
0.00853214
0.00909402
0.00930722
0.00920157
0.00875239
0.00801317
0.00709323
0.00630057
0.00583495
0.00554883
0.00521152
0.00473655
0.00416973
0.00361377
0.00314215
0.00279058
0.00255907
0.00241819
0.00233763
0.00229568
0.00227856
0.00227782
0.00228899
0.00231106
0.00235065
0.00239581
0.00244039
0.00247477
0.00247154
0.00239087
0.0022315
0.00199391
0.00117658
0.0020523
0.00513957
0.00771174
0.0085368
0.00894042
0.00902792
0.00875862
0.00818779
0.0074187
0.00654927
0.00571998
0.00498758
0.00443787
0.00404505
0.00366041
0.00321761
0.00275964
0.00236242
0.0020729
0.00189185
0.00179347
0.00174496
0.00173822
0.00176219
0.00180975
0.00187613
0.00195699
0.00204646
0.00214432
0.00225356
0.00237057
0.00248601
0.00258166
0.0026491
0.00262017
0.00262255
0.00251463
0.00119498
0.00182064
0.00192666
0.00200321
0.00214419
0.00205534
0.00194062
0.00186433
0.0017731
0.00165234
0.00150647
0.0013437
0.00117365
0.00100612
0.000858601
0.000744618
0.000662547
0.000604498
0.000564328
0.000538834
0.000526108
0.00052417
0.000530937
0.000544763
0.000564649
0.000588792
0.000616874
0.000648875
0.000685025
0.000725937
0.0007729
0.000826638
0.000885915
0.00095117
0.00102276
0.00109986
0.00119959
0.0012171
0.00117894
0.00110431
0.00101956
)
;

boundaryField
{
    floor
    {
        type            nutkWallFunction;
        Cmu             0.09;
        kappa           0.41;
        E               9.8;
        value           nonuniform List<scalar> 
29
(
0.000141658
5.4713e-05
6.71489e-05
7.53655e-05
7.47263e-05
7.20244e-05
6.85147e-05
6.40615e-05
5.96035e-05
5.55145e-05
5.18501e-05
4.85792e-05
4.56647e-05
4.30642e-05
4.07122e-05
3.8537e-05
3.64363e-05
3.4278e-05
3.34704e-05
3.03958e-05
3.03957e-05
4.44967e-05
5.36634e-05
6.01111e-05
0.000141658
5.47129e-05
5.97976e-05
0.000119421
0.000168293
)
;
    }
    ceiling
    {
        type            nutkWallFunction;
        Cmu             0.09;
        kappa           0.41;
        E               9.8;
        value           nonuniform List<scalar> 
43
(
0.000213649
0.000225266
0.000233614
0.000248995
0.00023941
0.000226928
0.000218583
0.000208547
0.00019517
0.000178865
0.000160462
0.000140966
0.000121445
0.000103945
9.01847e-05
8.01225e-05
7.29148e-05
6.78775e-05
6.46572e-05
6.3042e-05
6.27945e-05
6.36526e-05
6.5403e-05
6.79116e-05
7.09434e-05
7.44509e-05
7.84246e-05
8.28855e-05
8.79001e-05
9.36155e-05
0.000100105
0.000107207
0.000114962
0.0001234
0.000132411
0.000143962
0.000145978
0.00014158
0.000132929
0.000123024
0.000348722
0.000407796
0.000238825
)
;
    }
    sWall
    {
        type            nutkWallFunction;
        Cmu             0.09;
        kappa           0.41;
        E               9.8;
        value           uniform 0.000213709;
    }
    nWall
    {
        type            nutkWallFunction;
        Cmu             0.09;
        kappa           0.41;
        E               9.8;
        value           nonuniform List<scalar> 6(0.000100529 0.000105744 0.000124523 0.000141318 0.000143441 0.000123031);
    }
    sideWalls
    {
        type            empty;
    }
    glass1
    {
        type            nutkWallFunction;
        Cmu             0.09;
        kappa           0.41;
        E               9.8;
        value           nonuniform List<scalar> 9(0.000130323 0.000176448 0.000213642 0.000248503 0.000283268 0.000319387 0.000351824 0.000358017 0.000349157);
    }
    glass2
    {
        type            nutkWallFunction;
        Cmu             0.09;
        kappa           0.41;
        E               9.8;
        value           nonuniform List<scalar> 2(0.000184273 0.000171159);
    }
    sun
    {
        type            nutkWallFunction;
        Cmu             0.09;
        kappa           0.41;
        E               9.8;
        value           nonuniform List<scalar> 
14
(
0.00013022
0.000141605
0.00014372
0.000150226
0.000156236
0.000161831
0.000167284
0.000172547
0.00017616
0.000177511
0.000176032
0.000171353
0.000163448
0.000152977
)
;
    }
    heatsource1
    {
        type            nutkWallFunction;
        Cmu             0.09;
        kappa           0.41;
        E               9.8;
        value           nonuniform List<scalar> 3(7.43887e-05 8.92624e-05 0.000100528);
    }
    heatsource2
    {
        type            nutkWallFunction;
        Cmu             0.09;
        kappa           0.41;
        E               9.8;
        value           nonuniform List<scalar> 4(0.000143151 8.65963e-05 8.65963e-05 0.000142352);
    }
    Table_master
    {
        type            nutkWallFunction;
        Cmu             0.09;
        kappa           0.41;
        E               9.8;
        value           nonuniform List<scalar> 9(9.29222e-05 8.19429e-05 7.3082e-05 6.589e-05 5.9991e-05 5.50976e-05 5.10037e-05 4.75761e-05 4.47764e-05);
    }
    Table_slave
    {
        type            nutkWallFunction;
        Cmu             0.09;
        kappa           0.41;
        E               9.8;
        value           nonuniform List<scalar> 9(0.000105521 9.65469e-05 9.03687e-05 8.58243e-05 8.19677e-05 7.80624e-05 7.42575e-05 7.01542e-05 6.52417e-05);
    }
    inlet
    {
        type            calculated;
        value           uniform 0.000100623;
    }
    outlet
    {
        type            calculated;
        value           nonuniform List<scalar> 2(0.00182064 0.00192666);
    }
}


// ************************************************************************* //
