/*--------------------------------*- C++ -*----------------------------------*\
  =========                 |
  \\      /  F ield         | OpenFOAM: The Open Source CFD Toolbox
   \\    /   O peration     | Website:  https://openfoam.org
    \\  /    A nd           | Version:  6
     \\/     M anipulation  |
\*---------------------------------------------------------------------------*/
FoamFile
{
    version     2.0;
    format      ascii;
    class       volScalarField;
    location    "1300";
    object      alphat;
}
// * * * * * * * * * * * * * * * * * * * * * * * * * * * * * * * * * * * * * //

dimensions      [1 -1 -1 0 0 0 0];

internalField   nonuniform List<scalar> 
459
(
0.00207234
0.00271301
0.00272569
0.00262134
0.00250856
0.00240483
0.00230999
0.00222205
0.00214209
0.00206623
0.00199119
0.00191336
0.00182758
0.00172393
0.00159544
0.000591119
0.000720118
0.000826213
0.000947797
0.0010178
0.00103514
0.000958667
0.000874608
0.000798533
0.000728693
0.000664216
0.000603315
0.000545304
0.00049176
0.000444785
0.000405163
0.000373152
0.00034101
0.000382473
0.00236789
0.00430277
0.00491459
0.00494403
0.00480312
0.0046716
0.00456844
0.00448439
0.00436657
0.00420719
0.00399375
0.00371051
0.00333902
0.00285516
0.00224498
0.00158666
0.00142375
0.000670735
0.00154123
0.00201431
0.00257465
0.00310041
0.00328721
0.00218989
0.00177597
0.00153393
0.00138667
0.00125992
0.0011318
0.00101653
0.000919009
0.000841719
0.000798393
0.000824639
0.000718511
0.00047573
0.00313507
0.0054399
0.00562381
0.00534187
0.00514993
0.00513815
0.0052328
0.00536276
0.00544119
0.00540954
0.00523104
0.00489083
0.00439302
0.00375582
0.00302421
0.002306
0.00145464
0.000774344
0.0023026
0.00213765
0.00255067
0.00328084
0.00364858
0.00123707
0.00105597
0.000892112
0.000760725
0.000667071
0.000603614
0.000557877
0.000523246
0.000497471
0.00055475
0.000708162
0.000793079
0.000525994
0.00333119
0.00715252
0.00629803
0.00542766
0.00529573
0.00565848
0.00620854
0.00660723
0.00673049
0.00660261
0.00627154
0.00577739
0.00515322
0.00442633
0.00363235
0.00283456
0.00191879
0.00140623
0.00125891
0.00137089
0.00185264
0.00275561
0.0038483
0.00446215
0.00147183
0.00138809
0.00131647
0.0012527
0.00119795
0.00114458
0.00108707
0.00102081
0.000939073
0.000762134
0.000701221
0.000827012
0.000588315
0.00342097
0.00815152
0.00609527
0.00521022
0.00592963
0.0072089
0.00803387
0.00806647
0.00782178
0.00743686
0.00694141
0.00634112
0.0056629
0.00492441
0.00415367
0.00339405
0.00262244
0.00218984
0.00200955
0.00216586
0.00292094
0.00416428
0.00548207
0.00644206
0.00646367
0.00629428
0.00613423
0.00598924
0.00562846
0.00508514
0.00439062
0.00356884
0.00264659
0.00173057
0.00116652
0.00104272
0.000847901
0.000672822
0.0006919
0.00080994
0.00346751
0.00793739
0.00529276
0.00592384
0.00767735
0.00862044
0.00887674
0.00868541
0.00826975
0.00780271
0.00728892
0.00667631
0.00604163
0.00537321
0.00469006
0.00405487
0.00347148
0.00321849
0.00338413
0.00418167
0.00558305
0.00709236
0.00828605
0.00896346
0.00914261
0.00910193
0.00895231
0.00856238
0.00793381
0.00707913
0.00602892
0.00483206
0.00355865
0.00237693
0.00161661
0.00134606
0.00119791
0.00123681
0.0016011
0.00105525
0.00350024
0.00674284
0.00459498
0.00573344
0.00784289
0.00880696
0.00898222
0.00881992
0.00847223
0.00803025
0.00756915
0.00708048
0.00657059
0.00603948
0.00547167
0.00505662
0.00484283
0.00522157
0.0063264
0.0079624
0.00948273
0.0105823
0.0111484
0.011225
0.0109822
0.0106188
0.0101234
0.00947753
0.0086437
0.00761239
0.0064148
0.00513053
0.00385226
0.00275178
0.00202587
0.00170153
0.00147167
0.00163922
0.00240649
0.00141317
0.00351254
0.00540283
0.00465609
0.00582189
0.00719516
0.00824309
0.00859114
0.00869787
0.00865745
0.00846781
0.00817029
0.00784628
0.00752653
0.00723612
0.0070188
0.00702787
0.0074886
0.00866316
0.0102521
0.0117194
0.0125337
0.0128054
0.0126218
0.0121039
0.011386
0.0106314
0.00987722
0.00906509
0.00815292
0.00713445
0.00604024
0.00493824
0.00391615
0.00308554
0.00252204
0.00217528
0.0019185
0.00220374
0.00461823
0.0024473
0.00350799
0.00395643
0.00511768
0.00754553
0.0073802
0.00800518
0.00833135
0.00858557
0.00878716
0.00890819
0.00891863
0.00887487
0.00886286
0.00893301
0.00915279
0.00962269
0.0104409
0.0115529
0.0125916
0.0131965
0.0132162
0.0127428
0.0119424
0.0109907
0.010041
0.00916582
0.0083526
0.00755681
0.00675496
0.00595439
0.0051878
0.00450388
0.00395042
0.0035622
0.00333701
0.00322555
0.00317456
0.00371523
0.00698186
0.00283735
0.0049347
0.00907177
0.00839594
0.00848812
0.00869831
0.00897195
0.0092591
0.00952659
0.00974112
0.00988846
0.0100792
0.0103534
0.0107304
0.011206
0.0117277
0.0121486
0.0122936
0.0120691
0.0115173
0.0107766
0.00998757
0.00924375
0.00858927
0.00802208
0.00751847
0.00705989
0.0066436
0.00627961
0.00598429
0.00577375
0.00565662
0.0056264
0.0056509
0.00566461
0.00560379
0.00585258
0.00774248
0.00254029
0.00312066
0.00901769
0.00937634
0.0091637
0.0091339
0.0091957
0.00927073
0.00932682
0.00935489
0.00935975
0.00942309
0.00957092
0.00979121
0.0100499
0.0102858
0.010417
0.0103841
0.0101857
0.0098723
0.0095116
0.00915663
0.00883559
0.00855547
0.00831075
0.00809451
0.00790505
0.00774662
0.00762734
0.00755656
0.00754166
0.00758296
0.00766496
0.00774296
0.00773735
0.00757614
0.00730441
0.00643666
0.00221205
0.00111024
0.00161959
0.00217616
0.00224931
0.00220178
0.00216312
0.00215151
0.00215056
0.00215526
0.00216607
0.00218537
0.00221645
0.00225103
0.00228599
0.002319
0.00234643
0.00236388
0.00236753
0.00235678
0.00233462
0.00230653
0.0022781
0.00225288
0.00223208
0.00221553
0.00220263
0.00219295
0.00218644
0.00218342
0.00218438
0.0021897
0.00219932
0.00221208
0.00222527
0.00223576
0.00224571
0.00226696
0.00229738
0.00224906
0.0019438
)
;

boundaryField
{
    floor
    {
        type            compressible::alphatWallFunction;
        Prt             0.85;
        value           nonuniform List<scalar> 
29
(
0.000223997
8.32534e-05
0.000102373
0.000117782
0.000135154
0.000145032
0.000147465
0.000136689
0.000124727
0.000113779
0.000103615
9.41271e-05
8.50609e-05
7.63227e-05
6.81605e-05
6.09151e-05
5.4734e-05
4.96876e-05
4.45649e-05
5.12247e-05
5.1224e-05
6.58145e-05
7.3525e-05
8.29531e-05
0.000223995
8.32525e-05
9.5162e-05
0.000110382
0.000198562
)
;
    }
    ceiling
    {
        type            compressible::alphatWallFunction;
        Prt             0.85;
        value           nonuniform List<scalar> 
43
(
0.000159014
0.000227992
0.000300522
0.00030995
0.000303828
0.000298837
0.000297336
0.000297211
0.000297818
0.000299213
0.000301705
0.000305714
0.000310169
0.000314667
0.000318908
0.00032243
0.00032467
0.000325145
0.000323775
0.000320942
0.000317344
0.000313696
0.000310455
0.000307779
0.000305649
0.000303986
0.000302737
0.000301897
0.000301508
0.000301632
0.000302319
0.000303561
0.000305208
0.00030691
0.000308263
0.000309544
0.000312276
0.000316181
0.000309965
0.000270382
0.000467556
0.000522252
0.00041993
)
;
    }
    sWall
    {
        type            compressible::alphatWallFunction;
        Prt             0.85;
        value           uniform 0.000158565;
    }
    nWall
    {
        type            compressible::alphatWallFunction;
        Prt             0.85;
        value           nonuniform List<scalar> 6(0.000115554 0.000150452 0.000199771 0.000347028 0.000305032 0.000270222);
    }
    sideWalls
    {
        type            empty;
    }
    glass1
    {
        type            compressible::alphatWallFunction;
        Prt             0.85;
        value           nonuniform List<scalar> 9(0.000282231 0.000320151 0.00041564 0.000439631 0.000450526 0.000456103 0.000459961 0.000461274 0.000460428);
    }
    glass2
    {
        type            compressible::alphatWallFunction;
        Prt             0.85;
        value           nonuniform List<scalar> 2(0.000336366 0.000385841);
    }
    sun
    {
        type            compressible::alphatWallFunction;
        Prt             0.85;
        value           nonuniform List<scalar> 
14
(
0.000286718
0.000368633
0.00037021
0.000357031
0.00034273
0.000329515
0.000317379
0.00030608
0.000295763
0.000285938
0.000276179
0.000266014
0.00025476
0.000241081
)
;
    }
    heatsource1
    {
        type            compressible::alphatWallFunction;
        Prt             0.85;
        value           nonuniform List<scalar> 3(9.53552e-05 9.81769e-05 0.000115376);
    }
    heatsource2
    {
        type            compressible::alphatWallFunction;
        Prt             0.85;
        value           nonuniform List<scalar> 4(0.000222746 0.000200846 0.000200844 0.000205015);
    }
    Table_master
    {
        type            compressible::alphatWallFunction;
        Prt             0.85;
        value           nonuniform List<scalar> 9(0.000175334 0.000150224 0.000127079 0.000108165 9.44499e-05 8.50195e-05 7.81441e-05 7.28903e-05 6.89509e-05);
    }
    Table_slave
    {
        type            compressible::alphatWallFunction;
        Prt             0.85;
        value           nonuniform List<scalar> 9(0.000207277 0.000195961 0.000186221 0.000177498 0.000169968 0.00016259 0.000154596 0.000145323 0.000133785);
    }
    inlet
    {
        type            fixedValue;
        value           uniform 1.94e-05;
    }
    outlet
    {
        type            zeroGradient;
    }
}


// ************************************************************************* //
