/*--------------------------------*- C++ -*----------------------------------*\
  =========                 |
  \\      /  F ield         | OpenFOAM: The Open Source CFD Toolbox
   \\    /   O peration     | Website:  https://openfoam.org
    \\  /    A nd           | Version:  6
     \\/     M anipulation  |
\*---------------------------------------------------------------------------*/
FoamFile
{
    version     2.0;
    format      ascii;
    class       volScalarField;
    location    "500";
    object      nut;
}
// * * * * * * * * * * * * * * * * * * * * * * * * * * * * * * * * * * * * * //

dimensions      [0 2 -1 0 0 0 0];

internalField   nonuniform List<scalar> 
459
(
0.000764605
0.000805104
0.00080235
0.000828255
0.000849751
0.000867574
0.000882684
0.000895988
0.000908406
0.000919707
0.000926542
0.000927563
0.000922603
0.000914131
0.000904593
0.000560122
0.000524468
0.000497515
0.000477244
0.000460445
0.000445281
0.000430839
0.000417416
0.000405098
0.000393659
0.000382948
0.000372832
0.000363165
0.000353737
0.000344209
0.000334062
0.000322316
0.000312406
0.000288712
0.00111944
0.00188196
0.00163847
0.00187313
0.00201912
0.00217284
0.00232436
0.00246012
0.00256015
0.00261507
0.00263335
0.00258511
0.00242815
0.002105
0.00154903
0.00091601
0.000823947
0.000661457
0.000840734
0.00094576
0.00101793
0.00105988
0.00106667
0.000981429
0.000926232
0.000876909
0.000831723
0.000789374
0.000748611
0.00070737
0.000662183
0.000610257
0.000563002
0.000524297
0.000620448
0.000357862
0.00144067
0.00268625
0.00182317
0.00254276
0.00273065
0.00286406
0.00296188
0.00303431
0.00308912
0.00312832
0.00315647
0.00314899
0.00307681
0.00291375
0.00262265
0.00207989
0.000977341
0.000736633
0.00112439
0.00130046
0.00142601
0.00151029
0.00144745
0.000492208
0.000452686
0.000420655
0.000394667
0.000373414
0.000355883
0.000341426
0.000329842
0.000321671
0.000363858
0.000431083
0.000705688
0.000411689
0.00177533
0.00391843
0.00172778
0.00278664
0.00303378
0.00310743
0.00312536
0.00312389
0.00312992
0.00315231
0.00318691
0.00320698
0.00318395
0.00310257
0.00296293
0.00275584
0.00233895
0.0008682
0.00134243
0.00155286
0.00167089
0.00178521
0.00188228
0.00177362
0.000539879
0.000525887
0.000521032
0.000518044
0.000511877
0.000499321
0.000485561
0.00046899
0.000446682
0.000423567
0.000438286
0.000819924
0.000456915
0.00212631
0.00563996
0.00199038
0.00263992
0.00312046
0.00317338
0.00313612
0.0030799
0.00305579
0.00308021
0.00314263
0.00319924
0.00320592
0.00313187
0.00296897
0.00277321
0.00267562
0.00251743
0.0021655
0.00199694
0.00195101
0.0020015
0.00208768
0.00215489
0.00207025
0.00209143
0.00212455
0.00213671
0.00211175
0.0020383
0.00185826
0.00160731
0.00131055
0.000987873
0.000734545
0.000799563
0.000564901
0.000611138
0.000731983
0.000811352
0.00249572
0.0075647
0.0033242
0.00228176
0.00291503
0.00311359
0.00311686
0.00304243
0.00297568
0.00299583
0.0031066
0.00320489
0.00324184
0.00317361
0.00296857
0.00268921
0.00252937
0.00244371
0.00222862
0.00206974
0.0020136
0.00203529
0.00212414
0.00224632
0.00236374
0.00247199
0.00255178
0.00259418
0.00259552
0.00255442
0.00243148
0.00221137
0.00189472
0.00150056
0.00113376
0.000867549
0.000708727
0.000663457
0.00100961
0.000841055
0.00287785
0.00917114
0.00611345
0.00312955
0.00241151
0.00246539
0.00271077
0.0029091
0.00291706
0.00299729
0.0031325
0.00323687
0.00327822
0.00320574
0.00296578
0.00262258
0.00241489
0.0023745
0.00222001
0.00207493
0.00199511
0.00201404
0.00211357
0.00224427
0.00237868
0.00249965
0.00258961
0.00264693
0.00267455
0.00267765
0.00265401
0.00249021
0.00219628
0.00181768
0.00146655
0.00114875
0.000953015
0.000915394
0.00098758
0.00089937
0.00298348
0.00919917
0.00751893
0.0058678
0.00435888
0.00339542
0.00301846
0.00304183
0.00314182
0.00319622
0.00325623
0.00331188
0.0033234
0.00321913
0.00292081
0.00250769
0.00228841
0.00232869
0.0022034
0.00203282
0.00194118
0.0019691
0.00205786
0.00216356
0.0022672
0.00235857
0.00243198
0.0024901
0.0025415
0.00259823
0.00266973
0.0027021
0.00246075
0.00214032
0.00187903
0.00177358
0.00189129
0.00240423
0.00331632
0.00148245
0.00293796
0.00358784
0.00404398
0.0042035
0.00410169
0.00381948
0.0035537
0.00340715
0.00332999
0.00332073
0.00335035
0.00337791
0.003348
0.00317622
0.0027728
0.00227395
0.00208749
0.00226309
0.00215578
0.00192952
0.0018348
0.00185171
0.00191088
0.00197792
0.00203865
0.00208559
0.00211463
0.00212422
0.00211394
0.00208353
0.00203336
0.00196625
0.00190138
0.00186766
0.00189189
0.00196502
0.00202219
0.00199487
0.00188474
0.00138495
0.0021069
0.00359665
0.00394476
0.00395027
0.00386315
0.00378076
0.00372097
0.00365599
0.00357915
0.00346844
0.00328618
0.0029592
0.00240679
0.00184663
0.00176761
0.0021524
0.00199864
0.00174639
0.00164398
0.00164076
0.00167202
0.00171156
0.00174904
0.00177936
0.00180028
0.00181194
0.00181692
0.00182025
0.00182925
0.00185272
0.00188391
0.00192805
0.00198304
0.00202448
0.00200909
0.00191452
0.00174473
0.0011393
0.00224444
0.00414202
0.00439368
0.00429508
0.00415936
0.00400744
0.0038395
0.00364342
0.00336163
0.00303511
0.00267263
0.00224346
0.00169511
0.00120412
0.00123293
0.00152878
0.00140839
0.0012364
0.00117652
0.00118197
0.00121628
0.0012663
0.00132723
0.00139682
0.00147354
0.00155562
0.00164026
0.00172282
0.00179862
0.00188179
0.0019726
0.00206963
0.00216375
0.00224129
0.00226161
0.00233503
0.00223606
0.00115319
0.00195663
0.00206551
0.0021562
0.00229989
0.00217968
0.00202151
0.00186697
0.00172327
0.00158102
0.00144356
0.00132885
0.00122239
0.00111623
0.00100266
0.000822738
0.000508126
0.000480448
0.000486765
0.000490178
0.000501743
0.000519698
0.00054141
0.000565577
0.000591669
0.000619457
0.000648875
0.00068001
0.000713153
0.0007489
0.000788358
0.00083312
0.000882105
0.000936066
0.000995994
0.00106287
0.00114837
0.00118024
0.00115759
0.00108519
0.00100768
)
;

boundaryField
{
    floor
    {
        type            nutkWallFunction;
        Cmu             0.09;
        kappa           0.41;
        E               9.8;
        value           nonuniform List<scalar> 
29
(
0.000109429
6.73459e-05
6.28332e-05
5.93971e-05
5.67977e-05
5.46334e-05
5.2671e-05
5.07945e-05
4.9043e-05
4.74296e-05
4.59257e-05
4.45124e-05
4.31729e-05
4.18885e-05
4.06316e-05
3.9357e-05
3.79944e-05
3.64105e-05
3.50682e-05
3.18358e-05
3.18357e-05
4.11813e-05
4.82928e-05
5.41762e-05
0.000109429
6.73458e-05
7.99835e-05
8.92076e-05
0.000105092
)
;
    }
    ceiling
    {
        type            nutkWallFunction;
        Cmu             0.09;
        kappa           0.41;
        E               9.8;
        value           nonuniform List<scalar> 
43
(
0.000228559
0.000240401
0.000250216
0.000265767
0.000252862
0.00023574
0.00021886
0.000203023
0.000187203
0.000171766
0.00015876
0.000146577
0.000134309
0.000121038
9.96648e-05
6.07618e-05
5.7214e-05
5.80252e-05
5.84618e-05
5.99404e-05
6.22283e-05
6.49824e-05
6.80321e-05
7.13071e-05
7.47758e-05
7.84275e-05
8.22709e-05
8.63391e-05
9.07018e-05
9.5489e-05
0.000100886
0.000106753
0.000113172
0.000120252
0.000128095
0.000138041
0.000141727
0.000139108
0.0001307
0.000121627
0.000333625
0.000400946
0.000259643
)
;
    }
    sWall
    {
        type            nutkWallFunction;
        Cmu             0.09;
        kappa           0.41;
        E               9.8;
        value           uniform 0.000228621;
    }
    nWall
    {
        type            nutkWallFunction;
        Cmu             0.09;
        kappa           0.41;
        E               9.8;
        value           nonuniform List<scalar> 6(9.82662e-05 0.00010184 0.000108815 0.000137 0.000138609 0.000121633);
    }
    sideWalls
    {
        type            empty;
    }
    glass1
    {
        type            nutkWallFunction;
        Cmu             0.09;
        kappa           0.41;
        E               9.8;
        value           nonuniform List<scalar> 9(9.25964e-05 0.000134803 0.000171668 0.000209103 0.000247541 0.000287266 0.00032771 0.000338797 0.000334043);
    }
    glass2
    {
        type            nutkWallFunction;
        Cmu             0.09;
        kappa           0.41;
        E               9.8;
        value           nonuniform List<scalar> 2(0.000176239 0.000165216);
    }
    sun
    {
        type            nutkWallFunction;
        Cmu             0.09;
        kappa           0.41;
        E               9.8;
        value           nonuniform List<scalar> 
14
(
9.26071e-05
9.75085e-05
9.71759e-05
0.000100297
0.000102878
0.000105012
0.000106818
0.000108404
0.000109883
0.000111226
0.000112038
0.000112159
0.00011157
0.000110564
)
;
    }
    heatsource1
    {
        type            nutkWallFunction;
        Cmu             0.09;
        kappa           0.41;
        E               9.8;
        value           nonuniform List<scalar> 3(7.37403e-05 8.86403e-05 9.8265e-05);
    }
    heatsource2
    {
        type            nutkWallFunction;
        Cmu             0.09;
        kappa           0.41;
        E               9.8;
        value           nonuniform List<scalar> 4(0.000110785 9.97792e-05 9.97792e-05 0.000118045);
    }
    Table_master
    {
        type            nutkWallFunction;
        Cmu             0.09;
        kappa           0.41;
        E               9.8;
        value           nonuniform List<scalar> 9(5.87231e-05 5.36368e-05 4.94738e-05 4.6067e-05 4.32597e-05 4.09288e-05 3.89955e-05 3.74389e-05 3.63366e-05);
    }
    Table_slave
    {
        type            nutkWallFunction;
        Cmu             0.09;
        kappa           0.41;
        E               9.8;
        value           nonuniform List<scalar> 9(6.47901e-05 6.3016e-05 6.23991e-05 6.20192e-05 6.12341e-05 5.96318e-05 5.78702e-05 5.57405e-05 5.28585e-05);
    }
    inlet
    {
        type            calculated;
        value           uniform 0.000100623;
    }
    outlet
    {
        type            calculated;
        value           nonuniform List<scalar> 2(0.00195663 0.00206551);
    }
}


// ************************************************************************* //
