/*--------------------------------*- C++ -*----------------------------------*\
  =========                 |
  \\      /  F ield         | OpenFOAM: The Open Source CFD Toolbox
   \\    /   O peration     | Website:  https://openfoam.org
    \\  /    A nd           | Version:  6
     \\/     M anipulation  |
\*---------------------------------------------------------------------------*/
FoamFile
{
    version     2.0;
    format      ascii;
    class       volScalarField;
    location    "1300";
    object      alphat;
}
// * * * * * * * * * * * * * * * * * * * * * * * * * * * * * * * * * * * * * //

dimensions      [1 -1 -1 0 0 0 0];

internalField   nonuniform List<scalar> 
459
(
0.00271431
0.00264896
0.002576
0.00251154
0.00245774
0.00241123
0.00236957
0.00233021
0.0022906
0.00224859
0.00220192
0.00214755
0.00208042
0.00198954
0.00186693
0.000334032
0.000387442
0.000330103
0.00027025
0.000241757
0.000223092
0.00021506
0.000208857
0.000192914
0.000191252
0.000192461
0.000197302
0.000212811
0.000244931
0.00028918
0.000332506
0.000353229
0.000351816
0.000314206
0.00302228
0.00335137
0.00339884
0.00332541
0.00329532
0.00330984
0.00334693
0.0033745
0.00336491
0.00331629
0.00322805
0.00309726
0.00291129
0.0026289
0.00223928
0.00178168
0.00157854
0.00040182
0.00133716
0.00117242
0.00118607
0.0011055
0.000934675
0.000674703
0.000385894
0.000261668
0.000237801
0.000265293
0.000328709
0.000466791
0.000717252
0.00104589
0.00151057
0.00145373
0.00129058
0.00041397
0.00321045
0.00369617
0.00339107
0.00309185
0.00304216
0.00312879
0.00326846
0.00340373
0.00350731
0.00355827
0.00354189
0.00344843
0.00326854
0.00297756
0.00260294
0.00225236
0.00158842
0.0006379
0.00112098
0.00128375
0.00146995
0.00142632
0.00109557
0.000408944
0.000336604
0.000279726
0.000261693
0.00030924
0.000358439
0.000415891
0.00048768
0.000581938
0.00160712
0.00140868
0.00103263
0.000518357
0.00335302
0.00395924
0.00298118
0.00253999
0.00277239
0.00321139
0.00363871
0.00389817
0.00398313
0.00394997
0.00384515
0.00368807
0.00347388
0.00317254
0.00280814
0.00246994
0.00192964
0.00124538
0.00224367
0.00202089
0.00197603
0.00167405
0.00126161
0.000876319
0.000609185
0.000629785
0.000648193
0.000665283
0.000684137
0.000708184
0.000741362
0.000789391
0.000867881
0.00264932
0.00286732
0.00256267
0.000881988
0.00348102
0.00403295
0.00231155
0.00234668
0.0037042
0.00475687
0.00537325
0.00556752
0.00513256
0.0045983
0.00416703
0.00384109
0.00355465
0.00322781
0.00286633
0.00254216
0.00212044
0.00177708
0.00246876
0.00309555
0.0031947
0.00315763
0.00314874
0.00318167
0.00323528
0.00328044
0.00329211
0.00328053
0.00326044
0.0032531
0.00327947
0.00335225
0.00347673
0.00367491
0.00372239
0.00361235
0.00308205
0.00131672
0.00115821
0.0010064
0.00361373
0.00391567
0.00178513
0.00311888
0.0050916
0.00571275
0.00595169
0.00591673
0.00533624
0.00466436
0.00415219
0.00378467
0.00347631
0.00314781
0.00281502
0.00253043
0.00227412
0.00226159
0.00318467
0.004003
0.00422202
0.0043193
0.00442854
0.00453511
0.00461216
0.00464295
0.00462497
0.00455293
0.00443356
0.00429391
0.0041733
0.00409788
0.0040636
0.00404174
0.00399429
0.00388326
0.00359556
0.00296346
0.00223774
0.00107341
0.00377163
0.00367998
0.00179943
0.00278558
0.00475773
0.00509816
0.00508617
0.00495818
0.00466831
0.00426534
0.00389127
0.00358044
0.00330023
0.00301247
0.00273926
0.00253635
0.00245473
0.00277832
0.00386094
0.00459371
0.00483059
0.00500221
0.00516354
0.00530138
0.00541371
0.00550322
0.00555888
0.00555467
0.00545971
0.00526459
0.00500663
0.00474498
0.00451045
0.0042946
0.0040617
0.00375884
0.00332145
0.00274376
0.00211108
0.00106963
0.0039935
0.00383547
0.00232371
0.00193152
0.00368545
0.0040955
0.00407704
0.00402926
0.00394073
0.0037675
0.00355529
0.00334108
0.00312725
0.00290816
0.00271079
0.0026051
0.00268655
0.00334342
0.00445149
0.00501464
0.00528111
0.00549243
0.00566018
0.00579354
0.00591428
0.00604472
0.00619697
0.00636149
0.00649406
0.00652002
0.00639037
0.00612751
0.00576275
0.00532889
0.00484351
0.00432684
0.00379316
0.00327026
0.00285647
0.00157548
0.00436721
0.00494
0.00413731
0.00209537
0.00280593
0.00346597
0.00351834
0.00351013
0.00348057
0.00342302
0.00332682
0.00320822
0.00307421
0.00292899
0.0027987
0.00276474
0.0029679
0.00389916
0.00491245
0.00546486
0.00579423
0.00600936
0.00613741
0.00620591
0.00625197
0.00631368
0.00642713
0.00662209
0.00690783
0.00724339
0.00749387
0.00762824
0.0076507
0.00763486
0.00766073
0.00759476
0.00705248
0.00595156
0.0057124
0.00182687
0.00658879
0.00290242
0.0030488
0.00336138
0.00343692
0.00347458
0.00347892
0.00345326
0.0034171
0.00336818
0.00330137
0.00321283
0.0031188
0.00310816
0.00337739
0.00440339
0.00528355
0.00596149
0.00633348
0.00655784
0.0066593
0.00667166
0.0066385
0.00660269
0.00660266
0.0066725
0.00683898
0.00710525
0.00740764
0.00770299
0.00795513
0.00813272
0.00820491
0.00804017
0.0074927
0.00658412
0.00550521
0.00184281
0.00303234
0.00297048
0.00362442
0.00342268
0.00335934
0.00333177
0.00331105
0.00326063
0.00326012
0.00328294
0.00330524
0.00330231
0.00325967
0.0032456
0.00338196
0.00384924
0.00464996
0.00551061
0.00617898
0.00659024
0.00677351
0.00680128
0.00674889
0.00667544
0.00661971
0.00660325
0.00663503
0.00671254
0.0068042
0.00686962
0.0069268
0.00698547
0.00698359
0.00677097
0.00632883
0.00559992
0.00515656
0.00180162
0.00168825
0.00164268
0.00177485
0.00132934
0.00135896
0.00136826
0.00138411
0.0013989
0.0014135
0.00142942
0.00144401
0.00145857
0.00147251
0.00148385
0.00148838
0.00147393
0.00142759
0.00138354
0.00136544
0.00136971
0.00140502
0.00145246
0.00149543
0.00152536
0.001541
0.0015452
0.00154211
0.00153558
0.00152837
0.001522
0.00151906
0.00151976
0.00151682
0.00150459
0.00148218
0.00145966
0.00142989
0.00138661
0.00139874
0.00128781
)
;

boundaryField
{
    floor
    {
        type            compressible::alphatWallFunction;
        Prt             0.85;
        value           nonuniform List<scalar> 
29
(
0.00025995
4.32381e-05
5.17729e-05
4.26124e-05
3.28139e-05
2.80462e-05
2.48827e-05
2.35104e-05
2.24503e-05
1.96933e-05
1.94042e-05
1.96182e-05
2.04582e-05
2.31291e-05
2.85788e-05
3.59333e-05
4.299e-05
4.63214e-05
4.60964e-05
4.00286e-05
4.00281e-05
5.59504e-05
7.2077e-05
0.000125628
0.000259947
4.32375e-05
5.40378e-05
9.00876e-05
0.000176545
)
;
    }
    ceiling
    {
        type            compressible::alphatWallFunction;
        Prt             0.85;
        value           nonuniform List<scalar> 
43
(
0.000236601
0.000230557
0.000248062
0.00018819
0.00019222
0.000193486
0.00019564
0.000197647
0.000199624
0.000201779
0.00020375
0.000205714
0.000207592
0.000209118
0.000209725
0.000207768
0.000201503
0.000195528
0.000193066
0.000193643
0.00019843
0.000204842
0.000210629
0.000214649
0.000216745
0.000217305
0.000216889
0.000216011
0.000215042
0.000214185
0.000213788
0.000213881
0.000213484
0.000211839
0.000208821
0.000205783
0.000201761
0.000195898
0.000197541
0.000182439
0.000571616
0.000639972
0.000408543
)
;
    }
    sWall
    {
        type            compressible::alphatWallFunction;
        Prt             0.85;
        value           uniform 0.000235695;
    }
    nWall
    {
        type            compressible::alphatWallFunction;
        Prt             0.85;
        value           nonuniform List<scalar> 6(0.000143118 0.000152515 0.000151986 0.000256465 0.000251044 0.000182143);
    }
    sideWalls
    {
        type            empty;
    }
    glass1
    {
        type            compressible::alphatWallFunction;
        Prt             0.85;
        value           nonuniform List<scalar> 9(0.000364126 0.000402291 0.000425375 0.000442774 0.000458347 0.000474455 0.000493568 0.000520333 0.000565144);
    }
    glass2
    {
        type            compressible::alphatWallFunction;
        Prt             0.85;
        value           nonuniform List<scalar> 2(0.000220231 0.000253501);
    }
    sun
    {
        type            compressible::alphatWallFunction;
        Prt             0.85;
        value           nonuniform List<scalar> 
14
(
0.000368984
0.000360723
0.0003515
0.000343321
0.000336468
0.000330521
0.000325179
0.000320119
0.000315016
0.000309597
0.000303568
0.000296533
0.000287826
0.000275997
)
;
    }
    heatsource1
    {
        type            compressible::alphatWallFunction;
        Prt             0.85;
        value           nonuniform List<scalar> 3(0.000186293 0.00016451 0.000143322);
    }
    heatsource2
    {
        type            compressible::alphatWallFunction;
        Prt             0.85;
        value           nonuniform List<scalar> 4(0.000248638 0.000221656 0.000221654 0.000222975);
    }
    Table_master
    {
        type            compressible::alphatWallFunction;
        Prt             0.85;
        value           nonuniform List<scalar> 9(5.52323e-05 4.37246e-05 3.44469e-05 3.14402e-05 3.92763e-05 4.72169e-05 5.63108e-05 6.74511e-05 8.1771e-05);
    }
    Table_slave
    {
        type            compressible::alphatWallFunction;
        Prt             0.85;
        value           nonuniform List<scalar> 9(8.58643e-05 8.89364e-05 9.16706e-05 9.42005e-05 9.69825e-05 0.000100517 0.000105371 0.000112352 0.000123654);
    }
    inlet
    {
        type            fixedValue;
        value           uniform 1.94e-05;
    }
    outlet
    {
        type            zeroGradient;
    }
}


// ************************************************************************* //
