// -*- C++ -*-
// File generated by PyFoam - sorry for the ugliness

FoamFile
{
 version 2.0;
 format ascii;
 class volVectorField;
 location "1300";
 object U;
}

dimensions [ 0 1 -1 0 0 0 0 ];

internalField nonuniform List<vector> 459
(
  (0.367979 -0.160084 0)
  (0.275572 -0.160601 0)
  (0.419733 -0.109283 0)
  (0.532204 -0.0735598 0)
  (0.586594 -0.0527849 0)
  (0.610247 -0.0387625 0)
  (0.621103 -0.0276801 0)
  (0.621934 -0.0181416 0)
  (0.611177 -0.00906715 0)
  (0.588358 0.000276735 0)
  (0.552425 0.0107242 0)
  (0.501138 0.023619 0)
  (0.429919 0.0421424 0)
  (0.324766 0.0773964 0)
  (0.240855 0.172059 0)
  (0.0138681 0.00974476 0)
  (-0.0266418 -0.00259654 0)
  (-0.0177483 -0.00248077 0)
  (-0.0173591 0.00063481 0)
  (-0.0189168 0.000454891 0)
  (-0.0215517 -0.00186611 0)
  (-0.0210615 -0.00525966 0)
  (-0.0158871 -0.00786713 0)
  (-0.00787801 -0.0104267 0)
  (0.00372464 -0.014288 0)
  (0.0110567 -0.00906171 0)
  (0.0167046 -0.00657227 0)
  (0.0199676 -0.00513552 0)
  (0.0224169 -0.0040887 0)
  (0.0248752 -0.00307035 0)
  (0.0268131 -0.00224752 0)
  (0.0283814 -0.00285855 0)
  (0.0321071 3.32391e-05 0)
  (-0.00795285 0.0140933 0)
  (0.492134 -0.338929 0)
  (0.216471 -0.265772 0)
  (0.342981 -0.14871 0)
  (0.432088 -0.0792165 0)
  (0.46773 -0.043841 0)
  (0.483629 -0.0207004 0)
  (0.493354 -0.00116841 0)
  (0.496736 0.0166219 0)
  (0.490083 0.0331536 0)
  (0.472938 0.0498734 0)
  (0.44474 0.0682234 0)
  (0.405049 0.0899775 0)
  (0.35518 0.118038 0)
  (0.29902 0.158173 0)
  (0.268136 0.228929 0)
  (0.238104 0.199238 0)
  (0.119952 0.142141 0)
  (0.0866859 0.0243877 0)
  (-0.0136644 -0.000685459 0)
  (-0.000202677 -0.00647981 0)
  (0.00476978 -0.00181721 0)
  (0.00569276 0.00164756 0)
  (0.00316078 0.00397714 0)
  (-0.000319166 0.00103991 0)
  (-0.00486913 -0.00660054 0)
  (-0.00121619 -0.0114261 0)
  (-0.00292632 -0.0156861 0)
  (-0.00304647 -0.00678759 0)
  (0.00127918 -0.0031321 0)
  (0.00138258 -0.00230096 0)
  (-0.000235254 -0.00218226 0)
  (-0.00172259 -0.00233239 0)
  (-0.0020499 -0.00404744 0)
  (0.000889589 -0.00846551 0)
  (0.0178187 -0.000882357 0)
  (-0.0586695 0.0300278 0)
  (0.543769 -0.520995 0)
  (0.072546 -0.3589 0)
  (0.230417 -0.198459 0)
  (0.297974 -0.117779 0)
  (0.314543 -0.0780582 0)
  (0.325085 -0.0497408 0)
  (0.334911 -0.0247018 0)
  (0.342308 8.89116e-05 0)
  (0.342379 0.0265842 0)
  (0.334631 0.0552702 0)
  (0.318665 0.0866545 0)
  (0.294481 0.121321 0)
  (0.263568 0.159945 0)
  (0.226967 0.202643 0)
  (0.198417 0.24884 0)
  (0.15656 0.211451 0)
  (0.0909522 0.173769 0)
  (0.0942992 0.00527371 0)
  (0.0226478 0.000622666 0)
  (0.0054359 -0.000224542 0)
  (0.00243095 0.00118333 0)
  (0.00353798 0.00243299 0)
  (0.00425177 0.00309877 0)
  (0.0141589 0.00167269 0)
  (0.0145074 -0.00343803 0)
  (0.0102567 -0.00952915 0)
  (-0.0121741 -0.0143793 0)
  (-0.022945 -0.00864075 0)
  (-0.026344 -0.0062339 0)
  (-0.0291121 -0.00478894 0)
  (-0.0311277 -0.00360713 0)
  (-0.0311199 -0.00285669 0)
  (-0.0268921 -0.00150906 0)
  (-0.0293069 0.00292368 0)
  (-0.0464717 0.0116954 0)
  (-0.104758 0.0222176 0)
  (0.567007 -0.6354 0)
  (-0.0692864 -0.405839 0)
  (0.148394 -0.223491 0)
  (0.181901 -0.13549 0)
  (0.17571 -0.0911447 0)
  (0.182812 -0.0572554 0)
  (0.192244 -0.0276233 0)
  (0.200859 0.00199103 0)
  (0.205289 0.0334071 0)
  (0.203906 0.0675027 0)
  (0.196544 0.104772 0)
  (0.182881 0.145183 0)
  (0.163264 0.188033 0)
  (0.136421 0.231559 0)
  (0.112948 0.273231 0)
  (0.0811179 0.259774 0)
  (0.0530343 0.231771 0)
  (-0.0298261 0.0900782 0)
  (-0.0534589 -0.00252742 0)
  (-0.0465884 0.00223943 0)
  (-0.0436286 0.00490471 0)
  (-0.0442111 0.0046677 0)
  (-0.0469008 0.00262246 0)
  (-0.0505225 -0.000423075 0)
  (-0.0529507 -0.0022259 0)
  (-0.0515426 -0.00350218 0)
  (-0.0490802 -0.00444215 0)
  (-0.0455991 -0.00505758 0)
  (-0.0414731 -0.00545468 0)
  (-0.0369217 -0.0057448 0)
  (-0.0318905 -0.00604219 0)
  (-0.025919 -0.00638489 0)
  (-0.0182974 -0.00645787 0)
  (-0.012421 -0.00628547 0)
  (-0.0023628 -0.0040229 0)
  (0.0116472 -0.00201731 0)
  (-0.0428249 0.00233531 0)
  (0.557927 -0.695109 0)
  (-0.166357 -0.434217 0)
  (0.0946411 -0.24044 0)
  (0.0828209 -0.135574 0)
  (0.0544796 -0.0961956 0)
  (0.0657373 -0.0646067 0)
  (0.0755002 -0.0358095 0)
  (0.0821227 -0.00474761 0)
  (0.0885173 0.0306672 0)
  (0.0894211 0.0698888 0)
  (0.0860765 0.112724 0)
  (0.0781295 0.158478 0)
  (0.0655617 0.206008 0)
  (0.0465109 0.253517 0)
  (0.0318937 0.298444 0)
  (0.00884831 0.297985 0)
  (-0.000810816 0.261174 0)
  (-0.0490932 0.0875814 0)
  (-0.0473371 0.00722722 0)
  (-0.0580205 0.00296236 0)
  (-0.0617331 0.00509248 0)
  (-0.0628847 0.00570018 0)
  (-0.0631136 0.00457814 0)
  (-0.0627866 0.00242033 0)
  (-0.0616762 3.95963e-05 0)
  (-0.0597718 -0.00238885 0)
  (-0.0574615 -0.00415445 0)
  (-0.0547452 -0.00536625 0)
  (-0.0517209 -0.00621404 0)
  (-0.0484442 -0.00696567 0)
  (-0.044811 -0.00797576 0)
  (-0.0404597 -0.00963716 0)
  (-0.0347923 -0.0122494 0)
  (-0.0270216 -0.0157748 0)
  (-0.0153156 -0.0187422 0)
  (0.00713432 -0.020545 0)
  (0.0313186 -0.0179 0)
  (0.0673942 -0.0243088 0)
  (0.098747 -0.00351128 0)
  (-0.0468592 0.0429234 0)
  (0.505237 -0.704259 0)
  (-0.20416 -0.442618 0)
  (0.0324054 -0.233366 0)
  (-0.00638771 -0.108112 0)
  (-0.0455029 -0.0968684 0)
  (-0.0309906 -0.072255 0)
  (-0.02485 -0.0444956 0)
  (-0.0200209 -0.0117255 0)
  (-0.0156264 0.0269744 0)
  (-0.0151669 0.0701823 0)
  (-0.0162215 0.117146 0)
  (-0.0197765 0.167091 0)
  (-0.0260338 0.218834 0)
  (-0.0362014 0.269794 0)
  (-0.0407905 0.313111 0)
  (-0.0506804 0.313404 0)
  (-0.0446985 0.263356 0)
  (-0.0609943 0.096701 0)
  (-0.0530948 0.0237154 0)
  (-0.0620195 0.0101251 0)
  (-0.0656742 0.00719837 0)
  (-0.0662078 0.00555837 0)
  (-0.0651774 0.00331651 0)
  (-0.0635127 0.000507183 0)
  (-0.0616439 -0.00232833 0)
  (-0.0599209 -0.00478633 0)
  (-0.0584368 -0.00660137 0)
  (-0.0572134 -0.00781539 0)
  (-0.0563408 -0.00860825 0)
  (-0.0559191 -0.00931452 0)
  (-0.0559503 -0.0104563 0)
  (-0.0562476 -0.012676 0)
  (-0.0563327 -0.0165997 0)
  (-0.0551971 -0.0226514 0)
  (-0.0509354 -0.0307802 0)
  (-0.0410296 -0.0413692 0)
  (-0.0261316 -0.0542028 0)
  (-0.00635451 -0.062036 0)
  (0.0733226 -0.00959935 0)
  (-0.0801357 0.0887923 0)
  (0.394063 -0.643718 0)
  (-0.206558 -0.404126 0)
  (-0.0831826 -0.203467 0)
  (-0.0888668 -0.0789115 0)
  (-0.143137 -0.0942556 0)
  (-0.130326 -0.0765225 0)
  (-0.125867 -0.0486303 0)
  (-0.121458 -0.0136278 0)
  (-0.117105 0.0264764 0)
  (-0.1146 0.0706501 0)
  (-0.11193 0.118565 0)
  (-0.109421 0.169732 0)
  (-0.107118 0.222728 0)
  (-0.105065 0.27367 0)
  (-0.097568 0.312416 0)
  (-0.0910111 0.309574 0)
  (-0.0718714 0.248741 0)
  (-0.0665365 0.0959249 0)
  (-0.0575444 0.0311222 0)
  (-0.061049 0.0139869 0)
  (-0.0614425 0.00786616 0)
  (-0.059822 0.00426901 0)
  (-0.057197 0.00114071 0)
  (-0.054368 -0.00177541 0)
  (-0.0521804 -0.00425045 0)
  (-0.0507414 -0.00615629 0)
  (-0.0500933 -0.00736765 0)
  (-0.0502935 -0.00786328 0)
  (-0.0515634 -0.00775429 0)
  (-0.054299 -0.00740568 0)
  (-0.0589169 -0.00754418 0)
  (-0.0656849 -0.00908759 0)
  (-0.07437 -0.0128162 0)
  (-0.0842576 -0.0193752 0)
  (-0.0944174 -0.0295119 0)
  (-0.103475 -0.0438582 0)
  (-0.108307 -0.060015 0)
  (-0.10298 -0.063738 0)
  (-0.0875179 -0.0164841 0)
  (-0.147151 0.160021 0)
  (0.226412 -0.502211 0)
  (-0.313005 -0.31901 0)
  (-0.300955 -0.190742 0)
  (-0.191308 -0.0617193 0)
  (-0.260046 -0.104736 0)
  (-0.232227 -0.0874666 0)
  (-0.223065 -0.0561354 0)
  (-0.216655 -0.0183015 0)
  (-0.210102 0.0232942 0)
  (-0.203965 0.06733 0)
  (-0.19592 0.114246 0)
  (-0.185284 0.164025 0)
  (-0.171728 0.215178 0)
  (-0.155015 0.263114 0)
  (-0.133019 0.296513 0)
  (-0.110084 0.289841 0)
  (-0.0806236 0.222988 0)
  (-0.0620786 0.0865213 0)
  (-0.0521118 0.0308309 0)
  (-0.0506864 0.01324 0)
  (-0.0470951 0.00557391 0)
  (-0.0422286 0.000994959 0)
  (-0.0374036 -0.00208537 0)
  (-0.0338459 -0.00415876 0)
  (-0.0315219 -0.00560037 0)
  (-0.0303417 -0.00650705 0)
  (-0.0301134 -0.00676118 0)
  (-0.0307177 -0.00617497 0)
  (-0.0322517 -0.00460005 0)
  (-0.0351171 -0.00206542 0)
  (-0.0397978 0.00107109 0)
  (-0.0479901 0.00374547 0)
  (-0.0616352 0.00397108 0)
  (-0.0821045 -0.000729634 0)
  (-0.109594 -0.0120032 0)
  (-0.14184 -0.029065 0)
  (-0.174259 -0.0486431 0)
  (-0.205448 -0.0660346 0)
  (-0.256001 -0.0736469 0)
  (-0.466726 -0.0586583 0)
  (-0.0206223 -0.361997 0)
  (-0.629208 -0.318381 0)
  (-0.827892 -0.310904 0)
  (-0.243287 -0.17814 0)
  (-0.356258 -0.143259 0)
  (-0.307254 -0.104439 0)
  (-0.296083 -0.064927 0)
  (-0.291247 -0.0259574 0)
  (-0.285476 0.0145748 0)
  (-0.276274 0.0572808 0)
  (-0.262198 0.101336 0)
  (-0.242122 0.147132 0)
  (-0.21561 0.193569 0)
  (-0.182915 0.236352 0)
  (-0.144888 0.264728 0)
  (-0.106548 0.256474 0)
  (-0.0683205 0.190777 0)
  (-0.0396583 0.0727986 0)
  (-0.0284862 0.0262328 0)
  (-0.0241979 0.010042 0)
  (-0.0168818 0.00247469 0)
  (-0.0100109 -0.00142276 0)
  (-0.00517741 -0.00310647 0)
  (-0.00202668 -0.00374785 0)
  (-0.00034957 -0.0040227 0)
  (0.000190815 -0.00409075 0)
  (-3.05158e-05 -0.00379831 0)
  (-0.000670247 -0.0028491 0)
  (-0.00145245 -0.000937688 0)
  (-0.00217651 0.00212274 0)
  (-0.00254428 0.00641071 0)
  (-0.00298109 0.0116872 0)
  (-0.00372925 0.0166514 0)
  (-0.00504078 0.0192337 0)
  (-0.00667847 0.0174302 0)
  (-0.00946171 0.0101116 0)
  (-0.0124625 -0.00159448 0)
  (-0.000882348 -0.0190829 0)
  (0.0297872 -0.0854639 0)
  (-0.374127 -0.186761 0)
  (-1.78249 -0.330169 0)
  (-0.131068 -0.288014 0)
  (-0.343627 -0.173749 0)
  (-0.332052 -0.106946 0)
  (-0.336634 -0.0542542 0)
  (-0.339181 -0.010599 0)
  (-0.335841 0.0255587 0)
  (-0.325316 0.0565768 0)
  (-0.306335 0.0891883 0)
  (-0.277362 0.123859 0)
  (-0.238034 0.15982 0)
  (-0.189417 0.193816 0)
  (-0.134762 0.217029 0)
  (-0.0809644 0.211079 0)
  (-0.0311737 0.156557 0)
  (0.0155277 0.0520319 0)
  (0.0244106 0.0191301 0)
  (0.0285394 0.00539492 0)
  (0.0338709 -0.00307456 0)
  (0.0365133 -0.00600859 0)
  (0.0377596 -0.00609673 0)
  (0.0381404 -0.00523732 0)
  (0.0379189 -0.00427926 0)
  (0.0372696 -0.00339579 0)
  (0.0363485 -0.00240957 0)
  (0.0353592 -0.000994853 0)
  (0.0346062 0.00119425 0)
  (0.0345257 0.0043554 0)
  (0.0354155 0.00801065 0)
  (0.0376915 0.0120621 0)
  (0.0413651 0.0153581 0)
  (0.0462114 0.0157394 0)
  (0.0517575 0.0111002 0)
  (0.057975 0.000108705 0)
  (0.0623378 -0.014777 0)
  (0.0695822 -0.0319017 0)
  (0.106261 -0.0686778 0)
  (-0.0810194 -0.132631 0)
  (-0.195503 0.0574623 0)
  (-0.0709395 -0.251719 0)
  (-0.258151 -0.172138 0)
  (-0.316211 -0.138453 0)
  (-0.353041 -0.11407 0)
  (-0.371397 -0.0891542 0)
  (-0.373993 -0.0591221 0)
  (-0.362296 -0.0221461 0)
  (-0.338103 0.0114965 0)
  (-0.300074 0.0440828 0)
  (-0.247838 0.0768088 0)
  (-0.183069 0.10891 0)
  (-0.110745 0.134388 0)
  (-0.0378793 0.134572 0)
  (0.0423705 0.070521 0)
  (0.0909173 -0.00528976 0)
  (0.104315 -0.0479268 0)
  (0.10442 -0.072126 0)
  (0.0992865 -0.0800233 0)
  (0.0931278 -0.0801965 0)
  (0.0877039 -0.0774424 0)
  (0.0834769 -0.074164 0)
  (0.0802721 -0.0713042 0)
  (0.077749 -0.0690593 0)
  (0.0756401 -0.0672997 0)
  (0.0738608 -0.0657787 0)
  (0.0725555 -0.0642254 0)
  (0.0721468 -0.0623213 0)
  (0.0728094 -0.0589024 0)
  (0.0749607 -0.0537164 0)
  (0.0787944 -0.0491688 0)
  (0.0838432 -0.0480809 0)
  (0.0890107 -0.0516434 0)
  (0.0921045 -0.0563074 0)
  (0.0906421 -0.0614335 0)
  (0.0831476 -0.0669132 0)
  (0.108814 -0.0783141 0)
  (-0.133017 -0.0914732 0)
  (0.64115 0.215177 0)
  (0.175529 -0.259359 0)
  (-0.205112 0.217736 0)
  (-0.0907454 0.095993 0)
  (-0.230458 0.134245 0)
  (-0.296017 0.157209 0)
  (-0.34115 0.168591 0)
  (-0.367592 0.172592 0)
  (-0.376859 0.170696 0)
  (-0.368411 0.164392 0)
  (-0.34192 0.163969 0)
  (-0.297099 0.168184 0)
  (-0.233894 0.17672 0)
  (-0.15599 0.189535 0)
  (-0.073982 0.204895 0)
  (0.0455705 0.206977 0)
  (0.118359 0.192707 0)
  (0.163174 0.194401 0)
  (0.178434 0.205685 0)
  (0.177509 0.216635 0)
  (0.170692 0.218416 0)
  (0.163627 0.21495 0)
  (0.157078 0.209747 0)
  (0.150815 0.204852 0)
  (0.144799 0.201137 0)
  (0.139137 0.198763 0)
  (0.133964 0.197493 0)
  (0.129423 0.196901 0)
  (0.125686 0.196506 0)
  (0.122978 0.195821 0)
  (0.12148 0.193356 0)
  (0.121406 0.188074 0)
  (0.122755 0.181876 0)
  (0.124497 0.176996 0)
  (0.12454 0.174128 0)
  (0.120103 0.169192 0)
  (0.10922 0.162596 0)
  (0.0886244 0.155201 0)
  (0.12484 0.139759 0)
  (-0.273029 0.178643 0)
)
;

boundaryField
{
  floor
  {
    type noSlip;
  }
  ceiling
  {
    type noSlip;
  }
  sWall
  {
    type noSlip;
  }
  nWall
  {
    type noSlip;
  }
  sideWalls
  {
    type empty;
  }
  glass1
  {
    type noSlip;
  }
  glass2
  {
    type noSlip;
  }
  sun
  {
    type noSlip;
  }
  heatsource1
  {
    type noSlip;
  }
  heatsource2
  {
    type noSlip;
  }
  Table_master
  {
    type noSlip;
  }
  Table_slave
  {
    type noSlip;
  }
  inlet
  {
    type fixedValue;
    value uniform (0.1 0 0);
  }
  outlet
  {
    type zeroGradient;
  }
} 	// ************************************************************************* //

