/*--------------------------------*- C++ -*----------------------------------*\
  =========                 |
  \\      /  F ield         | OpenFOAM: The Open Source CFD Toolbox
   \\    /   O peration     | Website:  https://openfoam.org
    \\  /    A nd           | Version:  6
     \\/     M anipulation  |
\*---------------------------------------------------------------------------*/
FoamFile
{
    version     2.0;
    format      ascii;
    class       volScalarField;
    location    "400";
    object      alphat;
}
// * * * * * * * * * * * * * * * * * * * * * * * * * * * * * * * * * * * * * //

dimensions      [1 -1 -1 0 0 0 0];

internalField   nonuniform List<scalar> 
459
(
0.00119231
0.00129569
0.00131206
0.00137182
0.00142663
0.00147709
0.00152538
0.00157436
0.00161355
0.00163521
0.00163327
0.00160311
0.00154424
0.00146441
0.00137832
0.000515136
0.000632225
0.000694928
0.000677868
0.000649091
0.000616348
0.000579781
0.000544583
0.000512601
0.000483962
0.000458351
0.000435536
0.000415071
0.000396433
0.000379037
0.000362044
0.000344199
0.00033542
0.000309281
0.00164868
0.00386102
0.00363131
0.00421529
0.00476561
0.00532545
0.00584491
0.00624347
0.00658824
0.00687836
0.00706681
0.00709163
0.00685548
0.00615192
0.00438276
0.00139438
0.000912541
0.000575817
0.00110258
0.00146572
0.00171396
0.00183479
0.00182761
0.00153733
0.00135651
0.00122177
0.00111532
0.0010286
0.000953905
0.000886817
0.000824482
0.000765462
0.000714571
0.00066657
0.000805641
0.000425586
0.0020319
0.00528848
0.00443491
0.00568518
0.00625781
0.00667187
0.00698775
0.00723106
0.0074793
0.00774731
0.00800349
0.00819769
0.00825514
0.00810155
0.00756893
0.00610336
0.00135183
0.00116827
0.00157807
0.00191989
0.00220729
0.0023945
0.00232374
0.000820853
0.000731909
0.000660249
0.000602146
0.000554553
0.000515151
0.000482265
0.000454802
0.000432293
0.00046635
0.000535429
0.000905107
0.000501102
0.00240254
0.00687483
0.00440273
0.00604194
0.00660889
0.00677774
0.006844
0.00692283
0.00708283
0.00733119
0.0076366
0.00795381
0.0081909
0.00830137
0.0082164
0.00770308
0.00595804
0.00156656
0.00196825
0.00248219
0.00290704
0.00320929
0.00338644
0.00317231
0.000919444
0.000847546
0.000798763
0.00076322
0.000732988
0.000702233
0.000672399
0.000640236
0.000601564
0.000566481
0.000573573
0.00105256
0.000557956
0.00277989
0.00892529
0.00486754
0.00574674
0.00657503
0.00665021
0.00654753
0.00648966
0.0066184
0.00686335
0.00719672
0.00758079
0.00788241
0.00803847
0.00800218
0.00772886
0.00706981
0.00576153
0.00523858
0.00499383
0.00485856
0.00478542
0.00474053
0.00461111
0.00399518
0.00373155
0.00359165
0.0034795
0.00334654
0.003153
0.0028284
0.00241177
0.00193765
0.00145174
0.00106947
0.00105786
0.000748264
0.000694671
0.00083546
0.000936248
0.00317758
0.0111436
0.00685007
0.00554519
0.00617888
0.00650211
0.00640853
0.00631059
0.00643158
0.00665781
0.00699177
0.00737893
0.00771022
0.0078728
0.00780125
0.00750392
0.00705208
0.00654649
0.00620625
0.00596995
0.0057812
0.00563417
0.00550885
0.00536041
0.00512748
0.00492442
0.00474134
0.00455807
0.00436314
0.0041479
0.00385692
0.00344983
0.00292633
0.00231589
0.00174979
0.0012779
0.00100634
0.000876508
0.00126368
0.000977664
0.0035463
0.0127396
0.00990076
0.007184
0.00655358
0.00662896
0.0066097
0.00650801
0.00650361
0.00667202
0.00700803
0.00742063
0.00776804
0.00791145
0.0077761
0.00739545
0.00692014
0.0065491
0.0063629
0.00622853
0.00604937
0.00581736
0.00554842
0.00527519
0.00502435
0.00481472
0.00462738
0.00444912
0.00427781
0.00411794
0.00397003
0.00372768
0.00332729
0.00280307
0.00228045
0.00178977
0.00146032
0.00137712
0.00143305
0.0011128
0.00362002
0.0115524
0.0101163
0.00911874
0.00833362
0.00776057
0.00713528
0.00669981
0.00659445
0.00680954
0.00723584
0.00770658
0.00804324
0.00809933
0.0078213
0.00729094
0.00673371
0.00640137
0.00628673
0.0060466
0.00566591
0.00523558
0.00484327
0.00453704
0.00431476
0.00414832
0.00401156
0.00389575
0.00380417
0.00374626
0.00373308
0.00374334
0.00354868
0.00319794
0.00288465
0.00274068
0.00290342
0.00342586
0.00424797
0.00173945
0.00352396
0.00419992
0.00471661
0.00493524
0.00505288
0.00511753
0.00530571
0.00572085
0.00635433
0.00710531
0.0078137
0.00831832
0.00849421
0.00825856
0.00764832
0.00687761
0.00632444
0.00596672
0.00561351
0.005122
0.0045818
0.00412194
0.00379167
0.00357223
0.00342347
0.00331151
0.00321616
0.00312775
0.00304075
0.0029504
0.00285237
0.00274529
0.00265576
0.00259071
0.00257516
0.00259963
0.00259204
0.00248693
0.00232113
0.0016249
0.00200596
0.00385482
0.00520762
0.00624258
0.00719956
0.00805113
0.00874793
0.00919728
0.00932827
0.00912151
0.00858828
0.00771584
0.00664144
0.00574015
0.00517646
0.00470221
0.00416418
0.00362477
0.00320261
0.00292436
0.00275437
0.0026504
0.00258328
0.00253649
0.00250179
0.00247569
0.00245736
0.00244813
0.00245145
0.002478
0.00251198
0.00255193
0.00259073
0.0025996
0.00253128
0.00237098
0.00213204
0.00133494
0.00244613
0.00541659
0.00744782
0.00825903
0.00892903
0.00935689
0.00943423
0.00913854
0.00845551
0.00748736
0.00638583
0.00533923
0.00448463
0.00384404
0.00331975
0.0028301
0.0024408
0.00219142
0.00204267
0.0019572
0.00191814
0.00190909
0.00192144
0.00195105
0.00199584
0.00205431
0.00212425
0.00220151
0.00228908
0.0023897
0.00250119
0.00261682
0.00271992
0.00279178
0.00277585
0.00280246
0.00275259
0.0013563
0.00212346
0.00224721
0.00233672
0.00246423
0.00233595
0.0021921
0.00207098
0.00194668
0.001818
0.00167179
0.00149748
0.00130413
0.00110867
0.000930523
0.000788711
0.000691396
0.000634098
0.000605822
0.000596839
0.000600321
0.000611937
0.000629321
0.000650361
0.000674687
0.000702206
0.00073298
0.000767216
0.000805314
0.000848007
0.00089663
0.000951714
0.00101241
0.00107946
0.00115364
0.00123491
0.00133426
0.00136402
0.00132947
0.00124573
0.00115529
)
;

boundaryField
{
    floor
    {
        type            compressible::alphatWallFunction;
        Prt             0.85;
        value           nonuniform List<scalar> 
29
(
0.000194556
7.15574e-05
8.91874e-05
9.846e-05
9.59476e-05
9.16922e-05
8.6822e-05
8.13453e-05
7.60332e-05
7.11693e-05
6.67815e-05
6.28299e-05
5.92862e-05
5.60872e-05
5.31561e-05
5.04045e-05
4.77006e-05
4.48434e-05
4.34309e-05
3.91959e-05
3.91954e-05
5.77328e-05
6.94106e-05
7.80553e-05
0.000194554
7.15565e-05
8.07492e-05
0.000165779
0.000219924
)
;
    }
    ceiling
    {
        type            compressible::alphatWallFunction;
        Prt             0.85;
        value           nonuniform List<scalar> 
43
(
0.000293052
0.000309016
0.000320507
0.000336906
0.000320565
0.000302097
0.000286443
0.000270269
0.000253402
0.000234071
0.000210776
0.000184574
0.000157632
0.000132595
0.00011226
9.80547e-05
8.95784e-05
8.53611e-05
8.40164e-05
8.45381e-05
8.62756e-05
8.88682e-05
9.19943e-05
9.55933e-05
9.96457e-05
0.000104155
0.000109144
0.000114665
0.000120815
0.000127775
0.000135606
0.000144172
0.000153569
0.000163884
0.0001751
0.000188697
0.000192747
0.000188044
0.000176588
0.000164116
0.000469517
0.000551706
0.000334353
)
;
    }
    sWall
    {
        type            compressible::alphatWallFunction;
        Prt             0.85;
        value           uniform 0.000291838;
    }
    nWall
    {
        type            compressible::alphatWallFunction;
        Prt             0.85;
        value           nonuniform List<scalar> 6(0.000133086 0.000138944 0.000157872 0.000188457 0.000191362 0.000163788);
    }
    sideWalls
    {
        type            empty;
    }
    glass1
    {
        type            compressible::alphatWallFunction;
        Prt             0.85;
        value           nonuniform List<scalar> 9(0.000164927 0.000225863 0.000275716 0.00032306 0.000370537 0.000419893 0.00046513 0.000474246 0.000462758);
    }
    glass2
    {
        type            compressible::alphatWallFunction;
        Prt             0.85;
        value           nonuniform List<scalar> 2(0.00024126 0.000226181);
    }
    sun
    {
        type            compressible::alphatWallFunction;
        Prt             0.85;
        value           nonuniform List<scalar> 
14
(
0.000169123
0.000183306
0.000185542
0.000193679
0.000201106
0.000207916
0.000214409
0.000220971
0.000226205
0.000229092
0.000228833
0.00022481
0.000216934
0.000206203
)
;
    }
    heatsource1
    {
        type            compressible::alphatWallFunction;
        Prt             0.85;
        value           nonuniform List<scalar> 3(9.85345e-05 0.000119007 0.000133407);
    }
    heatsource2
    {
        type            compressible::alphatWallFunction;
        Prt             0.85;
        value           nonuniform List<scalar> 4(0.00019686 0.000130036 0.000130035 0.000191079);
    }
    Table_master
    {
        type            compressible::alphatWallFunction;
        Prt             0.85;
        value           nonuniform List<scalar> 9(0.000116901 0.000103992 9.34538e-05 8.48069e-05 7.76473e-05 7.16621e-05 6.66226e-05 6.2381e-05 5.88801e-05);
    }
    Table_slave
    {
        type            compressible::alphatWallFunction;
        Prt             0.85;
        value           nonuniform List<scalar> 9(0.000131021 0.000120745 0.000113714 0.000108559 0.000104152 9.96464e-05 9.52524e-05 9.04887e-05 8.47219e-05);
    }
    inlet
    {
        type            fixedValue;
        value           uniform 1.94e-05;
    }
    outlet
    {
        type            zeroGradient;
    }
}


// ************************************************************************* //
