/*--------------------------------*- C++ -*----------------------------------*\
  =========                 |
  \\      /  F ield         | OpenFOAM: The Open Source CFD Toolbox
   \\    /   O peration     | Website:  https://openfoam.org
    \\  /    A nd           | Version:  6
     \\/     M anipulation  |
\*---------------------------------------------------------------------------*/
FoamFile
{
    version     2.0;
    format      ascii;
    class       volScalarField;
    location    "520";
    object      alphat;
}
// * * * * * * * * * * * * * * * * * * * * * * * * * * * * * * * * * * * * * //

dimensions      [1 -1 -1 0 0 0 0];

internalField   nonuniform List<scalar> 
459
(
0.000924293
0.00102354
0.0010648
0.00112377
0.00118011
0.0012371
0.0012959
0.00134554
0.00137954
0.00138974
0.00136675
0.00127172
0.00113539
0.000973109
0.000835063
0.000505702
0.000709492
0.000765
0.000781297
0.000779372
0.000761711
0.000722501
0.000679042
0.000638444
0.000601869
0.000569072
0.000539903
0.000513593
0.000489379
0.00046635
0.000443215
0.00041778
0.000378964
0.000335154
0.00118784
0.0029472
0.00287575
0.00333782
0.00382746
0.00428099
0.0046368
0.00500495
0.00536353
0.00567427
0.00588203
0.00590022
0.00558368
0.00482311
0.00317549
0.00102505
0.000817365
0.000760074
0.00248525
0.0026272
0.00300514
0.0032372
0.0031246
0.00225259
0.00189193
0.00165705
0.00148468
0.00135127
0.00123657
0.00113281
0.0010332
0.000933563
0.000845746
0.000789438
0.00064016
0.000401542
0.00140772
0.00398536
0.0036062
0.00416677
0.00447509
0.00470904
0.00491971
0.00521157
0.00560625
0.00608991
0.00657372
0.00692106
0.00693612
0.00656732
0.0054819
0.00350059
0.000996652
0.000868065
0.00213286
0.00303001
0.00376766
0.00419573
0.00382222
0.000973719
0.000854532
0.000759081
0.00068308
0.000622155
0.00057308
0.000533466
0.000501943
0.000478719
0.000544106
0.000663782
0.000682758
0.000436021
0.00161666
0.00483822
0.00363945
0.00425039
0.00431383
0.004323
0.00441738
0.00464363
0.00506369
0.00568135
0.00634653
0.00686527
0.00711158
0.00707688
0.00660417
0.00537387
0.0028713
0.00114115
0.00170052
0.00267707
0.00383199
0.00475225
0.00521566
0.00464968
0.00106753
0.000976317
0.000915715
0.000872757
0.000838574
0.000806046
0.000772242
0.000736904
0.000695037
0.000657044
0.000674481
0.000755027
0.000489486
0.00183131
0.00591608
0.00373713
0.00414674
0.00413063
0.00402151
0.00405659
0.00423704
0.00467926
0.00538966
0.00610928
0.00666391
0.00697127
0.00706221
0.00693929
0.00642443
0.0054025
0.00491529
0.00532591
0.00588779
0.00635889
0.00661725
0.00662323
0.00626546
0.00509995
0.00459849
0.00434964
0.00419538
0.00405796
0.00388462
0.00358139
0.00312114
0.00253684
0.00192149
0.00143323
0.00120618
0.000821573
0.000568393
0.000578114
0.000600758
0.00206484
0.00719242
0.00466992
0.0041186
0.00422484
0.00404675
0.00399541
0.00412356
0.004574
0.00530068
0.00606776
0.00663737
0.00692467
0.00701848
0.00706506
0.00709262
0.00708066
0.00736034
0.00771445
0.0079135
0.00790799
0.0077101
0.00736539
0.00691657
0.00639242
0.00602223
0.00577715
0.00559048
0.00541233
0.00520417
0.00492807
0.00450381
0.00392832
0.00323364
0.00253755
0.00202557
0.00154355
0.00120554
0.00133224
0.000812968
0.00229257
0.00818416
0.00643552
0.0048805
0.00468898
0.00438185
0.00411967
0.00417102
0.00465312
0.00545218
0.0062761
0.00685523
0.00711755
0.00721839
0.00741879
0.00780107
0.00820267
0.00859012
0.00875868
0.00865447
0.00832084
0.0078298
0.0072672
0.00672093
0.00627305
0.00597624
0.00578346
0.00563237
0.00547781
0.00528978
0.00506207
0.00480725
0.00445883
0.0039679
0.00338962
0.00284213
0.00231013
0.00188582
0.00176872
0.000972999
0.0023533
0.007632
0.00657128
0.00578914
0.00520992
0.00450774
0.00410989
0.00424347
0.00490852
0.00586429
0.00674781
0.00730363
0.00753472
0.00766841
0.00794057
0.00827162
0.00853144
0.00869644
0.00862123
0.0082739
0.00773479
0.00711164
0.00651303
0.00602026
0.00567087
0.00544523
0.0052885
0.00515412
0.00500825
0.00482983
0.00463301
0.00447375
0.00439219
0.00422141
0.00392639
0.00362844
0.00332673
0.00285836
0.00304765
0.00130027
0.00231153
0.00276211
0.00302521
0.00308979
0.0030681
0.00311602
0.0034806
0.00431102
0.00549047
0.0066631
0.0074915
0.00787637
0.00800175
0.00799692
0.00788655
0.00783044
0.00783951
0.00778549
0.00756825
0.00716293
0.00665956
0.0061633
0.0057456
0.00542402
0.00518149
0.00498401
0.0048006
0.0046114
0.00439629
0.00412688
0.00379799
0.00345932
0.00316378
0.00293073
0.00272426
0.00252678
0.00234186
0.00217155
0.00204879
0.00133839
0.000892075
0.00149416
0.00221092
0.00327127
0.00465562
0.00611245
0.007328
0.00803753
0.00823138
0.00807255
0.00767676
0.00731205
0.00709435
0.00698776
0.00690919
0.00678752
0.00660089
0.00636993
0.00611896
0.0058821
0.00567549
0.00549032
0.00530456
0.00509247
0.0048346
0.00452454
0.00417156
0.00379547
0.00341322
0.00304985
0.00276851
0.00257226
0.00244067
0.00234384
0.00224264
0.00210466
0.00195429
0.00136622
0.00135805
0.00372982
0.00559097
0.0071231
0.00798654
0.00860153
0.00883797
0.00862516
0.00810322
0.00749561
0.0070327
0.00676265
0.00663644
0.00658643
0.00656645
0.00655135
0.00653081
0.00650258
0.00646398
0.00640977
0.00633889
0.00627387
0.00620333
0.0061017
0.00593627
0.00567675
0.00530938
0.00485813
0.00437456
0.00389092
0.00345748
0.00310045
0.00283205
0.00263694
0.0024764
0.00234258
0.00287768
0.00146934
0.00158581
0.00166468
0.00173667
0.00202329
0.00203146
0.00196776
0.00191895
0.00189859
0.00184873
0.00177854
0.00169555
0.00162391
0.00157883
0.00155585
0.00154641
0.00154406
0.00154418
0.00154371
0.00154129
0.00153683
0.00153131
0.00152601
0.00152225
0.00151594
0.00150435
0.0014845
0.00145443
0.00141505
0.00137174
0.00133066
0.0012949
0.00126919
0.00125418
0.00125095
0.00125914
0.00127562
0.0012913
0.00127719
0.00124199
0.00120277
)
;

boundaryField
{
    floor
    {
        type            compressible::alphatWallFunction;
        Prt             0.85;
        value           nonuniform List<scalar> 
29
(
0.000119045
7.0308e-05
0.000100807
0.000108918
0.000111286
0.000111007
0.000108442
0.000102719
9.63325e-05
9.03211e-05
8.4865e-05
7.99376e-05
7.55257e-05
7.15205e-05
6.78114e-05
6.42623e-05
6.06744e-05
5.67018e-05
5.05781e-05
4.35663e-05
4.35657e-05
5.41492e-05
5.95542e-05
6.78291e-05
0.000119043
7.03071e-05
0.000108198
0.000123784
0.000162247
)
;
    }
    ceiling
    {
        type            compressible::alphatWallFunction;
        Prt             0.85;
        value           nonuniform List<scalar> 
43
(
0.000222685
0.000233196
0.000242744
0.000280363
0.000281441
0.000273152
0.000266781
0.000264119
0.000257579
0.000248338
0.000237358
0.000227834
0.000221816
0.000218741
0.000217477
0.000217163
0.000217179
0.000217116
0.000216792
0.000216194
0.000215454
0.000214742
0.000214238
0.000213389
0.000211833
0.000209161
0.000205108
0.000199786
0.000193913
0.000188323
0.00018344
0.000179921
0.000177863
0.000177419
0.000178543
0.000180802
0.000182947
0.000181016
0.000176188
0.000170793
0.000317651
0.000374885
0.000191952
)
;
    }
    sWall
    {
        type            compressible::alphatWallFunction;
        Prt             0.85;
        value           uniform 0.000222196;
    }
    nWall
    {
        type            compressible::alphatWallFunction;
        Prt             0.85;
        value           nonuniform List<scalar> 6(8.43918e-05 0.000115541 0.000138379 0.000192809 0.000206761 0.000170442);
    }
    sideWalls
    {
        type            empty;
    }
    glass1
    {
        type            compressible::alphatWallFunction;
        Prt             0.85;
        value           nonuniform List<scalar> 9(0.000130417 0.000167106 0.000197021 0.00022498 0.000253301 0.000283715 0.000313028 0.000320823 0.000315538);
    }
    glass2
    {
        type            compressible::alphatWallFunction;
        Prt             0.85;
        value           nonuniform List<scalar> 2(0.000182974 0.000188192);
    }
    sun
    {
        type            compressible::alphatWallFunction;
        Prt             0.85;
        value           nonuniform List<scalar> 
14
(
0.000131809
0.00014583
0.000151613
0.000159833
0.000167641
0.000175496
0.000183555
0.000190328
0.00019495
0.000196334
0.000193213
0.000180243
0.000161446
0.000138725
)
;
    }
    heatsource1
    {
        type            compressible::alphatWallFunction;
        Prt             0.85;
        value           nonuniform List<scalar> 3(7.97385e-05 8.12024e-05 8.46002e-05);
    }
    heatsource2
    {
        type            compressible::alphatWallFunction;
        Prt             0.85;
        value           nonuniform List<scalar> 4(0.000145943 0.000116401 0.000116399 0.000141947);
    }
    Table_master
    {
        type            compressible::alphatWallFunction;
        Prt             0.85;
        value           nonuniform List<scalar> 9(0.000138711 0.000121745 0.000107955 9.68258e-05 8.77959e-05 8.04433e-05 7.44512e-05 6.96433e-05 6.60769e-05);
    }
    Table_slave
    {
        type            compressible::alphatWallFunction;
        Prt             0.85;
        value           nonuniform List<scalar> 9(0.000151897 0.000139081 0.00013049 0.000124359 0.000119455 0.000114766 0.00010987 0.000104724 9.85878e-05);
    }
    inlet
    {
        type            fixedValue;
        value           uniform 1.94e-05;
    }
    outlet
    {
        type            zeroGradient;
    }
}


// ************************************************************************* //
