/*--------------------------------*- C++ -*----------------------------------*\
  =========                 |
  \\      /  F ield         | OpenFOAM: The Open Source CFD Toolbox
   \\    /   O peration     | Website:  https://openfoam.org
    \\  /    A nd           | Version:  6
     \\/     M anipulation  |
\*---------------------------------------------------------------------------*/
FoamFile
{
    version     2.0;
    format      ascii;
    class       volScalarField;
    location    "500";
    object      epsilon;
}
// * * * * * * * * * * * * * * * * * * * * * * * * * * * * * * * * * * * * * //

dimensions      [0 2 -3 0 0 0 0];

internalField   nonuniform List<scalar> 
459
(
0.00013076
0.000146254
0.00013599
0.000151139
0.000165686
0.000179081
0.000191477
0.000203213
0.000214775
0.000226905
0.00023753
0.000245693
0.000251068
0.000254282
0.000254696
5.54353e-05
0.000106339
0.000108289
9.22024e-05
8.07502e-05
7.09206e-05
5.91948e-05
4.88169e-05
4.04851e-05
3.38172e-05
2.83775e-05
2.38836e-05
2.01339e-05
1.69726e-05
1.42626e-05
1.18676e-05
9.63476e-06
8.6975e-06
7.12059e-06
0.000502709
0.00114399
0.000135708
0.000114029
0.000114312
0.000116587
0.00012028
0.00012637
0.000135969
0.000150153
0.000166939
0.000184968
0.000202541
0.000218424
0.000239014
0.000304784
9.7909e-05
7.07965e-05
0.000136295
9.26542e-05
6.84275e-05
5.45456e-05
4.70935e-05
4.48674e-05
3.68252e-05
3.01831e-05
2.48092e-05
2.03619e-05
1.66946e-05
1.36837e-05
1.12296e-05
9.32411e-06
8.20751e-06
7.87641e-06
3.63561e-05
2.00718e-05
0.00119882
0.00380014
0.000244773
0.000117279
0.00011193
0.000115456
0.000121676
0.000130942
0.000143657
0.000159806
0.000177639
0.000194242
0.000207915
0.000220745
0.000242442
0.000293776
0.000413401
0.000211851
0.000208403
0.00011405
7.2259e-05
5.34048e-05
4.77023e-05
9.66856e-05
6.12413e-05
4.10385e-05
2.9413e-05
2.23451e-05
1.77394e-05
1.4555e-05
1.22998e-05
1.08344e-05
9.31004e-06
9.57401e-06
8.47085e-05
3.70164e-05
0.00237948
0.0089092
0.000558367
0.000135256
0.000118197
0.00012501
0.00013523
0.000148355
0.000164846
0.000184996
0.000206735
0.000223455
0.0002322
0.000236375
0.000246628
0.000283308
0.000383907
0.000574813
0.00036393
0.00016984
0.000104288
6.75426e-05
5.06433e-05
4.57596e-05
9.69913e-05
8.55503e-05
8.4046e-05
8.52201e-05
8.57001e-05
8.30484e-05
7.57741e-05
6.79866e-05
5.90367e-05
3.82837e-05
2.72777e-05
0.000206914
5.33529e-05
0.00415426
0.0164871
0.0013435
0.00017941
0.000125416
0.00013374
0.000149497
0.000170287
0.000196951
0.000230099
0.00026528
0.000287656
0.000292474
0.000283293
0.000265969
0.000245931
0.000226568
0.000194649
0.000137976
0.000102506
8.07591e-05
6.861e-05
5.51772e-05
4.93597e-05
5.21586e-05
5.52287e-05
5.97082e-05
6.41939e-05
6.68948e-05
6.59086e-05
6.03647e-05
5.40343e-05
4.91857e-05
4.25038e-05
3.57037e-05
0.000122945
8.54043e-05
0.000112056
0.000183232
0.000259961
0.00664013
0.0242369
0.00326614
0.000360288
0.000159218
0.000150672
0.000166159
0.000193141
0.000233484
0.000294204
0.00035536
0.000384433
0.000383495
0.000362509
0.000328831
0.000284329
0.000228086
0.000165707
0.000113485
8.56205e-05
7.56193e-05
7.79487e-05
6.59637e-05
5.91521e-05
5.96507e-05
6.52786e-05
7.39895e-05
8.36682e-05
9.16875e-05
9.47973e-05
8.93968e-05
7.47053e-05
6.12358e-05
5.03176e-05
4.43544e-05
7.70387e-05
8.31893e-05
9.1189e-05
0.000344243
0.000307081
0.00993085
0.0283635
0.00785666
0.00163443
0.000550418
0.00032231
0.000274581
0.000281574
0.000319822
0.000427948
0.000506092
0.000520943
0.000497544
0.00045451
0.000401626
0.000339956
0.000267517
0.000192033
0.000128679
9.19123e-05
8.0216e-05
9.42927e-05
8.20975e-05
7.4384e-05
7.45382e-05
8.18481e-05
9.46613e-05
0.000110906
0.000127682
0.000141799
0.000147563
0.000133111
0.000108566
8.93163e-05
8.26044e-05
0.000101487
0.000139448
0.000236737
0.00053353
0.000504281
0.0109464
0.0357414
0.017171
0.0093566
0.00464287
0.00225464
0.00128194
0.000918871
0.000807332
0.000811706
0.000775686
0.000709442
0.000630389
0.000549637
0.000470802
0.000392491
0.000311961
0.000232841
0.000160269
0.0001097
8.93817e-05
0.000117202
0.000106869
9.78501e-05
9.77158e-05
0.000106334
0.000122026
0.000143694
0.000170909
0.000203364
0.000239507
0.000274577
0.00027738
0.000294341
0.000368393
0.000603644
0.00121302
0.00234625
0.00642914
0.00166265
0.010297
0.0183466
0.0147323
0.010915
0.00771978
0.0052113
0.00350812
0.00245621
0.00184323
0.00142437
0.00112937
0.00091554
0.000754139
0.000626308
0.000519847
0.000426959
0.000343375
0.000269277
0.00019953
0.000135699
0.000102521
0.000147678
0.00014618
0.00013521
0.000132046
0.000138693
0.000153394
0.000176053
0.000208503
0.000254262
0.00031829
0.000406841
0.000527308
0.000691849
0.000947556
0.00128988
0.00165637
0.0019355
0.00214251
0.0012685
0.00605514
0.00799632
0.0063458
0.00474971
0.00349739
0.00259376
0.00196757
0.00152676
0.00120774
0.000971275
0.000790294
0.000646767
0.000529381
0.000431738
0.000351256
0.000287854
0.00022622
0.000156523
0.000119974
0.000187976
0.000213652
0.000201285
0.000191545
0.000192255
0.000199873
0.000213825
0.000235771
0.000268875
0.000318507
0.000393214
0.000501919
0.000650442
0.000842496
0.00105017
0.00120132
0.00120964
0.00102366
0.000658793
0.00435707
0.00714828
0.00569032
0.00425746
0.00323083
0.00246108
0.00188485
0.00145599
0.00113471
0.00088997
0.000701269
0.000554138
0.000438715
0.00034869
0.000280591
0.000232264
0.000198263
0.000164267
0.000140695
0.000226643
0.000262987
0.000260915
0.000249494
0.000241503
0.000238648
0.000243228
0.000258368
0.00028734
0.000334113
0.000404996
0.000506203
0.000642191
0.000810096
0.000999017
0.00113836
0.00123349
0.000884128
0.000685791
0.00291598
0.00339697
0.00384682
0.00460316
0.00391118
0.00304579
0.00244169
0.00197157
0.00159141
0.00128353
0.00104115
0.000855901
0.000705556
0.000579569
0.000472762
0.000382677
0.000308256
0.000248986
0.000203514
0.000167219
0.000144318
0.000166456
0.000179185
0.000181125
0.000184131
0.000191161
0.000202535
0.000219172
0.000242473
0.000274663
0.000320101
0.000379889
0.000457058
0.000554164
0.000672395
0.000850782
0.000900181
0.000828808
0.000670026
0.000523145
)
;

boundaryField
{
    floor
    {
        Cmu             0.09;
        kappa           0.41;
        E               9.8;
        type            epsilonWallFunction;
        value           nonuniform List<scalar> 
29
(
0.000254696
5.54353e-05
0.000106339
0.000108289
9.22024e-05
8.07502e-05
7.09206e-05
5.91948e-05
4.88169e-05
4.04851e-05
3.38172e-05
2.83775e-05
2.38836e-05
2.01339e-05
1.69726e-05
1.42626e-05
1.18676e-05
9.63476e-06
8.6975e-06
7.12059e-06
7.12059e-06
2.00718e-05
3.70164e-05
5.33529e-05
0.000254696
5.54353e-05
7.07965e-05
0.000211851
0.000574813
)
;
    }
    ceiling
    {
        Cmu             0.09;
        kappa           0.41;
        E               9.8;
        type            epsilonWallFunction;
        value           nonuniform List<scalar> 
43
(
0.00291598
0.00339697
0.00384682
0.00460316
0.00391118
0.00304579
0.00244169
0.00197157
0.00159141
0.00128353
0.00104115
0.000855901
0.000705556
0.000579569
0.000472762
0.000382677
0.000308256
0.000248986
0.000203514
0.000167219
0.000144318
0.000166456
0.000179185
0.000181125
0.000184131
0.000191161
0.000202535
0.000219172
0.000242473
0.000274663
0.000320101
0.000379889
0.000457058
0.000554164
0.000672395
0.000850782
0.000900181
0.000828808
0.000670026
0.000523145
0.010297
0.0183466
0.00435707
)
;
    }
    sWall
    {
        Cmu             0.09;
        kappa           0.41;
        E               9.8;
        type            epsilonWallFunction;
        value           uniform 0.00291598;
    }
    nWall
    {
        Cmu             0.09;
        kappa           0.41;
        E               9.8;
        type            epsilonWallFunction;
        value           nonuniform List<scalar> 6(0.000259961 0.000307081 0.000504281 0.000658793 0.000685791 0.000523145);
    }
    sideWalls
    {
        type            empty;
    }
    glass1
    {
        Cmu             0.09;
        kappa           0.41;
        E               9.8;
        type            epsilonWallFunction;
        value           nonuniform List<scalar> 9(0.00013076 0.000502709 0.00119882 0.00237948 0.00415426 0.00664013 0.00993085 0.0109464 0.010297);
    }
    glass2
    {
        Cmu             0.09;
        kappa           0.41;
        E               9.8;
        type            epsilonWallFunction;
        value           nonuniform List<scalar> 2(0.00166265 0.0012685);
    }
    sun
    {
        Cmu             0.09;
        kappa           0.41;
        E               9.8;
        type            epsilonWallFunction;
        value           nonuniform List<scalar> 
14
(
0.00013076
0.000146254
0.00013599
0.000151139
0.000165686
0.000179081
0.000191477
0.000203213
0.000214775
0.000226905
0.00023753
0.000245693
0.000251068
0.000254282
)
;
    }
    heatsource1
    {
        Cmu             0.09;
        kappa           0.41;
        E               9.8;
        type            epsilonWallFunction;
        value           nonuniform List<scalar> 3(0.000112056 0.000183232 0.000259961);
    }
    heatsource2
    {
        Cmu             0.09;
        kappa           0.41;
        E               9.8;
        type            epsilonWallFunction;
        value           nonuniform List<scalar> 4(0.000304784 9.7909e-05 9.7909e-05 0.000413401);
    }
    Table_master
    {
        Cmu             0.09;
        kappa           0.41;
        E               9.8;
        type            epsilonWallFunction;
        value           nonuniform List<scalar> 9(9.66856e-05 6.12413e-05 4.10385e-05 2.9413e-05 2.23451e-05 1.77394e-05 1.4555e-05 1.22998e-05 1.08344e-05);
    }
    Table_slave
    {
        Cmu             0.09;
        kappa           0.41;
        E               9.8;
        type            epsilonWallFunction;
        value           nonuniform List<scalar> 9(9.69913e-05 8.55503e-05 8.4046e-05 8.52201e-05 8.57001e-05 8.30484e-05 7.57741e-05 6.79866e-05 5.90367e-05);
    }
    inlet
    {
        type            turbulentMixingLengthDissipationRateInlet;
        mixingLength    0.01;
        phi             phi;
        k               k;
        value           uniform 0.000101881;
    }
    outlet
    {
        type            zeroGradient;
    }
}


// ************************************************************************* //
