/*--------------------------------*- C++ -*----------------------------------*\
  =========                 |
  \\      /  F ield         | OpenFOAM: The Open Source CFD Toolbox
   \\    /   O peration     | Website:  https://openfoam.org
    \\  /    A nd           | Version:  6
     \\/     M anipulation  |
\*---------------------------------------------------------------------------*/
FoamFile
{
    version     2.0;
    format      ascii;
    class       volScalarField;
    location    "150";
    object      epsilon;
}
// * * * * * * * * * * * * * * * * * * * * * * * * * * * * * * * * * * * * * //

dimensions      [0 2 -3 0 0 0 0];

internalField   nonuniform List<scalar> 
459
(
0.000278327
0.000603135
0.000801489
0.000717652
0.000629247
0.000549564
0.000483312
0.000427509
0.000381244
0.000341614
0.000305514
0.000270578
0.000234648
0.000194959
0.000153331
5.35942e-05
0.00011617
0.000163614
0.000172191
0.000162954
0.000145347
0.000121315
9.98431e-05
8.27178e-05
6.93217e-05
5.87965e-05
5.0427e-05
4.36329e-05
3.80794e-05
3.33273e-05
2.90008e-05
2.47636e-05
1.92293e-05
1.51939e-05
0.000438554
0.000957955
0.000726607
0.000556073
0.000440851
0.000352198
0.00029663
0.00026332
0.00024309
0.000228456
0.000214017
0.000196817
0.000176015
0.000152096
0.000128738
0.000150207
0.000105697
0.000157207
0.000373142
0.000190765
0.000148167
0.000128209
0.000113692
0.000112434
9.42545e-05
7.64029e-05
6.1698e-05
5.01091e-05
4.10707e-05
3.39552e-05
2.83795e-05
2.41105e-05
2.17439e-05
2.36244e-05
2.21033e-05
2.51642e-05
0.000532267
0.00175513
0.000788117
0.000515998
0.000393092
0.000293672
0.000241801
0.000219981
0.00020898
0.000199285
0.000185938
0.000167994
0.000147361
0.0001266
0.000109232
0.000104987
0.000113375
0.000143618
0.00026109
0.000173084
0.000145251
0.000130004
0.00012558
0.00028548
0.000193462
0.000135428
9.8108e-05
7.33998e-05
5.65368e-05
4.47298e-05
3.66631e-05
3.1596e-05
2.37384e-05
2.37097e-05
3.1049e-05
3.57209e-05
0.000619056
0.00260902
0.00078115
0.000490447
0.000383414
0.000250293
0.000191292
0.000175294
0.000172067
0.000167315
0.000156836
0.000141653
0.000124573
0.000108437
9.61684e-05
8.93896e-05
9.41e-05
0.000126164
0.000137645
0.000131519
0.000134856
0.000136805
0.000133247
0.000138054
0.000390207
0.000297752
0.000234982
0.000187251
0.000148281
0.000115207
8.66572e-05
6.1936e-05
3.98804e-05
2.1855e-05
2.07305e-05
6.17994e-05
5.57351e-05
0.000846703
0.00306394
0.000752106
0.000530205
0.000447179
0.000226614
0.000141311
0.000126343
0.000130046
0.000130728
0.000125932
0.000117315
0.000107175
9.83416e-05
9.35224e-05
9.29512e-05
0.000108173
0.000127221
0.00014078
0.000159137
0.000172085
0.000173344
0.000164016
0.000152475
0.000159099
0.000155003
0.000146836
0.000133278
0.000115289
9.46213e-05
7.27111e-05
5.11335e-05
2.8945e-05
1.74519e-05
1.82367e-05
6.24135e-05
7.08168e-05
7.8565e-05
5.83663e-05
3.33321e-05
0.00123962
0.00286201
0.000707098
0.000631273
0.000582186
0.000249752
0.000127224
0.000102494
0.000103368
0.000106003
0.00010628
0.000104571
0.000102238
0.000102179
0.000107803
0.000121881
0.000152382
0.000187531
0.00021872
0.000238375
0.000241257
0.000227192
0.000202406
0.000176042
0.000156212
0.000141288
0.000127572
0.000111553
9.28244e-05
7.18184e-05
5.06743e-05
3.38655e-05
2.09771e-05
1.71627e-05
2.09715e-05
4.75809e-05
7.02944e-05
6.41741e-05
5.98169e-05
3.94335e-05
0.00149924
0.00298381
0.000694313
0.000767191
0.000795915
0.000330645
0.00015201
0.00011123
0.000107193
0.00010986
0.0001132
0.000116804
0.000121891
0.000131192
0.000148779
0.000177221
0.000220699
0.000269234
0.000303047
0.000311463
0.000294443
0.00025965
0.000217593
0.000176673
0.000144991
0.000123674
0.000105472
8.72111e-05
6.88487e-05
5.15028e-05
3.71174e-05
2.78137e-05
2.36248e-05
2.51712e-05
3.01934e-05
3.85602e-05
5.52346e-05
5.5085e-05
0.0001099
6.52199e-05
0.00142649
0.00430957
0.000719206
0.000891804
0.00103224
0.000432811
0.000213419
0.000168315
0.000164147
0.000168689
0.000175251
0.000183433
0.000194582
0.000211107
0.000236354
0.000273744
0.000323498
0.000367295
0.00038326
0.000365517
0.000320486
0.000266163
0.000214437
0.000171727
0.000139832
0.000115929
9.60294e-05
7.86729e-05
6.42539e-05
5.38953e-05
4.89003e-05
5.01154e-05
5.6642e-05
6.5106e-05
7.03621e-05
7.32684e-05
8.19802e-05
0.000126101
0.000546458
0.000332906
0.00121043
0.00111267
0.000795071
0.000960671
0.00112958
0.000549806
0.000368976
0.000340266
0.000347591
0.000359984
0.00037172
0.000383279
0.000396561
0.000413768
0.000436815
0.000465647
0.000494595
0.000508616
0.000494914
0.000453939
0.000398346
0.000340224
0.000288146
0.000245313
0.000211372
0.000184865
0.000164593
0.000150679
0.000144208
0.000146663
0.000159407
0.000182581
0.000212812
0.000241021
0.000256264
0.000258607
0.00027287
0.000410997
0.00135092
0.000729608
0.000718482
0.00123017
0.00113204
0.000788461
0.000776314
0.000837407
0.000897598
0.000939752
0.000964602
0.000976957
0.000981631
0.000982429
0.000981645
0.000979086
0.000971156
0.000951946
0.000918851
0.000874765
0.000825508
0.000775877
0.00072856
0.000685289
0.000647481
0.000616944
0.000595948
0.000587339
0.000594434
0.00062073
0.000668987
0.000738798
0.000821972
0.000898104
0.000938981
0.00092933
0.000903305
0.00100861
0.00180243
0.000744931
0.00347414
0.00365863
0.00241421
0.0018719
0.00196828
0.00216987
0.0023402
0.00244767
0.00249852
0.00250854
0.002493
0.002465
0.00243583
0.00241426
0.00240363
0.00239909
0.00238867
0.00236327
0.00232197
0.00226873
0.0022078
0.00214402
0.00208331
0.00203271
0.00199932
0.0019908
0.00201623
0.00208648
0.00221277
0.00240043
0.0026351
0.0028643
0.00299461
0.00293869
0.00272369
0.00253379
0.00219346
0.000822275
0.00102019
0.00122926
0.00162603
0.00186069
0.00182872
0.00176608
0.0017431
0.00173769
0.00173498
0.0017319
0.0017291
0.00172786
0.00172917
0.00173318
0.00173865
0.00174248
0.00174016
0.00172779
0.00170479
0.00167402
0.00163959
0.00160507
0.0015731
0.00154566
0.00152445
0.00151124
0.00150802
0.00151703
0.00154043
0.00157956
0.00163338
0.00169586
0.0017536
0.00178725
0.00178146
0.0017402
0.00168553
0.00161254
0.00137273
0.000721767
)
;

boundaryField
{
    floor
    {
        Cmu             0.09;
        kappa           0.41;
        E               9.8;
        type            epsilonWallFunction;
        value           nonuniform List<scalar> 
29
(
0.000153331
5.35942e-05
0.00011617
0.000163614
0.000172191
0.000162954
0.000145347
0.000121315
9.98431e-05
8.27178e-05
6.93217e-05
5.87965e-05
5.0427e-05
4.36329e-05
3.80794e-05
3.33273e-05
2.90008e-05
2.47636e-05
1.92293e-05
1.51939e-05
1.51939e-05
2.51642e-05
3.57209e-05
5.57351e-05
0.000153331
5.35942e-05
0.000157207
0.000143618
0.000126164
)
;
    }
    ceiling
    {
        Cmu             0.09;
        kappa           0.41;
        E               9.8;
        type            epsilonWallFunction;
        value           nonuniform List<scalar> 
43
(
0.00102019
0.00122926
0.00162603
0.00186069
0.00182872
0.00176608
0.0017431
0.00173769
0.00173498
0.0017319
0.0017291
0.00172786
0.00172917
0.00173318
0.00173865
0.00174248
0.00174016
0.00172779
0.00170479
0.00167402
0.00163959
0.00160507
0.0015731
0.00154566
0.00152445
0.00151124
0.00150802
0.00151703
0.00154043
0.00157956
0.00163338
0.00169586
0.0017536
0.00178725
0.00178146
0.0017402
0.00168553
0.00161254
0.00137273
0.000721767
0.00121043
0.00111267
0.00347414
)
;
    }
    sWall
    {
        Cmu             0.09;
        kappa           0.41;
        E               9.8;
        type            epsilonWallFunction;
        value           uniform 0.00102019;
    }
    nWall
    {
        Cmu             0.09;
        kappa           0.41;
        E               9.8;
        type            epsilonWallFunction;
        value           nonuniform List<scalar> 6(3.33321e-05 3.94335e-05 6.52199e-05 0.000744931 0.000822275 0.000721767);
    }
    sideWalls
    {
        type            empty;
    }
    glass1
    {
        Cmu             0.09;
        kappa           0.41;
        E               9.8;
        type            epsilonWallFunction;
        value           nonuniform List<scalar> 9(0.000278327 0.000438554 0.000532267 0.000619056 0.000846703 0.00123962 0.00149924 0.00142649 0.00121043);
    }
    glass2
    {
        Cmu             0.09;
        kappa           0.41;
        E               9.8;
        type            epsilonWallFunction;
        value           nonuniform List<scalar> 2(0.000332906 0.000729608);
    }
    sun
    {
        Cmu             0.09;
        kappa           0.41;
        E               9.8;
        type            epsilonWallFunction;
        value           nonuniform List<scalar> 
14
(
0.000278327
0.000603135
0.000801489
0.000717652
0.000629247
0.000549564
0.000483312
0.000427509
0.000381244
0.000341614
0.000305514
0.000270578
0.000234648
0.000194959
)
;
    }
    heatsource1
    {
        Cmu             0.09;
        kappa           0.41;
        E               9.8;
        type            epsilonWallFunction;
        value           nonuniform List<scalar> 3(7.8565e-05 5.83663e-05 3.33321e-05);
    }
    heatsource2
    {
        Cmu             0.09;
        kappa           0.41;
        E               9.8;
        type            epsilonWallFunction;
        value           nonuniform List<scalar> 4(0.000150207 0.000105697 0.000105697 0.000113375);
    }
    Table_master
    {
        Cmu             0.09;
        kappa           0.41;
        E               9.8;
        type            epsilonWallFunction;
        value           nonuniform List<scalar> 9(0.00028548 0.000193462 0.000135428 9.8108e-05 7.33998e-05 5.65368e-05 4.47298e-05 3.66631e-05 3.1596e-05);
    }
    Table_slave
    {
        Cmu             0.09;
        kappa           0.41;
        E               9.8;
        type            epsilonWallFunction;
        value           nonuniform List<scalar> 9(0.000390207 0.000297752 0.000234982 0.000187251 0.000148281 0.000115207 8.66572e-05 6.1936e-05 3.98804e-05);
    }
    inlet
    {
        type            turbulentMixingLengthDissipationRateInlet;
        mixingLength    0.01;
        phi             phi;
        k               k;
        value           uniform 0.000101881;
    }
    outlet
    {
        type            zeroGradient;
    }
}


// ************************************************************************* //
