/*--------------------------------*- C++ -*----------------------------------*\
  =========                 |
  \\      /  F ield         | OpenFOAM: The Open Source CFD Toolbox
   \\    /   O peration     | Website:  https://openfoam.org
    \\  /    A nd           | Version:  6
     \\/     M anipulation  |
\*---------------------------------------------------------------------------*/
FoamFile
{
    version     2.0;
    format      ascii;
    class       volScalarField;
    location    "150";
    object      nut;
}
// * * * * * * * * * * * * * * * * * * * * * * * * * * * * * * * * * * * * * //

dimensions      [0 2 -1 0 0 0 0];

internalField   nonuniform List<scalar> 
459
(
0.000923457
0.00119532
0.00131391
0.00126619
0.00121182
0.00115829
0.00110969
0.00106518
0.00102525
0.000988394
0.000952252
0.000914458
0.000872031
0.000819789
0.000756705
0.000532997
0.000689784
0.000773186
0.000786446
0.000772116
0.000743238
0.000699784
0.000655792
0.000615925
0.0005807
0.000549684
0.000522257
0.000497662
0.000475584
0.000454915
0.00043431
0.000412035
0.000378717
0.000350122
0.00107548
0.00326197
0.0033069
0.00331215
0.00328814
0.0031589
0.00304409
0.00295814
0.00285155
0.00270083
0.00250018
0.00224032
0.00191612
0.00153088
0.00112886
0.000751523
0.000668445
0.000762981
0.00263988
0.00253546
0.00283157
0.00303316
0.00291633
0.00212998
0.00177134
0.00153852
0.00137004
0.00124146
0.0011404
0.00106082
0.00097994
0.000889947
0.000802787
0.000754474
0.000646029
0.000414258
0.00114884
0.00412465
0.00331374
0.00335094
0.00359526
0.00359604
0.00362899
0.00371142
0.00374909
0.00367205
0.0034595
0.00311619
0.00266591
0.00214774
0.00162428
0.0011596
0.00068425
0.000740309
0.00237143
0.00278748
0.00341294
0.00383929
0.00353407
0.000930776
0.000817559
0.000725924
0.000651964
0.000591864
0.000542545
0.000501795
0.000469613
0.0004469
0.000512109
0.000656828
0.000774845
0.000465572
0.00120834
0.0046627
0.00306277
0.00326555
0.00389799
0.00399091
0.00414888
0.00436176
0.00442061
0.00431444
0.00405715
0.00367144
0.00318784
0.00264649
0.00209251
0.00157239
0.00103047
0.000709045
0.00126656
0.00211414
0.00323009
0.0041955
0.0047554
0.00433578
0.00103296
0.000943921
0.000872291
0.000808705
0.000748183
0.000687811
0.000625521
0.000559266
0.000482933
0.000491835
0.000627143
0.000959006
0.000539995
0.00133848
0.00468775
0.00272128
0.00323214
0.00435686
0.00453786
0.00482146
0.00498616
0.00491715
0.00474772
0.00448103
0.00412171
0.00368676
0.00321478
0.00274363
0.00233445
0.00204455
0.00229034
0.00315639
0.00422319
0.00517301
0.00584852
0.00619376
0.00608174
0.00501062
0.00435416
0.00374739
0.00318953
0.00266117
0.0021513
0.00165932
0.00119937
0.000760666
0.000597597
0.000683851
0.00103348
0.000816112
0.000605468
0.000548364
0.000454926
0.00151842
0.00416087
0.00230198
0.00318964
0.00473217
0.00496723
0.00529093
0.00543965
0.00534322
0.0051907
0.00499328
0.00474243
0.00443694
0.00413897
0.00389573
0.00381253
0.0040024
0.00478208
0.00573679
0.00651807
0.00705306
0.00732841
0.00736548
0.00715184
0.00659406
0.00583263
0.00499947
0.00416542
0.00335461
0.00255857
0.00181932
0.00126504
0.000914754
0.000861275
0.000952549
0.00113084
0.00103787
0.000821351
0.000758271
0.000481078
0.00161792
0.00372681
0.00181644
0.00301224
0.00507993
0.00530275
0.00551365
0.00566965
0.00563363
0.00557117
0.00550088
0.00541929
0.00533791
0.00529415
0.0053531
0.00560796
0.00612679
0.00691342
0.00756353
0.00795409
0.00810284
0.00803724
0.00779924
0.00737602
0.00672871
0.00592672
0.00504423
0.00414332
0.00327293
0.00248214
0.00184884
0.00146134
0.00132094
0.00135138
0.00137503
0.0012997
0.0011532
0.000930834
0.00105249
0.000568818
0.00159171
0.00385305
0.00133652
0.00262226
0.00528271
0.00562992
0.00567027
0.00562595
0.00559143
0.00561915
0.00568136
0.00576818
0.00589096
0.0060769
0.00636339
0.00678587
0.00733324
0.00786954
0.00819164
0.00824727
0.00807622
0.00769983
0.00718593
0.00659375
0.0059294
0.00520374
0.00443947
0.00368066
0.00298667
0.00242439
0.00205785
0.00191741
0.00195436
0.00204178
0.00201938
0.00183155
0.00152472
0.00130166
0.00204217
0.000979286
0.00150696
0.00146549
0.00105604
0.00220155
0.00503455
0.00593878
0.00582876
0.00566561
0.00565607
0.00573678
0.00585752
0.00600795
0.00619494
0.00643043
0.00672252
0.00706012
0.00738815
0.007591
0.00757228
0.00732143
0.0068819
0.00634072
0.00576307
0.00519309
0.00464703
0.004128
0.00364505
0.00322596
0.00291059
0.00273673
0.00272499
0.0028609
0.00307748
0.00325902
0.00328866
0.00310917
0.00273848
0.00252624
0.00361297
0.00127218
0.000587803
0.00242597
0.00526335
0.00601962
0.00605773
0.00612886
0.00626357
0.00640066
0.00652185
0.00663064
0.00673469
0.00683838
0.00693777
0.00701454
0.0070324
0.00694713
0.0067432
0.006445
0.00609554
0.00573424
0.00538662
0.00506599
0.00477817
0.00452896
0.00432896
0.00419445
0.00414365
0.00419091
0.00433883
0.00456735
0.0048241
0.00502924
0.00510314
0.00499678
0.00471791
0.00443636
0.00474884
0.00128122
0.00214129
0.00640989
0.00661969
0.00638479
0.00645739
0.00667019
0.00687964
0.00703311
0.0071299
0.00718335
0.00720621
0.00720724
0.00719101
0.00715758
0.00710219
0.00701747
0.00689915
0.00675138
0.00658486
0.00641091
0.00623773
0.00607188
0.00592055
0.00579317
0.00570097
0.00565653
0.00567276
0.00576071
0.00592483
0.00615447
0.00641349
0.00663576
0.00673661
0.00664481
0.00635589
0.00594186
0.0050744
0.00132433
0.00142322
0.00151447
0.00166247
0.00173887
0.00172881
0.00170881
0.00170136
0.0016996
0.00169872
0.00169772
0.0016968
0.00169639
0.00169681
0.00169812
0.0016999
0.00170115
0.00170039
0.00169635
0.00168879
0.00167857
0.00166699
0.00165521
0.00164415
0.00163454
0.00162703
0.00162232
0.00162117
0.00162439
0.0016327
0.00164642
0.00166491
0.00168587
0.00170479
0.00171562
0.00171377
0.00170043
0.00168243
0.00165778
0.00157115
0.00126808
)
;

boundaryField
{
    floor
    {
        type            nutkWallFunction;
        Cmu             0.09;
        kappa           0.41;
        E               9.8;
        value           nonuniform List<scalar> 
29
(
9.16505e-05
6.39276e-05
8.34795e-05
9.36565e-05
9.5264e-05
9.35294e-05
9.00209e-05
8.47102e-05
7.92936e-05
7.4347e-05
6.99443e-05
6.60407e-05
6.25664e-05
5.94317e-05
5.66014e-05
5.3937e-05
5.12658e-05
4.83601e-05
4.39764e-05
4.01739e-05
4.01739e-05
4.86478e-05
5.53086e-05
6.48112e-05
9.16505e-05
6.39276e-05
9.24165e-05
8.96616e-05
8.5841e-05
)
;
    }
    ceiling
    {
        type            nutkWallFunction;
        Cmu             0.09;
        kappa           0.41;
        E               9.8;
        value           nonuniform List<scalar> 
43
(
0.000169491
0.000179775
0.000196314
0.000204791
0.000203682
0.000201471
0.000200646
0.000200451
0.000200354
0.000200243
0.000200141
0.000200097
0.000200144
0.00020029
0.000200488
0.000200626
0.000200543
0.000200095
0.000199256
0.00019812
0.000196832
0.000195522
0.000194291
0.00019322
0.000192383
0.000191857
0.000191728
0.000192087
0.000193013
0.00019454
0.000196596
0.000198925
0.000201023
0.000202223
0.000202017
0.000200537
0.000198538
0.000195798
0.000186135
0.000151841
0.00017885
0.000174164
0.000248771
)
;
    }
    sWall
    {
        type            nutkWallFunction;
        Cmu             0.09;
        kappa           0.41;
        E               9.8;
        value           uniform 0.000169499;
    }
    nWall
    {
        type            nutkWallFunction;
        Cmu             0.09;
        kappa           0.41;
        E               9.8;
        value           nonuniform List<scalar> 6(5.39234e-05 5.72994e-05 6.84593e-05 0.000153373 0.000158281 0.000151847);
    }
    sideWalls
    {
        type            empty;
    }
    glass1
    {
        type            nutkWallFunction;
        Cmu             0.09;
        kappa           0.41;
        E               9.8;
        value           nonuniform List<scalar> 9(0.000111637 0.000129442 0.000137819 0.000144662 0.00015977 0.000180215 0.000191333 0.000188376 0.000178881);
    }
    glass2
    {
        type            nutkWallFunction;
        Cmu             0.09;
        kappa           0.41;
        E               9.8;
        value           nonuniform List<scalar> 2(0.000118332 0.000152348);
    }
    sun
    {
        type            nutkWallFunction;
        Cmu             0.09;
        kappa           0.41;
        E               9.8;
        value           nonuniform List<scalar> 
14
(
0.00011163
0.000143366
0.000156973
0.000151542
0.000145311
0.000139142
0.000133513
0.000128333
0.000123664
0.000119335
0.000115072
0.000110594
0.00010554
9.9277e-05
)
;
    }
    heatsource1
    {
        type            nutkWallFunction;
        Cmu             0.09;
        kappa           0.41;
        E               9.8;
        value           nonuniform List<scalar> 3(7.30335e-05 6.58615e-05 5.39221e-05);
    }
    heatsource2
    {
        type            nutkWallFunction;
        Cmu             0.09;
        kappa           0.41;
        E               9.8;
        value           nonuniform List<scalar> 4(9.10209e-05 8.0849e-05 8.0849e-05 8.27955e-05);
    }
    Table_master
    {
        type            nutkWallFunction;
        Cmu             0.09;
        kappa           0.41;
        E               9.8;
        value           nonuniform List<scalar> 9(0.000112554 9.9022e-05 8.79087e-05 7.88174e-05 7.13381e-05 6.51314e-05 5.99506e-05 5.58221e-05 5.28871e-05);
    }
    Table_slave
    {
        type            nutkWallFunction;
        Cmu             0.09;
        kappa           0.41;
        E               9.8;
        value           nonuniform List<scalar> 9(0.000124605 0.000114114 0.000105591 9.79561e-05 9.06238e-05 8.32388e-05 7.55372e-05 6.72422e-05 5.75334e-05);
    }
    inlet
    {
        type            calculated;
        value           uniform 0.000100623;
    }
    outlet
    {
        type            calculated;
        value           nonuniform List<scalar> 2(0.00142322 0.00151447);
    }
}


// ************************************************************************* //
