// -*- C++ -*-
// File generated by PyFoam - sorry for the ugliness

FoamFile
{
 version 2.0;
 format ascii;
 class volVectorField;
 location "200";
 object U;
}

dimensions [ 0 1 -1 0 0 0 0 ];

internalField nonuniform List<vector> 459
(
  (0.0386202 0.119801 0)
  (0.103542 -0.170138 0)
  (0.20493 -0.121648 0)
  (0.296821 -0.0777151 0)
  (0.351519 -0.0505862 0)
  (0.374667 -0.0337544 0)
  (0.379398 -0.0219173 0)
  (0.372099 -0.0120086 0)
  (0.355118 -0.00326573 0)
  (0.329068 0.00474336 0)
  (0.294469 0.0124115 0)
  (0.251751 0.0202382 0)
  (0.200724 0.0292586 0)
  (0.137372 0.04289 0)
  (0.0958818 0.0697853 0)
  (-0.10168 -0.00511689 0)
  (0.0379116 0.00593172 0)
  (-0.00985284 0.00354062 0)
  (-0.0126164 0.00271379 0)
  (-0.0167585 0.00146843 0)
  (-0.0196605 0.000351474 0)
  (-0.0213717 -0.000441013 0)
  (-0.0222481 -0.000880215 0)
  (-0.0226385 -0.00105216 0)
  (-0.0227961 -0.00104512 0)
  (-0.0229652 -0.000882527 0)
  (-0.0234441 -0.000569555 0)
  (-0.0242229 -0.000215874 0)
  (-0.0242264 -0.000346924 0)
  (-0.0216846 -0.00188752 0)
  (-0.0168216 -0.00453729 0)
  (-0.0166643 -0.0023028 0)
  (-0.0255874 3.61372e-05 0)
  (0.0679406 -0.00836156 0)
  (0.430281 -0.0902392 0)
  (0.216958 -0.18445 0)
  (0.261519 -0.13474 0)
  (0.316488 -0.07361 0)
  (0.341551 -0.0347508 0)
  (0.34985 -0.00954236 0)
  (0.349135 0.0102382 0)
  (0.339107 0.0262951 0)
  (0.320563 0.039771 0)
  (0.293721 0.0514464 0)
  (0.25906 0.0620127 0)
  (0.217354 0.072116 0)
  (0.169929 0.0826429 0)
  (0.116481 0.0953369 0)
  (0.0798733 0.112514 0)
  (0.0142656 0.0745818 0)
  (-0.0538741 -0.0248339 0)
  (-0.128902 0.00521152 0)
  (0.020907 0.0091412 0)
  (-0.0212254 0.00923051 0)
  (-0.0216176 0.00755065 0)
  (-0.0240726 0.00620571 0)
  (-0.0254348 0.00498166 0)
  (-0.0258873 0.00384614 0)
  (-0.0259422 0.00325344 0)
  (-0.0258382 0.00292571 0)
  (-0.0256996 0.00278346 0)
  (-0.0255138 0.0028088 0)
  (-0.0253889 0.00296482 0)
  (-0.025526 0.00296623 0)
  (-0.0256063 0.00165027 0)
  (-0.023817 -0.00328234 0)
  (-0.0183496 -0.0107779 0)
  (-0.0128185 -0.00808151 0)
  (-0.0299631 -0.00223667 0)
  (0.10758 -0.00891048 0)
  (0.537736 -0.316101 0)
  (0.129568 -0.274517 0)
  (0.204245 -0.170225 0)
  (0.247751 -0.0972632 0)
  (0.25421 -0.0549379 0)
  (0.255716 -0.0249174 0)
  (0.25601 0.00140511 0)
  (0.250749 0.0265261 0)
  (0.238666 0.0500155 0)
  (0.219324 0.0716838 0)
  (0.192827 0.0915495 0)
  (0.159768 0.109673 0)
  (0.121606 0.126186 0)
  (0.0778984 0.141302 0)
  (0.045212 0.153266 0)
  (0.00282626 0.105982 0)
  (-0.0359308 -0.0243112 0)
  (-0.134886 0.0273944 0)
  (-0.00551133 0.0127524 0)
  (-0.0320821 0.0113557 0)
  (-0.0301798 0.00837038 0)
  (-0.0296091 0.00549211 0)
  (-0.0282256 0.00182681 0)
  (-0.0257645 -0.00438194 0)
  (-0.0251878 -0.00606888 0)
  (-0.0248876 -0.00652541 0)
  (-0.0247725 -0.00680689 0)
  (-0.0245721 -0.00701568 0)
  (-0.0242428 -0.0073292 0)
  (-0.0244891 -0.00816172 0)
  (-0.0263924 -0.0106884 0)
  (-0.0277326 -0.0167769 0)
  (-0.0224105 -0.0230584 0)
  (-0.0149931 -0.0200906 0)
  (-0.0292487 -0.013911 0)
  (0.12621 -0.00937149 0)
  (0.573912 -0.435995 0)
  (-0.0390496 -0.294624 0)
  (0.121059 -0.162123 0)
  (0.152338 -0.0937237 0)
  (0.144105 -0.0549944 0)
  (0.144009 -0.0227006 0)
  (0.148912 0.00791232 0)
  (0.150428 0.0370708 0)
  (0.145903 0.0652037 0)
  (0.134937 0.0922616 0)
  (0.11755 0.117817 0)
  (0.0940629 0.141274 0)
  (0.0656264 0.161989 0)
  (0.0311691 0.179094 0)
  (0.00549041 0.184834 0)
  (-0.0199361 0.115118 0)
  (-0.050764 -0.0259692 0)
  (-0.0657783 -0.0484937 0)
  (-0.0723047 0.0237084 0)
  (-0.0404494 0.0109596 0)
  (-0.0500422 0.0108011 0)
  (-0.0499426 0.00816023 0)
  (-0.0517056 0.00499915 0)
  (-0.0539953 0.00119433 0)
  (-0.0558285 -0.00227975 0)
  (-0.0562358 -0.0028767 0)
  (-0.0556184 -0.00364172 0)
  (-0.0542206 -0.00435282 0)
  (-0.0522191 -0.00519051 0)
  (-0.0495051 -0.00632419 0)
  (-0.0452622 -0.00803015 0)
  (-0.0379507 -0.0110049 0)
  (-0.0280419 -0.0167151 0)
  (-0.0245995 -0.0264777 0)
  (-0.0262996 -0.029519 0)
  (-0.0367205 -0.0281782 0)
  (0.128816 -0.00794779 0)
  (0.585917 -0.496217 0)
  (-0.170528 -0.306112 0)
  (0.078867 -0.170453 0)
  (0.0746572 -0.0954352 0)
  (0.0475791 -0.0589662 0)
  (0.048669 -0.0274605 0)
  (0.0562114 0.00423707 0)
  (0.0611063 0.0371214 0)
  (0.0609117 0.0705594 0)
  (0.0557458 0.103531 0)
  (0.0454867 0.134878 0)
  (0.0301495 0.163645 0)
  (0.0107449 0.188934 0)
  (-0.0140348 0.207387 0)
  (-0.0259935 0.201691 0)
  (-0.0343361 0.125497 0)
  (-0.0454703 0.0262491 0)
  (-0.0539703 0.0104329 0)
  (-0.0549946 0.0149379 0)
  (-0.0507763 0.0101786 0)
  (-0.0521843 0.010972 0)
  (-0.0507552 0.00942367 0)
  (-0.0497093 0.00714737 0)
  (-0.048993 0.00450547 0)
  (-0.0483805 0.00208866 0)
  (-0.0474878 0.00032441 0)
  (-0.0463866 -0.000919006 0)
  (-0.0450744 -0.00183078 0)
  (-0.0436142 -0.00268269 0)
  (-0.0420223 -0.00371756 0)
  (-0.0401135 -0.00526519 0)
  (-0.0376271 -0.00809809 0)
  (-0.0354518 -0.0136661 0)
  (-0.0368913 -0.0223087 0)
  (-0.0446899 -0.026917 0)
  (-0.0565265 -0.0251962 0)
  (-0.0578042 -0.0124707 0)
  (-0.0543027 -0.0117535 0)
  (-0.04085 -0.019904 0)
  (-0.050323 -0.0294043 0)
  (0.556557 -0.507204 0)
  (-0.219593 -0.312595 0)
  (0.0395833 -0.174026 0)
  (0.00306653 -0.0711559 0)
  (-0.0342475 -0.0544259 0)
  (-0.0278115 -0.0305645 0)
  (-0.0236015 -0.000839135 0)
  (-0.0176944 0.0344579 0)
  (-0.0154737 0.0719061 0)
  (-0.0159256 0.109465 0)
  (-0.019809 0.145371 0)
  (-0.0271592 0.178288 0)
  (-0.0368032 0.205863 0)
  (-0.0478503 0.220873 0)
  (-0.0477269 0.203975 0)
  (-0.0441718 0.122165 0)
  (-0.044297 0.033559 0)
  (-0.0488059 0.0161241 0)
  (-0.0499171 0.0128616 0)
  (-0.0484379 0.00998578 0)
  (-0.0469879 0.00902609 0)
  (-0.0442493 0.00710982 0)
  (-0.041521 0.00470557 0)
  (-0.0391186 0.0021202 0)
  (-0.0370553 -0.00014418 0)
  (-0.0353112 -0.00182757 0)
  (-0.0337505 -0.00305141 0)
  (-0.032257 -0.00400001 0)
  (-0.0308117 -0.00486599 0)
  (-0.0294312 -0.00582717 0)
  (-0.0281424 -0.00711035 0)
  (-0.0271086 -0.00917639 0)
  (-0.0270864 -0.0126907 0)
  (-0.0295136 -0.0172944 0)
  (-0.0348476 -0.0199849 0)
  (-0.0408884 -0.0189453 0)
  (-0.0426637 -0.012975 0)
  (-0.0369972 -0.0132848 0)
  (-0.0279999 -0.0249274 0)
  (-0.0429937 -0.048127 0)
  (0.466765 -0.46558 0)
  (-0.200985 -0.289659 0)
  (-0.0504534 -0.152921 0)
  (-0.0625681 -0.0452763 0)
  (-0.106082 -0.0500709 0)
  (-0.0990174 -0.0324735 0)
  (-0.095059 -0.00367924 0)
  (-0.0883229 0.0313808 0)
  (-0.0830705 0.069806 0)
  (-0.0782928 0.109132 0)
  (-0.0748121 0.147258 0)
  (-0.0726606 0.182134 0)
  (-0.0710203 0.209825 0)
  (-0.068695 0.220563 0)
  (-0.0585055 0.194951 0)
  (-0.0466175 0.112087 0)
  (-0.0406915 0.0365378 0)
  (-0.042259 0.0172535 0)
  (-0.0418545 0.0114035 0)
  (-0.0393315 0.00786761 0)
  (-0.0358309 0.00551957 0)
  (-0.0315922 0.00321513 0)
  (-0.027419 0.000996864 0)
  (-0.0237624 -0.00104039 0)
  (-0.020985 -0.00270076 0)
  (-0.0188851 -0.00396702 0)
  (-0.0171678 -0.00495158 0)
  (-0.0156871 -0.00576863 0)
  (-0.014364 -0.00653367 0)
  (-0.0131787 -0.00736425 0)
  (-0.012174 -0.00840682 0)
  (-0.0115342 -0.00989482 0)
  (-0.0117425 -0.0120485 0)
  (-0.0134383 -0.0144955 0)
  (-0.0165952 -0.0158846 0)
  (-0.0199934 -0.0153296 0)
  (-0.0216406 -0.0136787 0)
  (-0.0198136 -0.0167524 0)
  (-0.0181001 -0.0329185 0)
  (-0.0404115 -0.0708272 0)
  (0.322356 -0.359748 0)
  (-0.253599 -0.227754 0)
  (-0.213546 -0.141471 0)
  (-0.139438 -0.0277357 0)
  (-0.187836 -0.0559052 0)
  (-0.167805 -0.0412733 0)
  (-0.157488 -0.0115633 0)
  (-0.147075 0.0247184 0)
  (-0.13791 0.0631949 0)
  (-0.127595 0.102362 0)
  (-0.116171 0.140428 0)
  (-0.103669 0.17499 0)
  (-0.0900538 0.201227 0)
  (-0.0753405 0.208424 0)
  (-0.0566957 0.178295 0)
  (-0.0387174 0.0990761 0)
  (-0.029149 0.0357376 0)
  (-0.0288874 0.0162595 0)
  (-0.026375 0.00854524 0)
  (-0.0216573 0.00374213 0)
  (-0.0158433 0.000526621 0)
  (-0.0102262 -0.00155197 0)
  (-0.00566789 -0.00288657 0)
  (-0.00229073 -0.00384631 0)
  (0.000190131 -0.00463048 0)
  (0.0019795 -0.00530508 0)
  (0.00332992 -0.00591115 0)
  (0.00439031 -0.00647935 0)
  (0.00524405 -0.00705031 0)
  (0.00592752 -0.00767923 0)
  (0.00642616 -0.00843876 0)
  (0.0066398 -0.00941888 0)
  (0.00633477 -0.0106496 0)
  (0.00524062 -0.0118653 0)
  (0.00338525 -0.0123697 0)
  (0.00124272 -0.0115702 0)
  (-0.000567873 -0.0100374 0)
  (-0.00219205 -0.0120057 0)
  (-0.0108309 -0.0288463 0)
  (-0.0407713 -0.0799094 0)
  (0.116567 -0.240806 0)
  (-0.463057 -0.218577 0)
  (-0.591875 -0.215855 0)
  (-0.176495 -0.104535 0)
  (-0.250888 -0.0853741 0)
  (-0.215105 -0.0564835 0)
  (-0.19995 -0.0229565 0)
  (-0.188626 0.0125902 0)
  (-0.176781 0.0504884 0)
  (-0.16146 0.0881153 0)
  (-0.142256 0.124104 0)
  (-0.119377 0.156408 0)
  (-0.0938143 0.180457 0)
  (-0.0675337 0.186136 0)
  (-0.0408199 0.156732 0)
  (-0.0159586 0.0856123 0)
  (-0.0027824 0.0339504 0)
  (-0.00178108 0.0163112 0)
  (0.0022784 0.00765509 0)
  (0.0096055 0.00243537 0)
  (0.0151274 -0.000338857 0)
  (0.0192043 -0.00155271 0)
  (0.0220716 -0.00201354 0)
  (0.0239914 -0.00223871 0)
  (0.0252509 -0.00244585 0)
  (0.0260518 -0.00269447 0)
  (0.02653 -0.00299384 0)
  (0.0267579 -0.00334055 0)
  (0.0267779 -0.0037429 0)
  (0.0266151 -0.00422537 0)
  (0.0262766 -0.00482331 0)
  (0.025739 -0.00556702 0)
  (0.0249382 -0.00642627 0)
  (0.0238122 -0.00719387 0)
  (0.0224231 -0.00740651 0)
  (0.0209871 -0.00651178 0)
  (0.0195066 -0.00441112 0)
  (0.0161038 -0.00342471 0)
  (0.00136493 -0.01463 0)
  (-0.0132976 -0.0752724 0)
  (-1.25736 -0.220542 0)
  (-0.0825583 -0.189422 0)
  (-0.234618 -0.121489 0)
  (-0.226519 -0.0660305 0)
  (-0.22083 -0.015141 0)
  (-0.211613 0.0276197 0)
  (-0.198114 0.0552108 0)
  (-0.17933 0.0812097 0)
  (-0.153774 0.106931 0)
  (-0.121533 0.130983 0)
  (-0.0845054 0.149563 0)
  (-0.0464908 0.154138 0)
  (-0.00811604 0.128054 0)
  (0.0269436 0.0698677 0)
  (0.0419224 0.0380781 0)
  (0.0460156 0.0237195 0)
  (0.0499648 0.013133 0)
  (0.052488 0.00490797 0)
  (0.0533326 0.00106077 0)
  (0.0533144 -0.000515059 0)
  (0.0529452 -0.00118367 0)
  (0.0524455 -0.00154242 0)
  (0.0518682 -0.00181138 0)
  (0.0511892 -0.0020679 0)
  (0.0503693 -0.00236446 0)
  (0.0493802 -0.00275709 0)
  (0.0482137 -0.00330581 0)
  (0.0468748 -0.00406925 0)
  (0.0453708 -0.00509817 0)
  (0.0437037 -0.00642153 0)
  (0.0418727 -0.00800482 0)
  (0.0399097 -0.00966398 0)
  (0.0379654 -0.0109613 0)
  (0.0364043 -0.011144 0)
  (0.0355918 -0.00926412 0)
  (0.0339381 -0.00585751 0)
  (0.0230948 -0.0120748 0)
  (0.0284503 -0.0815187 0)
  (-0.282798 -0.0452156 0)
  (0.00614986 -0.177475 0)
  (-0.156478 -0.158295 0)
  (-0.196767 -0.153472 0)
  (-0.221253 -0.145068 0)
  (-0.228065 -0.123913 0)
  (-0.218568 -0.0816602 0)
  (-0.197057 -0.0405277 0)
  (-0.16443 -0.00501434 0)
  (-0.121862 0.0261219 0)
  (-0.071806 0.0503631 0)
  (-0.0154192 0.0564247 0)
  (0.0437867 0.0176804 0)
  (0.0833942 -0.0396652 0)
  (0.101031 -0.0817641 0)
  (0.104522 -0.106499 0)
  (0.101516 -0.116797 0)
  (0.0956465 -0.114911 0)
  (0.0896567 -0.108254 0)
  (0.0849862 -0.101716 0)
  (0.0817065 -0.0968732 0)
  (0.0792578 -0.0937906 0)
  (0.0770978 -0.0920227 0)
  (0.0748886 -0.0910479 0)
  (0.0724787 -0.0904452 0)
  (0.0698368 -0.0899464 0)
  (0.0669877 -0.0894238 0)
  (0.0639634 -0.0888462 0)
  (0.0607797 -0.0882317 0)
  (0.0574363 -0.0876132 0)
  (0.0539436 -0.0870249 0)
  (0.0503849 -0.0865051 0)
  (0.0470397 -0.0861145 0)
  (0.0446076 -0.0859538 0)
  (0.0445205 -0.0861269 0)
  (0.0481788 -0.0872011 0)
  (0.0585453 -0.0975293 0)
  (0.0547864 -0.181377 0)
  (0.472023 0.191829 0)
  (0.214022 -0.156608 0)
  (-0.150116 0.390252 0)
  (0.0116122 0.23988 0)
  (-0.110906 0.263672 0)
  (-0.157969 0.309341 0)
  (-0.186693 0.332375 0)
  (-0.200369 0.335834 0)
  (-0.198278 0.318244 0)
  (-0.17882 0.305654 0)
  (-0.14356 0.30226 0)
  (-0.0965605 0.305825 0)
  (-0.0454635 0.315453 0)
  (0.0347325 0.319739 0)
  (0.0866995 0.31649 0)
  (0.125152 0.321182 0)
  (0.145651 0.329214 0)
  (0.152374 0.333273 0)
  (0.151696 0.330328 0)
  (0.147705 0.318835 0)
  (0.142568 0.304928 0)
  (0.136855 0.29367 0)
  (0.13068 0.286564 0)
  (0.124249 0.2832 0)
  (0.117819 0.282453 0)
  (0.111574 0.283138 0)
  (0.105584 0.284327 0)
  (0.0998215 0.285468 0)
  (0.0941988 0.286338 0)
  (0.0885977 0.286925 0)
  (0.082884 0.287315 0)
  (0.0769109 0.287622 0)
  (0.0705141 0.287972 0)
  (0.0635086 0.288554 0)
  (0.055695 0.289696 0)
  (0.0468429 0.29194 0)
  (0.0366411 0.29589 0)
  (0.0252568 0.302106 0)
  (0.0234407 0.323271 0)
  (-0.0581452 0.484222 0)
)
;

boundaryField
{
  floor
  {
    type noSlip;
  }
  ceiling
  {
    type noSlip;
  }
  sWall
  {
    type noSlip;
  }
  nWall
  {
    type noSlip;
  }
  sideWalls
  {
    type empty;
  }
  glass1
  {
    type noSlip;
  }
  glass2
  {
    type noSlip;
  }
  sun
  {
    type noSlip;
  }
  heatsource1
  {
    type noSlip;
  }
  heatsource2
  {
    type noSlip;
  }
  Table_master
  {
    type noSlip;
  }
  Table_slave
  {
    type noSlip;
  }
  inlet
  {
    type fixedValue;
    value uniform (0.212132 -0.212132 0);
  }
  outlet
  {
    type zeroGradient;
  }
} 	// ************************************************************************* //

