/*--------------------------------*- C++ -*----------------------------------*\
  =========                 |
  \\      /  F ield         | OpenFOAM: The Open Source CFD Toolbox
   \\    /   O peration     | Website:  https://openfoam.org
    \\  /    A nd           | Version:  6
     \\/     M anipulation  |
\*---------------------------------------------------------------------------*/
FoamFile
{
    version     2.0;
    format      ascii;
    class       volScalarField;
    location    "800";
    object      epsilon;
}
// * * * * * * * * * * * * * * * * * * * * * * * * * * * * * * * * * * * * * //

dimensions      [0 2 -3 0 0 0 0];

internalField   nonuniform List<scalar> 
459
(
0.000442616
0.000576984
0.000609216
0.000701131
0.000794
0.000887891
0.000986639
0.00109077
0.00116898
0.00120388
0.00118072
0.00109457
0.000954688
0.000786977
0.000627692
3.73862e-05
6.86023e-05
9.71638e-05
9.47403e-05
8.49903e-05
7.34208e-05
6.06376e-05
4.95719e-05
4.07789e-05
3.38974e-05
2.84882e-05
2.41917e-05
2.07542e-05
1.79583e-05
1.56127e-05
1.35494e-05
1.1602e-05
1.0337e-05
7.81409e-06
0.00112311
0.00161455
0.000546372
0.000529887
0.000555322
0.000596103
0.000655399
0.000734578
0.000810742
0.000860749
0.000865099
0.000816506
0.000721105
0.000601956
0.000521342
0.000662256
0.000139818
4.77079e-05
0.000117329
0.000121878
0.000109439
9.22828e-05
7.66328e-05
6.82755e-05
5.52406e-05
4.38281e-05
3.47955e-05
2.78252e-05
2.24671e-05
1.83527e-05
1.52002e-05
1.28888e-05
1.1497e-05
1.08988e-05
2.49663e-05
1.75253e-05
0.00204951
0.00395695
0.000683219
0.00050819
0.000532061
0.000596702
0.00069172
0.000811671
0.000924131
0.000996063
0.00100873
0.000961074
0.000863149
0.000736223
0.000626167
0.000564935
0.000641762
0.000382494
0.000266927
0.000198714
0.000152
0.00011879
9.90449e-05
0.000177974
0.000122717
8.76935e-05
6.48588e-05
4.94915e-05
3.88316e-05
3.12456e-05
2.57609e-05
2.1814e-05
1.65589e-05
1.37757e-05
4.44501e-05
2.7124e-05
0.00331928
0.00820572
0.00109697
0.000522185
0.000525649
0.000618263
0.000765971
0.000950309
0.00109912
0.00117751
0.00118011
0.00111693
0.00100065
0.000849779
0.000711476
0.000610133
0.000581364
0.00111126
0.000612957
0.000365664
0.000243699
0.000174739
0.000132403
0.000112644
0.000255303
0.000192801
0.000154966
0.000129732
0.0001106
9.47896e-05
8.11181e-05
6.82754e-05
5.51829e-05
3.25174e-05
2.11293e-05
6.91934e-05
3.65865e-05
0.00506621
0.0145952
0.00219338
0.000645007
0.000556937
0.000679716
0.00094365
0.00122065
0.00138141
0.00143504
0.00140395
0.00130624
0.00115406
0.000966957
0.000775354
0.000605282
0.000476491
0.000414242
0.000331729
0.00025844
0.000200473
0.000156729
0.000124756
0.000104015
0.000100244
9.29838e-05
8.5749e-05
7.86947e-05
7.13964e-05
6.37673e-05
5.62774e-05
4.92352e-05
4.27898e-05
3.39897e-05
2.58374e-05
5.12063e-05
4.04554e-05
6.85634e-05
0.000121775
0.000172092
0.00749217
0.0216264
0.00493931
0.00129847
0.000886661
0.00102347
0.00151077
0.00176727
0.00184054
0.00181211
0.00172
0.00157026
0.00136429
0.00111815
0.000863557
0.00063554
0.000461843
0.000351245
0.00027923
0.000223848
0.00017818
0.000142364
0.00011619
9.92514e-05
9.11994e-05
8.75577e-05
8.51623e-05
8.23035e-05
7.79506e-05
7.12678e-05
6.22787e-05
5.29852e-05
4.45007e-05
3.69062e-05
3.18285e-05
4.02857e-05
4.18638e-05
5.22974e-05
0.000224303
0.000195334
0.0102823
0.0258211
0.0101041
0.00422724
0.00292248
0.00284595
0.00288092
0.00275247
0.00256305
0.00236677
0.00216231
0.00192358
0.00163286
0.00130282
0.000970759
0.000679961
0.000465532
0.000331031
0.000250272
0.000196023
0.000155409
0.000125948
0.000106566
9.6027e-05
9.274e-05
9.36919e-05
9.60652e-05
9.84154e-05
9.97017e-05
9.83876e-05
9.14153e-05
8.07287e-05
7.01441e-05
6.10966e-05
5.7362e-05
6.33924e-05
7.99372e-05
0.000127031
0.000295132
0.000287513
0.0108926
0.0279807
0.0156533
0.0107532
0.0081406
0.00633757
0.00500096
0.00409345
0.00349593
0.00308067
0.00273297
0.00236737
0.00194538
0.00149014
0.00105322
0.000684847
0.000432788
0.000286615
0.000204584
0.000158804
0.000128696
0.000109526
9.90956e-05
9.56554e-05
9.756e-05
0.000103079
0.000111002
0.000121055
0.000133376
0.000147887
0.000163571
0.000173087
0.000181589
0.000200033
0.000238892
0.000356115
0.000653684
0.00123628
0.00366862
0.00109821
0.010047
0.0167546
0.0133438
0.0101317
0.00781915
0.00627832
0.00528822
0.00466551
0.00424093
0.00386125
0.00341896
0.00286204
0.00220326
0.0015494
0.000983169
0.000537198
0.00031499
0.000210854
0.000156604
0.000125579
0.000106903
9.66585e-05
9.27372e-05
9.37013e-05
9.85505e-05
0.00010669
0.000118105
0.000133489
0.000154157
0.000181993
0.000219487
0.000270337
0.000340372
0.000446206
0.000602652
0.000816664
0.00106457
0.00128468
0.00145451
0.000915025
0.00367157
0.00565987
0.00655619
0.00666648
0.00649018
0.00611514
0.00550376
0.0046739
0.00370477
0.00264387
0.00155842
0.000882762
0.000495107
0.000284977
0.000185906
0.000137706
0.000112307
9.79279e-05
8.97266e-05
8.57116e-05
8.46328e-05
8.58278e-05
8.90782e-05
9.45729e-05
0.000102819
0.000114735
0.000131721
0.000155816
0.000189997
0.000238574
0.000306526
0.000400658
0.000524686
0.000668372
0.000795658
0.000856616
0.000819134
0.00052619
0.00278101
0.00638404
0.00711392
0.00591923
0.00529643
0.00460498
0.00368682
0.00272992
0.00189177
0.00123691
0.000740912
0.000435861
0.000269804
0.000186937
0.000148885
0.000131583
0.000123504
0.000119408
0.000116977
0.000115274
0.000114051
0.000113412
0.000113829
0.000116039
0.000120646
0.000128472
0.000140738
0.000159262
0.000186754
0.000226605
0.000283292
0.000361383
0.000461518
0.000575904
0.000662364
0.000755775
0.000756736
0.00055763
0.00198756
0.00236504
0.00265976
0.00332053
0.00300379
0.00264209
0.00242454
0.00214252
0.00177811
0.00138506
0.00101625
0.000708233
0.000475426
0.000320994
0.000229253
0.000176052
0.000143948
0.000123513
0.000110067
0.000101236
9.57017e-05
9.27099e-05
9.18735e-05
9.3228e-05
9.70069e-05
0.000103068
0.000111713
0.000123506
0.000139322
0.000160539
0.000187675
0.000222076
0.000265819
0.00032152
0.00039152
0.000486903
0.000521559
0.000482891
0.000400323
0.000323881
)
;

boundaryField
{
    floor
    {
        Cmu             0.09;
        kappa           0.41;
        E               9.8;
        type            epsilonWallFunction;
        value           nonuniform List<scalar> 
29
(
0.000627692
3.73862e-05
6.86023e-05
9.71638e-05
9.47403e-05
8.49903e-05
7.34208e-05
6.06376e-05
4.95719e-05
4.07789e-05
3.38974e-05
2.84882e-05
2.41917e-05
2.07542e-05
1.79583e-05
1.56127e-05
1.35494e-05
1.1602e-05
1.0337e-05
7.81409e-06
7.81409e-06
1.75253e-05
2.7124e-05
3.65865e-05
0.000627692
3.73862e-05
4.77079e-05
0.000382494
0.00111126
)
;
    }
    ceiling
    {
        Cmu             0.09;
        kappa           0.41;
        E               9.8;
        type            epsilonWallFunction;
        value           nonuniform List<scalar> 
43
(
0.00198756
0.00236504
0.00265976
0.00332053
0.00300379
0.00264209
0.00242454
0.00214252
0.00177811
0.00138506
0.00101625
0.000708233
0.000475426
0.000320994
0.000229253
0.000176052
0.000143948
0.000123513
0.000110067
0.000101236
9.57017e-05
9.27099e-05
9.18735e-05
9.3228e-05
9.70069e-05
0.000103068
0.000111713
0.000123506
0.000139322
0.000160539
0.000187675
0.000222076
0.000265819
0.00032152
0.00039152
0.000486903
0.000521559
0.000482891
0.000400323
0.000323881
0.010047
0.0167546
0.00278101
)
;
    }
    sWall
    {
        Cmu             0.09;
        kappa           0.41;
        E               9.8;
        type            epsilonWallFunction;
        value           uniform 0.00198756;
    }
    nWall
    {
        Cmu             0.09;
        kappa           0.41;
        E               9.8;
        type            epsilonWallFunction;
        value           nonuniform List<scalar> 6(0.000172092 0.000195334 0.000287513 0.00052619 0.00055763 0.000323881);
    }
    sideWalls
    {
        type            empty;
    }
    glass1
    {
        Cmu             0.09;
        kappa           0.41;
        E               9.8;
        type            epsilonWallFunction;
        value           nonuniform List<scalar> 9(0.000442616 0.00112311 0.00204951 0.00331928 0.00506621 0.00749217 0.0102823 0.0108926 0.010047);
    }
    glass2
    {
        Cmu             0.09;
        kappa           0.41;
        E               9.8;
        type            epsilonWallFunction;
        value           nonuniform List<scalar> 2(0.00109821 0.000915025);
    }
    sun
    {
        Cmu             0.09;
        kappa           0.41;
        E               9.8;
        type            epsilonWallFunction;
        value           nonuniform List<scalar> 
14
(
0.000442616
0.000576984
0.000609216
0.000701131
0.000794
0.000887891
0.000986639
0.00109077
0.00116898
0.00120388
0.00118072
0.00109457
0.000954688
0.000786977
)
;
    }
    heatsource1
    {
        Cmu             0.09;
        kappa           0.41;
        E               9.8;
        type            epsilonWallFunction;
        value           nonuniform List<scalar> 3(6.85634e-05 0.000121775 0.000172092);
    }
    heatsource2
    {
        Cmu             0.09;
        kappa           0.41;
        E               9.8;
        type            epsilonWallFunction;
        value           nonuniform List<scalar> 4(0.000662256 0.000139818 0.000139818 0.000641762);
    }
    Table_master
    {
        Cmu             0.09;
        kappa           0.41;
        E               9.8;
        type            epsilonWallFunction;
        value           nonuniform List<scalar> 9(0.000177974 0.000122717 8.76935e-05 6.48588e-05 4.94915e-05 3.88316e-05 3.12456e-05 2.57609e-05 2.1814e-05);
    }
    Table_slave
    {
        Cmu             0.09;
        kappa           0.41;
        E               9.8;
        type            epsilonWallFunction;
        value           nonuniform List<scalar> 9(0.000255303 0.000192801 0.000154966 0.000129732 0.0001106 9.47896e-05 8.11181e-05 6.82754e-05 5.51829e-05);
    }
    inlet
    {
        type            turbulentMixingLengthDissipationRateInlet;
        mixingLength    0.01;
        phi             phi;
        k               k;
        value           uniform 0.000101881;
    }
    outlet
    {
        type            zeroGradient;
    }
}


// ************************************************************************* //
