/*--------------------------------*- C++ -*----------------------------------*\
  =========                 |
  \\      /  F ield         | OpenFOAM: The Open Source CFD Toolbox
   \\    /   O peration     | Website:  https://openfoam.org
    \\  /    A nd           | Version:  6
     \\/     M anipulation  |
\*---------------------------------------------------------------------------*/
FoamFile
{
    version     2.0;
    format      ascii;
    class       volScalarField;
    location    "800";
    object      nut;
}
// * * * * * * * * * * * * * * * * * * * * * * * * * * * * * * * * * * * * * //

dimensions      [0 2 -1 0 0 0 0];

internalField   nonuniform List<scalar> 
459
(
0.00107743
0.00117697
0.00119849
0.00125597
0.00130914
0.00135883
0.00140744
0.00145531
0.00148929
0.00150397
0.00149426
0.001457
0.00139208
0.00130527
0.00121049
0.000472733
0.00057875
0.00064995
0.000644501
0.000621587
0.000591995
0.000555426
0.000519346
0.00048662
0.000457545
0.000431784
0.000408884
0.00038852
0.000370226
0.00035335
0.000337043
0.000320054
0.000307972
0.000280546
0.00146955
0.00359228
0.00343934
0.00400426
0.00455782
0.00511153
0.00560146
0.0059671
0.00629734
0.00656544
0.00673322
0.00675661
0.00656874
0.0060034
0.00446874
0.00123231
0.000733781
0.000512753
0.00106903
0.0014713
0.00175723
0.00190734
0.0019002
0.00153458
0.00132682
0.00117741
0.00106225
0.000970421
0.000895506
0.000830591
0.000770016
0.000711264
0.000659086
0.000613487
0.000717383
0.000367226
0.00179582
0.00490706
0.00427006
0.00536958
0.00591653
0.00632027
0.00663167
0.00687534
0.00713885
0.00741394
0.00766796
0.00785257
0.00791487
0.00778018
0.00725011
0.00559953
0.00121947
0.00102625
0.00146551
0.0018679
0.00222317
0.00246155
0.00239157
0.000795239
0.000702555
0.000628108
0.000568026
0.000519065
0.000478748
0.000445289
0.000417541
0.000395024
0.000425843
0.000492443
0.000805148
0.000424779
0.00210892
0.00627306
0.00428122
0.00569255
0.00618346
0.00634815
0.00644811
0.00656546
0.00677039
0.00704954
0.00736976
0.00767003
0.0078952
0.00798743
0.00787279
0.00730906
0.00540603
0.00146437
0.00181538
0.00233715
0.00283305
0.00321958
0.00345139
0.00322836
0.000896872
0.000816736
0.000759376
0.000715694
0.000678626
0.000644612
0.000612
0.00057783
0.000538245
0.000505525
0.00051678
0.00091817
0.000469338
0.00242814
0.00802624
0.00470566
0.00547615
0.00613334
0.00618126
0.0061196
0.00617124
0.00635108
0.00663392
0.00699445
0.00734877
0.00762148
0.00775036
0.00771272
0.0074678
0.0068538
0.00565912
0.00524649
0.00510554
0.00505341
0.00502029
0.00496417
0.0047724
0.00403014
0.00367463
0.0034679
0.00330804
0.00313964
0.00289793
0.00257056
0.00217217
0.00172876
0.00128093
0.000944059
0.000943526
0.000628997
0.000578641
0.000700753
0.00078638
0.0027664
0.00993467
0.00647622
0.0054356
0.00592925
0.0061513
0.00600967
0.00605782
0.00619446
0.00644874
0.00681059
0.00719899
0.00750086
0.00762694
0.00755349
0.00732483
0.00701881
0.00670039
0.00652067
0.00639156
0.00625044
0.00609172
0.00591305
0.00568622
0.00534903
0.00504637
0.0047777
0.00452085
0.00426086
0.00398078
0.00362861
0.00318953
0.00266273
0.00207771
0.00155837
0.00116293
0.000876581
0.000744935
0.00106246
0.000820297
0.00307427
0.0112716
0.00907546
0.0069973
0.00661525
0.00654587
0.00633295
0.00619151
0.00622895
0.00647384
0.00687391
0.0073072
0.0076267
0.00772648
0.00759102
0.00731243
0.0070617
0.00696363
0.00696737
0.00690929
0.0067356
0.00647466
0.00615531
0.00579628
0.00541888
0.00507087
0.00475408
0.00446078
0.00419098
0.00395093
0.00374008
0.00344993
0.00304012
0.00253793
0.00205347
0.00161757
0.00129831
0.00119907
0.00122248
0.000933106
0.00313393
0.0100364
0.00891425
0.00822806
0.00763609
0.00694445
0.00639092
0.00616013
0.00627823
0.00667406
0.00720935
0.00770614
0.00799495
0.00798957
0.00772319
0.00735677
0.00712012
0.00710401
0.0071196
0.0069141
0.00653767
0.00606529
0.00556234
0.00508582
0.00467243
0.00432855
0.00403928
0.00379654
0.00360283
0.0034654
0.00339101
0.00335492
0.003148
0.0028246
0.00253872
0.00239104
0.00248028
0.00285629
0.00351213
0.00145861
0.00305064
0.00361762
0.00401778
0.00412153
0.00420132
0.00442188
0.00487436
0.00557118
0.0064337
0.00731246
0.00804445
0.0084767
0.00850336
0.00816176
0.00763075
0.00723681
0.00702716
0.00685923
0.0065748
0.00610765
0.00552582
0.00492544
0.0043856
0.00394441
0.00359947
0.00332717
0.00310474
0.00291875
0.00276065
0.00262193
0.00249379
0.00237498
0.0022805
0.00221072
0.00218448
0.00219478
0.00218371
0.00209788
0.00196185
0.00137253
0.00148989
0.00306503
0.00493698
0.00651131
0.00775274
0.00871249
0.00932931
0.00958438
0.00950888
0.00909849
0.00842594
0.00758863
0.00686267
0.00640801
0.00605622
0.00562832
0.00509688
0.00452263
0.00397711
0.00351108
0.00314628
0.00286772
0.00265219
0.00248213
0.00234727
0.00224273
0.00216605
0.00211616
0.00209482
0.00210022
0.00211862
0.00214641
0.00217617
0.00218408
0.00213141
0.00200525
0.00181549
0.00114137
0.00198813
0.00511045
0.00764161
0.00860639
0.00910277
0.00927165
0.00908141
0.00858692
0.00788881
0.00708971
0.00632524
0.00565088
0.00511043
0.00465564
0.00419798
0.00374405
0.00334044
0.00301301
0.00276103
0.00256793
0.00241141
0.00227947
0.00216706
0.0020788
0.00201512
0.00197529
0.00195786
0.00196015
0.00198802
0.00203848
0.00210802
0.00218938
0.00226662
0.00232002
0.00230314
0.00232944
0.00236393
0.00116366
0.00177754
0.00188361
0.00195881
0.00210918
0.00203987
0.00195446
0.00189928
0.00182258
0.00171277
0.00157592
0.00142139
0.00126019
0.00110342
0.000968005
0.000865267
0.000792365
0.000740935
0.00070407
0.000677533
0.000658906
0.000646673
0.000639863
0.000637933
0.000641053
0.0006496
0.000662856
0.000680893
0.000704056
0.000732911
0.000768374
0.000809432
0.000856141
0.00090902
0.000968533
0.00103426
0.00111222
0.00113801
0.00110916
0.00104195
0.000970898
)
;

boundaryField
{
    floor
    {
        type            nutkWallFunction;
        Cmu             0.09;
        kappa           0.41;
        E               9.8;
        value           nonuniform List<scalar> 
29
(
0.000145217
5.62107e-05
6.96821e-05
7.8557e-05
7.78821e-05
7.50364e-05
7.13426e-05
6.67465e-05
6.21754e-05
5.79952e-05
5.42518e-05
5.09102e-05
4.79186e-05
4.52403e-05
4.2819e-05
4.05716e-05
3.83868e-05
3.6096e-05
3.44571e-05
3.07048e-05
3.07047e-05
4.24199e-05
4.99967e-05
5.57729e-05
0.000145217
5.62106e-05
6.13357e-05
0.00012381
0.000174132
)
;
    }
    ceiling
    {
        type            nutkWallFunction;
        Cmu             0.09;
        kappa           0.41;
        E               9.8;
        value           nonuniform List<scalar> 
43
(
0.000208908
0.000220561
0.000228781
0.000245215
0.000237735
0.000228447
0.000222421
0.000214005
0.000201883
0.000186655
0.000169279
0.000150929
0.000132826
0.000116954
0.000104741
9.59727e-05
8.97302e-05
8.5224e-05
8.1963e-05
7.96648e-05
7.81513e-05
7.73073e-05
7.70678e-05
7.74548e-05
7.85137e-05
8.01527e-05
8.23767e-05
8.52223e-05
8.87517e-05
9.30668e-05
9.80336e-05
0.000103648
0.000109962
0.000117017
0.00012475
0.000133852
0.000136846
0.000133496
0.000125652
0.000117296
0.000345418
0.000404021
0.00023185
)
;
    }
    sWall
    {
        type            nutkWallFunction;
        Cmu             0.09;
        kappa           0.41;
        E               9.8;
        value           uniform 0.000208966;
    }
    nWall
    {
        type            nutkWallFunction;
        Cmu             0.09;
        kappa           0.41;
        E               9.8;
        value           nonuniform List<scalar> 6(9.52489e-05 9.9344e-05 0.000112826 0.000137245 0.000139827 0.000117302);
    }
    sideWalls
    {
        type            empty;
    }
    glass1
    {
        type            nutkWallFunction;
        Cmu             0.09;
        kappa           0.41;
        E               9.8;
        value           nonuniform List<scalar> 9(0.000129901 0.000174936 0.000211369 0.000245654 0.000280049 0.000315978 0.000348282 0.000354512 0.000345842);
    }
    glass2
    {
        type            nutkWallFunction;
        Cmu             0.09;
        kappa           0.41;
        E               9.8;
        value           nonuniform List<scalar> 2(0.000173555 0.000163809);
    }
    sun
    {
        type            nutkWallFunction;
        Cmu             0.09;
        kappa           0.41;
        E               9.8;
        value           nonuniform List<scalar> 
14
(
0.000129801
0.000141353
0.000143836
0.000150444
0.000156527
0.000162187
0.000167702
0.000173112
0.00017694
0.00017859
0.000177498
0.000173301
0.00016596
0.000156084
)
;
    }
    heatsource1
    {
        type            nutkWallFunction;
        Cmu             0.09;
        kappa           0.41;
        E               9.8;
        value           nonuniform List<scalar> 3(6.96702e-05 8.48176e-05 9.52487e-05);
    }
    heatsource2
    {
        type            nutkWallFunction;
        Cmu             0.09;
        kappa           0.41;
        E               9.8;
        value           nonuniform List<scalar> 4(0.000147723 8.88586e-05 8.88586e-05 0.000146247);
    }
    Table_master
    {
        type            nutkWallFunction;
        Cmu             0.09;
        kappa           0.41;
        E               9.8;
        value           nonuniform List<scalar> 9(9.63199e-05 8.50392e-05 7.58496e-05 6.83374e-05 6.21439e-05 5.69897e-05 5.26712e-05 4.90591e-05 4.61056e-05);
    }
    Table_slave
    {
        type            nutkWallFunction;
        Cmu             0.09;
        kappa           0.41;
        E               9.8;
        value           nonuniform List<scalar> 9(0.000108514 9.89137e-05 9.19745e-05 8.66484e-05 8.20985e-05 7.78972e-05 7.38439e-05 6.95688e-05 6.45774e-05);
    }
    inlet
    {
        type            calculated;
        value           uniform 0.000100623;
    }
    outlet
    {
        type            calculated;
        value           nonuniform List<scalar> 2(0.00177754 0.00188361);
    }
}


// ************************************************************************* //
