/*--------------------------------*- C++ -*----------------------------------*\
  =========                 |
  \\      /  F ield         | OpenFOAM: The Open Source CFD Toolbox
   \\    /   O peration     | Website:  https://openfoam.org
    \\  /    A nd           | Version:  6
     \\/     M anipulation  |
\*---------------------------------------------------------------------------*/
FoamFile
{
    version     2.0;
    format      ascii;
    class       volScalarField;
    location    "700";
    object      nut;
}
// * * * * * * * * * * * * * * * * * * * * * * * * * * * * * * * * * * * * * //

dimensions      [0 2 -1 0 0 0 0];

internalField   nonuniform List<scalar> 
459
(
0.00105653
0.00115211
0.00117164
0.0012271
0.00127814
0.00132548
0.00137126
0.00141839
0.0014535
0.00147137
0.0014668
0.00143612
0.00137938
0.00130294
0.00122036
0.000463133
0.00057168
0.000636489
0.000625001
0.000599593
0.000569133
0.000534024
0.00050009
0.000469396
0.00044209
0.00041784
0.00039622
0.000376989
0.000359638
0.000343566
0.000327965
0.000311615
0.000300317
0.000273988
0.00144686
0.0034811
0.00331512
0.00385803
0.00438504
0.00491694
0.00540076
0.00575229
0.00607398
0.00634114
0.00651338
0.00653954
0.00634384
0.00574647
0.00417239
0.00123951
0.000778245
0.000511251
0.00103506
0.00139812
0.00164388
0.00176208
0.00174771
0.00143976
0.00125477
0.00111953
0.00101425
0.000929572
0.000860047
0.000798455
0.000740953
0.000685556
0.000636934
0.000594076
0.000698841
0.000361986
0.00177344
0.00476025
0.00409714
0.00519148
0.0057308
0.00612867
0.00643518
0.00666525
0.00691213
0.0071737
0.00742089
0.00760308
0.00766631
0.00754113
0.00704662
0.00556496
0.00120297
0.00104172
0.00144798
0.00180181
0.00209764
0.00228419
0.00220907
0.000762807
0.000676179
0.000606548
0.000550247
0.000504261
0.000466295
0.000434704
0.000408412
0.000386933
0.000415506
0.00047807
0.000781947
0.000419856
0.00208854
0.00612559
0.00409497
0.0055143
0.00602753
0.00620126
0.00629144
0.00638477
0.00656306
0.00681681
0.00712292
0.00741606
0.00764337
0.00775648
0.00767293
0.00718517
0.00554942
0.00144901
0.00180223
0.00229439
0.00272539
0.00303536
0.00320683
0.00299323
0.000857019
0.000782759
0.000729911
0.000689899
0.000655969
0.000624502
0.000594333
0.000562614
0.000525608
0.000493552
0.000502272
0.000889619
0.000464366
0.00241061
0.0078878
0.00451764
0.005277
0.00598767
0.00606351
0.00599505
0.00599779
0.00615305
0.00640292
0.00674781
0.00709617
0.00737927
0.00753027
0.00751405
0.00728688
0.00670278
0.00548851
0.00503892
0.00484077
0.00472503
0.00463977
0.00455748
0.00438424
0.00374233
0.00344095
0.00326961
0.00313654
0.00299144
0.00277547
0.00247316
0.00209952
0.0016794
0.00124823
0.000918981
0.000913967
0.000618164
0.000576448
0.000698491
0.000782807
0.00275196
0.0098041
0.00628378
0.00519322
0.0057099
0.00597472
0.00585425
0.00587765
0.00600322
0.00623032
0.0065628
0.0069398
0.00725562
0.00741283
0.00736619
0.0071363
0.00678947
0.00639455
0.00612891
0.00592315
0.00572635
0.00554146
0.00536853
0.00517887
0.00490919
0.00467078
0.00445703
0.00424785
0.00403042
0.00379077
0.00347581
0.00307114
0.00257571
0.00201609
0.00151243
0.00112387
0.000851737
0.000727712
0.00104285
0.000815195
0.00306465
0.0111601
0.00889942
0.0067368
0.00630796
0.0063306
0.00618167
0.0060518
0.00605998
0.00625608
0.00661261
0.00702991
0.00736907
0.00750973
0.00740636
0.00711376
0.00677793
0.00654376
0.00642398
0.00628863
0.00607998
0.00581845
0.00552763
0.00522552
0.00492801
0.00466287
0.00442125
0.00419314
0.00397792
0.00378135
0.00360304
0.00333541
0.00294372
0.00245918
0.00198902
0.00156236
0.00125259
0.00115465
0.00117951
0.000919006
0.00312666
0.0100031
0.00884976
0.00812676
0.0076159
0.00698568
0.00639753
0.00608578
0.00610918
0.00642142
0.00690321
0.00739333
0.00772255
0.00777346
0.00753801
0.00712688
0.00675087
0.00656103
0.00646656
0.00621632
0.00582731
0.00537965
0.0049424
0.00456328
0.00425643
0.00400832
0.00379787
0.00361715
0.00346984
0.00336508
0.00331248
0.00328826
0.00307216
0.00274966
0.00246212
0.00230996
0.00238971
0.00275869
0.00342538
0.00144773
0.00304456
0.00361574
0.00402778
0.00416231
0.00421999
0.00437552
0.00473036
0.00531847
0.00609119
0.00691924
0.0076468
0.00813363
0.00826025
0.00799413
0.00745862
0.00690021
0.00654674
0.00626634
0.0059177
0.00542705
0.00486539
0.0043391
0.00390988
0.00358445
0.00333792
0.0031407
0.00297269
0.00282432
0.00269046
0.00256581
0.00244441
0.00232712
0.00223163
0.00216082
0.0021356
0.00214994
0.00214611
0.00206901
0.00193896
0.00136498
0.0015366
0.00310995
0.00472432
0.00611087
0.00724427
0.00817834
0.0088387
0.00917435
0.00919134
0.00891367
0.00831221
0.00749338
0.00665124
0.00601953
0.00556435
0.00508616
0.0045436
0.00399847
0.00351941
0.00314984
0.0028771
0.0026722
0.00251131
0.00237978
0.00227094
0.0021828
0.00211549
0.00207006
0.00204974
0.00205485
0.00207214
0.00209922
0.00212973
0.00214046
0.00209258
0.00197136
0.00178799
0.00113679
0.00200067
0.00493633
0.00730119
0.00823436
0.00877959
0.00902867
0.00894093
0.0085405
0.00790155
0.00712146
0.00630178
0.00555659
0.00492074
0.00438277
0.00387984
0.0034202
0.00304878
0.00277328
0.00257334
0.00241604
0.00228357
0.00216943
0.00207732
0.0020059
0.00195487
0.00192416
0.00191292
0.00191862
0.00194732
0.00199744
0.00206598
0.0021464
0.0022236
0.00227765
0.002265
0.00229621
0.00233641
0.00115882
0.00177801
0.00188403
0.00195945
0.00210341
0.00203014
0.00193912
0.00187897
0.00180463
0.00170201
0.00157255
0.00142286
0.00126308
0.0011055
0.000962722
0.000849123
0.000768341
0.000713801
0.000677487
0.000653566
0.000638358
0.000629727
0.000626304
0.000627889
0.000634439
0.000644976
0.000659656
0.000678715
0.000702488
0.000731526
0.000766822
0.000807579
0.000853669
0.000905683
0.000964184
0.00102893
0.00110543
0.0011327
0.00110528
0.00103831
0.000968206
)
;

boundaryField
{
    floor
    {
        type            nutkWallFunction;
        Cmu             0.09;
        kappa           0.41;
        E               9.8;
        value           nonuniform List<scalar> 
29
(
0.000146353
5.49724e-05
6.8793e-05
7.68875e-05
7.54601e-05
7.22919e-05
6.84721e-05
6.40384e-05
5.97187e-05
5.57799e-05
5.2249e-05
4.90901e-05
4.6254e-05
4.3715e-05
4.14097e-05
3.92615e-05
3.71639e-05
3.49515e-05
3.34138e-05
2.97999e-05
2.97999e-05
4.17224e-05
4.93536e-05
5.51317e-05
0.000146353
5.49724e-05
6.11436e-05
0.000125623
0.000172399
)
;
    }
    ceiling
    {
        type            nutkWallFunction;
        Cmu             0.09;
        kappa           0.41;
        E               9.8;
        value           nonuniform List<scalar> 
43
(
0.00020896
0.000220606
0.00022885
0.000244587
0.000236674
0.000226767
0.000220191
0.000212026
0.000200689
0.000186276
0.000169445
0.000151259
0.000133067
0.000116328
0.000102805
9.3061e-05
8.64143e-05
8.19555e-05
7.90029e-05
7.71191e-05
7.60477e-05
7.56224e-05
7.58197e-05
7.66335e-05
7.79405e-05
7.97571e-05
8.21082e-05
8.50298e-05
8.85825e-05
9.28785e-05
9.78101e-05
0.000103352
0.000109565
0.000116503
0.000124126
0.000133062
0.00013623
0.000133045
0.000125225
0.000116979
0.000344787
0.000403833
0.000233221
)
;
    }
    sWall
    {
        type            nutkWallFunction;
        Cmu             0.09;
        kappa           0.41;
        E               9.8;
        value           uniform 0.000209017;
    }
    nWall
    {
        type            nutkWallFunction;
        Cmu             0.09;
        kappa           0.41;
        E               9.8;
        value           nonuniform List<scalar> 6(9.48164e-05 9.87293e-05 0.000111152 0.000136715 0.000139267 0.000116984);
    }
    sideWalls
    {
        type            empty;
    }
    glass1
    {
        type            nutkWallFunction;
        Cmu             0.09;
        kappa           0.41;
        E               9.8;
        value           nonuniform List<scalar> 9(0.000127452 0.00017237 0.000208895 0.000243441 0.000278175 0.000314456 0.00034728 0.000353757 0.000345208);
    }
    glass2
    {
        type            nutkWallFunction;
        Cmu             0.09;
        kappa           0.41;
        E               9.8;
        value           nonuniform List<scalar> 2(0.000172327 0.00016295);
    }
    sun
    {
        type            nutkWallFunction;
        Cmu             0.09;
        kappa           0.41;
        E               9.8;
        value           nonuniform List<scalar> 
14
(
0.000127359
0.000138477
0.000140737
0.000147129
0.000152984
0.00015839
0.000163598
0.00016894
0.000172906
0.000174921
0.000174406
0.000170944
0.000164519
0.000155818
)
;
    }
    heatsource1
    {
        type            nutkWallFunction;
        Cmu             0.09;
        kappa           0.41;
        E               9.8;
        value           nonuniform List<scalar> 3(6.93949e-05 8.45401e-05 9.48163e-05);
    }
    heatsource2
    {
        type            nutkWallFunction;
        Cmu             0.09;
        kappa           0.41;
        E               9.8;
        value           nonuniform List<scalar> 4(0.000148551 9.42654e-05 9.42654e-05 0.000144349);
    }
    Table_master
    {
        type            nutkWallFunction;
        Cmu             0.09;
        kappa           0.41;
        E               9.8;
        value           nonuniform List<scalar> 9(9.23897e-05 8.17961e-05 7.31632e-05 6.60952e-05 6.02562e-05 5.53861e-05 5.12958e-05 4.78632e-05 4.50382e-05);
    }
    Table_slave
    {
        type            nutkWallFunction;
        Cmu             0.09;
        kappa           0.41;
        E               9.8;
        value           nonuniform List<scalar> 9(0.000103751 9.4809e-05 8.83848e-05 8.34843e-05 7.93019e-05 7.53999e-05 7.16366e-05 6.76546e-05 6.29741e-05);
    }
    inlet
    {
        type            calculated;
        value           uniform 0.000100623;
    }
    outlet
    {
        type            calculated;
        value           nonuniform List<scalar> 2(0.00177801 0.00188403);
    }
}


// ************************************************************************* //
