/*--------------------------------*- C++ -*----------------------------------*\
  =========                 |
  \\      /  F ield         | OpenFOAM: The Open Source CFD Toolbox
   \\    /   O peration     | Website:  https://openfoam.org
    \\  /    A nd           | Version:  6
     \\/     M anipulation  |
\*---------------------------------------------------------------------------*/
FoamFile
{
    version     2.0;
    format      ascii;
    class       volScalarField;
    location    "400";
    object      alphat;
}
// * * * * * * * * * * * * * * * * * * * * * * * * * * * * * * * * * * * * * //

dimensions      [1 -1 -1 0 0 0 0];

internalField   nonuniform List<scalar> 
459
(
0.00120945
0.00131651
0.00133483
0.00139644
0.00145306
0.00150535
0.00155559
0.00160684
0.00164648
0.00166741
0.00166354
0.00163047
0.00156807
0.00148415
0.00139387
0.000523604
0.000643305
0.000710406
0.000694682
0.000665696
0.000632038
0.000593863
0.000556997
0.000523523
0.000493603
0.000466907
0.000443153
0.000421921
0.000402656
0.000384745
0.000367323
0.000349112
0.000339591
0.000312496
0.00166666
0.00395797
0.00374207
0.00434762
0.00492472
0.00550968
0.00604775
0.00645114
0.00680807
0.00710556
0.00729628
0.00731918
0.00708008
0.00637001
0.00456117
0.00141123
0.000912651
0.000582965
0.00113788
0.00152448
0.00178973
0.00191964
0.00191041
0.00159307
0.00139875
0.00125521
0.00114259
0.00105136
0.0009738
0.000904362
0.000840036
0.000779144
0.000726457
0.000677751
0.000816141
0.000426919
0.00204938
0.00541884
0.00459538
0.00586391
0.00646075
0.00689502
0.00722772
0.0074816
0.00774565
0.00802749
0.008294
0.00849155
0.00854893
0.00838851
0.00782633
0.0062533
0.00137178
0.00118361
0.00161845
0.00198774
0.00229965
0.00250193
0.00242493
0.000844818
0.000751228
0.000676009
0.000615169
0.000565452
0.000524387
0.000490192
0.000461696
0.000438389
0.000472788
0.000543915
0.000916563
0.000501424
0.00241847
0.00701164
0.00457854
0.00623391
0.00681708
0.00699907
0.00708031
0.00717033
0.00734876
0.00761547
0.00793949
0.00826394
0.00850681
0.00861699
0.00851676
0.00797075
0.00615048
0.0016091
0.00201916
0.00255993
0.00301696
0.00334446
0.00353307
0.00330218
0.000948165
0.000870963
0.000817861
0.00077877
0.000745639
0.00071285
0.000681194
0.000647346
0.000607035
0.000571293
0.000580355
0.00106242
0.000557521
0.00279406
0.00906334
0.00505734
0.00594788
0.00678242
0.00686421
0.0067716
0.00672839
0.00687662
0.00713946
0.00749866
0.00789024
0.00819924
0.00835663
0.0083184
0.00803899
0.00736252
0.00600462
0.00547833
0.0052392
0.00510688
0.00502861
0.00496957
0.00481425
0.00414236
0.00384599
0.00368467
0.00355705
0.003411
0.00319966
0.00286309
0.00243625
0.00195331
0.00146051
0.00107697
0.00106994
0.000748691
0.000691913
0.000832799
0.000933705
0.00319021
0.0112829
0.00706738
0.0057855
0.00641165
0.00673895
0.00660041
0.00655915
0.00668868
0.00692967
0.00728446
0.00769089
0.00803356
0.0081984
0.00812529
0.00783026
0.0073885
0.00689307
0.00656044
0.00632259
0.00612183
0.00595437
0.00580504
0.00562964
0.00536073
0.00512368
0.00491061
0.00470076
0.00448207
0.00424478
0.00393049
0.00350299
0.00296201
0.00233815
0.00176533
0.00129593
0.0010138
0.000879063
0.00126407
0.000975217
0.003555
0.0128635
0.0101046
0.00747214
0.00689486
0.00698258
0.00687983
0.00675318
0.00675163
0.00694284
0.00730934
0.00774906
0.00811249
0.00825751
0.0081181
0.00774123
0.00728803
0.00694844
0.00677926
0.0066396
0.00644242
0.00618847
0.00589331
0.00558331
0.00528566
0.00502943
0.00480066
0.00458698
0.00438644
0.00420357
0.00403817
0.00378104
0.00336868
0.00283454
0.0023051
0.00181252
0.00147663
0.00138938
0.0014414
0.001112
0.00362634
0.0115959
0.0101998
0.00926569
0.00856416
0.00794549
0.00728666
0.00687427
0.00681924
0.00709222
0.00757
0.00807735
0.00843062
0.0084794
0.008189
0.00766164
0.00713679
0.00684355
0.00673741
0.00648694
0.00608534
0.00561903
0.00517337
0.00480509
0.00452408
0.00430841
0.00413216
0.00398535
0.00387025
0.00379524
0.00377015
0.00377259
0.00357531
0.00322299
0.0029091
0.00276398
0.00292221
0.00343453
0.00424422
0.00173518
0.00352843
0.00419971
0.0047052
0.00490517
0.00500752
0.00511541
0.00538832
0.00590922
0.0066499
0.00748612
0.00824668
0.00877267
0.00894156
0.00866141
0.00802206
0.00726844
0.00676029
0.00642117
0.00606246
0.0055501
0.0049633
0.00443399
0.00403014
0.00374788
0.00355077
0.0034027
0.00328047
0.00317232
0.0030713
0.00297138
0.00286708
0.00275673
0.00266553
0.00259906
0.00258136
0.00260295
0.0025925
0.00248572
0.0023196
0.00162181
0.0019464
0.00379819
0.00534518
0.00659317
0.0076916
0.00864298
0.00937219
0.00979048
0.00986313
0.00960294
0.00902219
0.00807565
0.00699049
0.00613017
0.00558956
0.00510573
0.00454265
0.003959
0.00346808
0.00312171
0.00289681
0.00275203
0.00265488
0.00258578
0.00253459
0.00249665
0.00247029
0.0024561
0.002457
0.00248212
0.00251538
0.00255485
0.00259301
0.00260119
0.00253265
0.00237329
0.0021358
0.00133424
0.0024292
0.00558241
0.00794278
0.00888863
0.00956079
0.00990169
0.00985646
0.00942959
0.00868094
0.00771058
0.00665596
0.00567025
0.00484559
0.0042149
0.00367619
0.00315744
0.00272397
0.00242263
0.00223293
0.00211279
0.0020418
0.00200697
0.00199811
0.00200991
0.00203966
0.00208544
0.00214487
0.00221372
0.00229563
0.00239217
0.00250096
0.00261488
0.00271679
0.00278758
0.00277018
0.00279642
0.00275886
0.00135621
0.00211995
0.0022444
0.00233396
0.00247214
0.00235741
0.00222576
0.00212296
0.00201003
0.00187971
0.00172507
0.00154604
0.00135231
0.00115876
0.000981951
0.000838348
0.000737765
0.000675162
0.000640131
0.000624221
0.000621491
0.000627887
0.000641068
0.00065907
0.000680809
0.000706125
0.00073505
0.000767769
0.000804664
0.000846447
0.000894431
0.000948915
0.00100913
0.00107584
0.00114974
0.00123073
0.00132937
0.0013587
0.0013239
0.00124095
0.00115131
)
;

boundaryField
{
    floor
    {
        type            compressible::alphatWallFunction;
        Prt             0.85;
        value           nonuniform List<scalar> 
29
(
0.000196665
7.28488e-05
9.08348e-05
0.000100734
9.84247e-05
9.41513e-05
8.91604e-05
8.34602e-05
7.79124e-05
7.28355e-05
6.82632e-05
6.41541e-05
6.04729e-05
5.71613e-05
5.41379e-05
5.13103e-05
4.85436e-05
4.56332e-05
4.4104e-05
3.97206e-05
3.97201e-05
5.79423e-05
6.94609e-05
7.79909e-05
0.000196663
7.28479e-05
8.18247e-05
0.0001679
0.000225609
)
;
    }
    ceiling
    {
        type            compressible::alphatWallFunction;
        Prt             0.85;
        value           nonuniform List<scalar> 
43
(
0.000292597
0.000308654
0.000320154
0.000337916
0.000323318
0.00030644
0.000293183
0.000278535
0.000261512
0.00024114
0.000217297
0.000191145
0.000164588
0.000139878
0.000119426
0.000104854
9.56642e-05
9.04772e-05
8.811e-05
8.77031e-05
8.86564e-05
9.06168e-05
9.32864e-05
9.64983e-05
0.000100223
0.000104459
0.000109226
0.000114573
0.000120593
0.000127463
0.000135211
0.000143714
0.000153064
0.000163346
0.000174526
0.000188032
0.000192026
0.000187286
0.000175932
0.000163566
0.000470065
0.000551682
0.000332186
)
;
    }
    sWall
    {
        type            compressible::alphatWallFunction;
        Prt             0.85;
        value           uniform 0.000291384;
    }
    nWall
    {
        type            compressible::alphatWallFunction;
        Prt             0.85;
        value           nonuniform List<scalar> 6(0.000132727 0.000138601 0.000157764 0.000188364 0.000191353 0.000163239);
    }
    sideWalls
    {
        type            empty;
    }
    glass1
    {
        type            compressible::alphatWallFunction;
        Prt             0.85;
        value           nonuniform List<scalar> 9(0.000167256 0.000228226 0.000277966 0.000325077 0.000372306 0.000421451 0.000466194 0.000475018 0.000463307);
    }
    glass2
    {
        type            compressible::alphatWallFunction;
        Prt             0.85;
        value           nonuniform List<scalar> 2(0.000240711 0.000225783);
    }
    sun
    {
        type            compressible::alphatWallFunction;
        Prt             0.85;
        value           nonuniform List<scalar> 
14
(
0.000171487
0.00018615
0.000188648
0.00019702
0.000204678
0.00021172
0.000218461
0.000225312
0.000230594
0.000233376
0.000232861
0.000228459
0.000220126
0.000208863
)
;
    }
    heatsource1
    {
        type            compressible::alphatWallFunction;
        Prt             0.85;
        value           nonuniform List<scalar> 3(9.81287e-05 0.000118624 0.000133046);
    }
    heatsource2
    {
        type            compressible::alphatWallFunction;
        Prt             0.85;
        value           nonuniform List<scalar> 4(0.000199143 0.000130052 0.00013005 0.000193792);
    }
    Table_master
    {
        type            compressible::alphatWallFunction;
        Prt             0.85;
        value           nonuniform List<scalar> 9(0.00012035 0.000106811 9.57827e-05 8.67533e-05 7.92932e-05 7.307e-05 6.78412e-05 6.34487e-05 5.98304e-05);
    }
    Table_slave
    {
        type            compressible::alphatWallFunction;
        Prt             0.85;
        value           nonuniform List<scalar> 9(0.000135098 0.000124102 0.000116472 0.000110818 0.000105999 0.000101204 9.65499e-05 9.15441e-05 8.55403e-05);
    }
    inlet
    {
        type            fixedValue;
        value           uniform 1.94e-05;
    }
    outlet
    {
        type            zeroGradient;
    }
}


// ************************************************************************* //
