/*--------------------------------*- C++ -*----------------------------------*\
  =========                 |
  \\      /  F ield         | OpenFOAM: The Open Source CFD Toolbox
   \\    /   O peration     | Website:  https://openfoam.org
    \\  /    A nd           | Version:  6
     \\/     M anipulation  |
\*---------------------------------------------------------------------------*/
FoamFile
{
    version     2.0;
    format      ascii;
    class       surfaceScalarField;
    location    "1100";
    object      phi;
}
// * * * * * * * * * * * * * * * * * * * * * * * * * * * * * * * * * * * * * //

dimensions      [1 0 -1 0 0 0 0];

internalField   nonuniform List<scalar> 
852
(
-0.00293683
0.00299307
-0.00397557
0.00103874
-0.00476478
0.000789207
-0.0053819
0.000617122
-0.00579774
0.000415843
-0.00598963
0.000191884
-0.00593567
-5.3954e-05
-0.00561842
-0.000317251
-0.00505042
-0.000568009
-0.00428379
-0.00076663
-0.00339943
-0.000884357
-0.00248627
-0.000913158
-0.00161925
-0.000867021
-0.000820749
-0.000798506
-0.00081931
-0.000676054
0.000678738
-0.000346432
-0.000329623
0.000261333
-0.000607766
0.000735025
-0.000473692
0.00104956
-0.000314536
0.00124521
-0.000195653
0.0013515
-0.000106292
0.00140415
-5.26506e-05
0.00143378
-2.96252e-05
0.00145184
-1.80607e-05
0.00146184
-1.0001e-05
0.00146487
-3.0384e-06
0.00145899
5.88371e-06
0.00143576
2.32327e-05
0.00137267
6.30902e-05
0.00123189
0.000140776
0.000998736
0.000233151
0.000706848
0.000291887
0.000710455
-0.00209514
0.00523966
-0.00310051
0.00204411
-0.00390648
0.00159517
-0.00451037
0.00122101
-0.00491637
0.000821845
-0.00511082
0.000386328
-0.00506843
-9.63411e-05
-0.00477485
-0.000610837
-0.00425371
-0.00108915
-0.00356662
-0.00145372
-0.00279595
-0.00165503
-0.00202223
-0.00168688
-0.00131767
-0.00157159
-0.000770169
-0.001346
-0.000566836
-0.00102264
-7.53453e-05
-0.000491542
-7.53973e-05
0.000377846
0.000308536
0.000801674
-0.000753453
0.00105045
-0.000856539
0.00125945
-0.000682695
0.0014152
-0.000470286
0.00150651
-0.000286963
0.00152062
-0.000120406
0.0015244
-5.64282e-05
0.00152897
-3.41993e-05
0.0015328
-2.18947e-05
0.00153537
-1.25637e-05
0.00153662
-4.29595e-06
0.00153571
6.79872e-06
0.00152905
2.98913e-05
0.0014878
0.000104335
0.00131267
0.000315908
0.00100999
0.000535825
0.000628278
0.000673602
0.00134802
-0.00146631
0.0069376
-0.00232958
0.00290738
-0.00303821
0.00230381
-0.00354938
0.00173219
-0.0038987
0.00117116
-0.00406805
0.00055568
-0.00401264
-0.000151755
-0.00371069
-0.000912784
-0.00320763
-0.00159221
-0.00257946
-0.00208189
-0.00190806
-0.00232643
-0.00125739
-0.00233755
-0.000678149
-0.00215083
-0.000221471
-0.00180268
8.24135e-05
-0.00132653
0.000281707
-0.000690836
0.000206309
0.00148294
-0.00116639
0.00169702
-0.000967531
0.00167642
-0.000835933
0.00167717
-0.000683454
0.00169934
-0.000492455
0.00171215
-0.000299768
0.00159189
0.00153561
0.00150157
0.00147983
0.00146741
0.00146327
0.00147022
0.00150026
0.00160475
0.00132419
0.000596474
0.000983117
0.000876892
0.000549288
0.00110743
0.00191148
-0.00102404
0.00826154
-0.00170583
0.00358917
-0.0021671
0.00276508
-0.00249421
0.00205929
-0.00271729
0.00139424
-0.00280399
0.000642382
-0.00267941
-0.000276336
-0.00233206
-0.00126014
-0.00184597
-0.00207829
-0.00130438
-0.00262348
-0.000774454
-0.00285636
-0.000291424
-0.00282058
0.000126971
-0.00256922
0.000475686
-0.0021514
0.000782031
-0.00163287
0.00114965
-0.00105846
0.00190941
-0.000553452
0.00244187
-0.000525192
0.00204121
-0.000765724
0.00191469
-0.00084102
0.00180521
-0.000726449
0.00171196
-0.000590208
0.00166124
-0.000441735
0.00164013
-0.000278662
0.00175502
-0.000115042
0.00182803
-7.3167e-05
0.00188742
-5.95376e-05
0.00193359
-4.63279e-05
0.00195264
-1.92013e-05
0.00192337
2.91176e-05
0.00182084
0.000102379
0.00161243
0.000208257
0.00124386
0.000368415
0.00111255
0.000727775
0.00082563
0.00116382
0.000387991
0.00154507
0.00231806
-0.000718033
0.00933745
-0.00123427
0.0041054
-0.00132079
0.0028516
-0.00137214
0.00211064
-0.0013925
0.0014146
-0.00130137
0.000551256
-0.00101877
-0.000558934
-0.000608513
-0.0016704
-0.000176324
-0.00251048
0.000211708
-0.00301151
0.000529283
-0.00317394
0.000774056
-0.00306535
0.000959232
-0.0027544
0.00111294
-0.00230511
0.00126582
-0.00178576
0.00146923
-0.00126186
0.00175359
-0.000837808
0.0018905
-0.000662103
0.00179346
-0.000668685
0.00161921
-0.000666776
0.00147273
-0.000579966
0.00135316
-0.000470639
0.00127126
-0.000359834
0.0012402
-0.000247601
0.00128175
-0.000156592
0.00132967
-0.000121093
0.0013826
-0.000112464
0.0014372
-0.000100929
0.00148304
-6.5049e-05
0.00150052
1.16372e-05
0.00146886
0.000134041
0.00137587
0.000301243
0.00122213
0.000522154
0.00108769
0.00086222
0.000943221
0.00130828
0.000623621
0.00186467
0.000550455
0.00239122
-0.000970679
0.00152093
-0.0014329
0.000462014
-0.00138594
-0.000626668
0.0103709
-0.000979789
0.00445852
-0.000552175
0.00242399
-0.000185485
0.00174395
9.72197e-05
0.00113189
0.000490259
0.000158216
0.000991135
-0.00105981
0.00141185
-0.00209112
0.00169661
-0.00279525
0.00184205
-0.00315694
0.00187828
-0.00321017
0.00183361
-0.00302068
0.00173844
-0.00265923
0.00162889
-0.00219555
0.00153798
-0.00169485
0.00149124
-0.00121513
0.00148275
-0.00082931
0.00142856
-0.000607915
0.00128494
-0.000525066
0.00109514
-0.000476977
0.000928071
-0.000412901
0.000800572
-0.000343141
0.000718646
-0.000277909
0.000689947
-0.000218903
0.000711801
-0.000178447
0.00075995
-0.000169244
0.000823508
-0.000176022
0.000897825
-0.000175247
0.00097738
-0.000144605
0.00105052
-6.15067e-05
0.00109947
8.50961e-05
0.00111929
0.000281423
0.00111789
0.000523546
0.00114255
0.000837561
0.00124083
0.00121
0.00142603
0.00167947
0.00186754
0.00194971
0.00212707
0.00126139
0.00173913
0.000849959
0.000409726
-0.000680856
0.0115028
-0.000559052
0.00433671
0.000578807
0.00128613
0.00137727
0.00094549
0.00206738
0.000441777
0.00277198
-0.000546379
0.00331424
-0.00160208
0.00359841
-0.00237529
0.00363009
-0.00282693
0.00345512
-0.00298197
0.00313588
-0.00289094
0.00273353
-0.00261833
0.00230133
-0.00222703
0.00188594
-0.00178017
0.00152271
-0.00133163
0.00122756
-0.000919982
0.000998911
-0.000600657
0.000801356
-0.00041036
0.0006021
-0.000325811
0.000412256
-0.000287134
0.000256772
-0.000257417
0.000145489
-0.00023186
7.96612e-05
-0.000212081
5.97492e-05
-0.000198992
7.93362e-05
-0.000198035
0.000123497
-0.000213405
0.00018281
-0.000235337
0.00025619
-0.000248627
0.000347731
-0.000236148
0.000462378
-0.000176154
0.000588445
-4.09721e-05
0.000714989
0.000154878
0.000852216
0.000386318
0.00103796
0.000651819
0.00132051
0.00092745
0.00176109
0.00123889
0.00242629
0.00128451
0.00296615
0.000721528
0.00299165
0.000824452
0.00346262
0.00259691
0.00941056
0.00330265
0.00363097
0.00370783
0.000880948
0.0044044
0.00024892
0.00522489
-0.000378718
0.00585181
-0.0011733
0.00606858
-0.00181885
0.00590591
-0.00221261
0.00544132
-0.00236234
0.00476736
-0.00230801
0.00397955
-0.00210312
0.00316176
-0.00180054
0.00237545
-0.00144072
0.00166949
-0.00107421
0.00107649
-0.000738627
0.000602585
-0.000446078
0.000253046
-0.00025112
-1.07218e-06
-0.000156243
-0.000196673
-0.000130211
-0.000350484
-0.000133323
-0.000467075
-0.000140827
-0.000548561
-0.000150374
-0.000598352
-0.000162291
-0.000619901
-0.000177445
-0.000619766
-0.00019817
-0.000608009
-0.000225163
-0.000590475
-0.000252872
-0.000566354
-0.000272749
-0.000527472
-0.00027503
-0.000455289
-0.000248337
-0.000320711
-0.000175551
-0.000138232
-2.76014e-05
7.70303e-05
0.000171054
0.000347767
0.000381082
0.000685823
0.000589392
0.00113193
0.000792782
0.00162325
0.000793193
0.00183302
0.000511759
0.00108924
0.00156823
0.00480135
0.00996412
0.013587
0.0124589
0.00200909
0.0117542
0.000953578
0.0110972
0.000278332
0.0102127
-0.000288827
0.00906363
-0.000669758
0.00775498
-0.000903965
0.00638101
-0.000988371
0.0050154
-0.000942407
0.00372533
-0.000813051
0.0025631
-0.000638313
0.00154981
-0.000427435
0.000709736
-0.000234131
4.93101e-05
-7.82013e-05
-0.000415324
1.85552e-05
-0.0007018
3.53553e-05
-0.000879247
2.12036e-05
-0.00100513
-4.32951e-06
-0.0011065
-3.19575e-05
-0.00118946
-5.78617e-05
-0.00125655
-8.32886e-05
-0.00131128
-0.000107561
-0.00135781
-0.000130919
-0.00140264
-0.000153334
-0.00145419
-0.000173613
-0.00152007
-0.000186998
-0.00160753
-0.000185289
-0.0017253
-0.000157261
-0.0018839
-8.97371e-05
-0.00208926
2.98111e-05
-0.00232833
0.000211464
-0.00262655
0.000469277
-0.00306537
0.0008199
-0.00373729
0.00126131
-0.00470914
0.00176463
-0.00609688
0.00218093
-0.00778263
0.00219751
-0.00730952
0.00109512
-0.00223221
0.00467686
0.00351046
0.00378369
0.00184675
0.00416099
-9.89679e-05
0.00416662
-0.000294456
0.0037618
-0.000264941
0.00313013
-0.00027229
0.00237859
-0.000236831
0.00157502
-0.00013884
0.000761355
6.13039e-07
-8.93878e-06
0.00013198
-0.000644849
0.000208474
-0.00109312
0.000214138
-0.00137708
0.000205763
-0.00153854
0.000180016
-0.0016401
0.000136911
-0.00171294
9.40418e-05
-0.00177364
5.63709e-05
-0.00183079
2.51946e-05
-0.00188929
6.37326e-07
-0.00195105
-2.15291e-05
-0.00201681
-4.18108e-05
-0.00208832
-5.94019e-05
-0.00216879
-7.28645e-05
-0.00226089
-8.15217e-05
-0.00236554
-8.23441e-05
-0.00248169
-6.91448e-05
-0.00260531
-3.3638e-05
-0.00272863
3.35771e-05
-0.0028394
0.00014059
-0.00293417
0.000306225
-0.00302065
0.000555761
-0.0031042
0.000903445
-0.00318052
0.00133763
-0.00320424
0.00178835
-0.00312263
0.00209931
-0.00275573
0.00183062
-0.00149344
-0.000167174
-0.00365366
-0.000537599
0.00411289
0.000298082
0.00101107
-8.5032e-05
0.000284145
-0.000464311
8.48227e-05
-0.00079832
6.90671e-05
-0.00116062
9.00069e-05
-0.00152678
0.000129334
-0.00184436
0.000178735
-0.00206721
0.000223462
-0.00219051
0.000255278
-0.0022459
0.000263864
-0.00227
0.000238236
-0.00226749
0.000203258
-0.00225492
0.000167442
-0.00225088
0.000132871
-0.00226009
0.000103247
-0.00228228
7.85655e-05
-0.0023153
5.82164e-05
-0.00235599
4.13225e-05
-0.00240565
2.81323e-05
-0.00246348
1.60157e-05
-0.00252749
4.61115e-06
-0.00259504
-5.32223e-06
-0.00266374
-1.28156e-05
-0.00272981
-1.6282e-05
-0.00278629
-1.26627e-05
-0.00282224
2.31532e-06
-0.00282725
3.8584e-05
-0.00279119
0.000104524
-0.00269246
0.000207493
-0.00249966
0.000362962
-0.00218599
0.000589778
-0.00173236
0.000884007
-0.00111068
0.00116666
-0.000149964
0.0011386
0.00114561
0.000535038
0.00158201
-0.00060357
-0.00199279
-0.00722979
-0.0101319
-0.00597626
-0.00494527
-0.00464998
-0.00455828
-0.00448495
-0.00439266
-0.00426264
-0.00408459
-0.00386303
-0.00361081
-0.00335112
-0.0031181
-0.00292095
-0.00276034
-0.00263486
-0.00253943
-0.00246901
-0.00241919
-0.00238645
-0.00236702
-0.00235979
-0.00236399
-0.00237811
-0.00239964
-0.00242452
-0.00244561
-0.00245153
-0.00242093
-0.00232412
-0.00212406
-0.00176825
-0.00118535
-0.000307961
0.00085229
0.00198445
0.00251281
0.00190217
)
;

boundaryField
{
    floor
    {
        type            calculated;
        value           nonuniform List<scalar> 
29
(
0
0
0
0
0
0
0
0
0
0
0
0
0
0
0
0
0
0
0
0
-3.60779e-06
-9.29286e-06
-1.41709e-05
-1.85861e-05
-1.44035e-06
-2.68467e-06
-7.64519e-06
-8.01914e-06
-7.26965e-06
)
;
    }
    ceiling
    {
        type            calculated;
        value           nonuniform List<scalar> 
43
(
-4.54247e-05
-4.41064e-05
-4.27988e-05
-1.99245e-05
-1.11375e-05
-6.8821e-06
-4.26367e-06
-2.2865e-06
-6.81445e-07
6.8308e-07
1.90435e-06
3.05254e-06
4.17315e-06
5.2164e-06
6.11063e-06
6.8288e-06
7.3874e-06
7.81728e-06
8.14615e-06
8.3946e-06
8.57778e-06
8.70564e-06
8.78489e-06
8.81404e-06
8.78915e-06
8.71463e-06
8.59565e-06
8.43346e-06
8.22915e-06
7.98381e-06
7.71557e-06
7.43482e-06
7.14982e-06
6.87144e-06
6.61938e-06
6.40778e-06
6.44041e-06
6.67783e-06
7.06697e-06
8.29196e-06
1.1091e-05
8.04215e-06
-6.48368e-05
)
;
    }
    sWall
    {
        type            calculated;
        value           uniform -0.000274967;
    }
    nWall
    {
        type            calculated;
        value           nonuniform List<scalar> 6(-4.71616e-05 -5.65388e-05 -6.12357e-05 -7.19835e-05 -7.88653e-05 -9.89158e-05);
    }
    sideWalls
    {
        type            empty;
        value           nonuniform 0();
    }
    glass1
    {
        type            calculated;
        value           nonuniform List<scalar> 9(-5.62448e-05 -0.000151451 -0.000231631 -0.000299904 -0.000357878 -0.000406776 -0.000451044 -0.00050467 -0.000564654);
    }
    glass2
    {
        type            calculated;
        value           nonuniform List<scalar> 2(-0.0002495 -0.000275959);
    }
    sun
    {
        type            calculated;
        value           uniform 0;
    }
    heatsource1
    {
        type            calculated;
        value           nonuniform List<scalar> 3(2.0396e-07 2.03916e-07 2.03933e-07);
    }
    heatsource2
    {
        type            calculated;
        value           nonuniform List<scalar> 4(5.10995e-08 5.12212e-08 0 0);
    }
    Table_master
    {
        type            calculated;
        value           nonuniform List<scalar> 9(-1.52969e-07 -1.53051e-07 -1.5308e-07 -1.53099e-07 -1.53113e-07 -1.53123e-07 -1.53126e-07 -1.5312e-07 -1.53087e-07);
    }
    Table_slave
    {
        type            calculated;
        value           nonuniform List<scalar> 9(1.52848e-07 1.52873e-07 1.52856e-07 1.52841e-07 1.52836e-07 1.5284e-07 1.52855e-07 1.52897e-07 1.52977e-07);
    }
    inlet
    {
        type            calculated;
        value           uniform -0.00617823;
    }
    outlet
    {
        type            calculated;
        value           nonuniform List<scalar> 2(0.00755019 0.00294626);
    }
}


// ************************************************************************* //
