/*--------------------------------*- C++ -*----------------------------------*\
  =========                 |
  \\      /  F ield         | OpenFOAM: The Open Source CFD Toolbox
   \\    /   O peration     | Website:  https://openfoam.org
    \\  /    A nd           | Version:  6
     \\/     M anipulation  |
\*---------------------------------------------------------------------------*/
FoamFile
{
    version     2.0;
    format      ascii;
    class       volScalarField;
    location    "1000";
    object      alphat;
}
// * * * * * * * * * * * * * * * * * * * * * * * * * * * * * * * * * * * * * //

dimensions      [1 -1 -1 0 0 0 0];

internalField   nonuniform List<scalar> 
459
(
0.00111508
0.00121201
0.00123483
0.00129365
0.00134701
0.00139605
0.00144287
0.00148996
0.00153318
0.00156346
0.00157481
0.00156158
0.00152128
0.00145922
0.0013877
0.000526176
0.00066316
0.000714779
0.000692886
0.00066154
0.000627679
0.000592873
0.000560677
0.000532001
0.000506707
0.00048442
0.000464716
0.000447125
0.000431329
0.000416673
0.000402215
0.000386382
0.00036985
0.000336798
0.00153494
0.00339559
0.00316124
0.00367041
0.00415308
0.00465151
0.00512969
0.0055298
0.00586098
0.00616409
0.00639561
0.00649094
0.00634813
0.0057617
0.00416885
0.00141839
0.00092956
0.000655744
0.00116939
0.00148761
0.00167524
0.00174198
0.00170843
0.00146368
0.00130112
0.00117776
0.00107886
0.000996956
0.000928073
0.000870766
0.000815594
0.000757579
0.000703664
0.00065774
0.000722016
0.000397856
0.00189344
0.00461611
0.00378453
0.00486581
0.0053734
0.00575638
0.00605227
0.00629282
0.00653172
0.00680992
0.00710273
0.0073677
0.00753664
0.0075369
0.007211
0.00601233
0.00136307
0.0012034
0.00159525
0.00190139
0.00212108
0.00223504
0.00214815
0.00081208
0.000728407
0.000660256
0.000604289
0.000557726
0.000518426
0.000484861
0.000456276
0.000432784
0.000463227
0.000536775
0.000803238
0.000441284
0.00224915
0.00608111
0.00367659
0.00511844
0.00561614
0.00579031
0.00585607
0.00593492
0.00609514
0.00635544
0.00668714
0.00706289
0.00740407
0.00766208
0.0077599
0.00744074
0.00590224
0.00159927
0.00196362
0.00242774
0.00277901
0.00299087
0.00308682
0.00289786
0.000895494
0.000822146
0.000768205
0.000725677
0.000688978
0.000656206
0.00062419
0.000590284
0.000550543
0.000515656
0.000533565
0.000881399
0.000476545
0.0026207
0.00807138
0.00406468
0.00477772
0.0055252
0.00562598
0.00553812
0.00550291
0.00565679
0.00593227
0.00628843
0.00672738
0.00713266
0.00743249
0.00755085
0.00741082
0.00685902
0.00566293
0.00515839
0.00486422
0.00463552
0.00445192
0.00431467
0.00416112
0.0036419
0.00339264
0.00324477
0.00311842
0.00295696
0.00271501
0.00240152
0.00202804
0.00161223
0.0011747
0.000864466
0.000906733
0.000590036
0.000615159
0.000756233
0.000840067
0.00302019
0.0102884
0.00601362
0.00451995
0.00504768
0.00537798
0.00547064
0.00535283
0.00555389
0.0058208
0.00617381
0.00660865
0.00704518
0.00736105
0.00745161
0.00727769
0.00688479
0.00639581
0.00602745
0.00571089
0.00540311
0.00513826
0.00493846
0.00478518
0.00461071
0.00446582
0.004327
0.00417364
0.00399173
0.00374039
0.00339875
0.00296172
0.00243497
0.00185048
0.00135688
0.00106335
0.000782591
0.000686771
0.0010153
0.000864261
0.00340353
0.0119658
0.00917658
0.00631102
0.00554669
0.00553202
0.005696
0.00573201
0.00579142
0.00596316
0.00629657
0.00675547
0.00722192
0.00754116
0.0075924
0.00735282
0.0069265
0.00650511
0.00619346
0.00589136
0.0055444
0.00519845
0.00490618
0.00469589
0.00454702
0.00442654
0.00430017
0.00415776
0.00400419
0.00384246
0.00361721
0.0032693
0.00280687
0.00227163
0.00179394
0.00141341
0.00111421
0.00100756
0.00102211
0.000909934
0.00348779
0.0110627
0.00962812
0.00863856
0.00780235
0.00724656
0.00670073
0.00625557
0.0060822
0.00622318
0.0066278
0.0071679
0.00766433
0.00793631
0.00787524
0.00750215
0.0069749
0.00650694
0.00613007
0.00563007
0.00509501
0.00465488
0.00435394
0.00416419
0.00403212
0.00391354
0.00378789
0.00365923
0.00354357
0.00345661
0.00339299
0.00323774
0.002918
0.00250764
0.00217075
0.00198814
0.00198938
0.00230761
0.00309476
0.00149802
0.00340586
0.00408231
0.0045588
0.00474964
0.00485576
0.00487939
0.00498702
0.00528818
0.00581062
0.00651182
0.00728202
0.00796317
0.00838803
0.0084243
0.00805057
0.00741483
0.00679848
0.00617015
0.00548686
0.00481116
0.00428812
0.00394685
0.00372707
0.00356499
0.00341692
0.00325806
0.00308057
0.00289039
0.00269878
0.00251374
0.00233788
0.00218468
0.0020559
0.00197385
0.0019616
0.00201039
0.0020614
0.0020482
0.00195368
0.00144866
0.00187719
0.00366954
0.00486017
0.00572607
0.00656217
0.00735472
0.00808532
0.00869752
0.00912388
0.00926105
0.00903924
0.00842754
0.0075349
0.00657893
0.0057309
0.00498099
0.00439726
0.00399081
0.00371693
0.00351651
0.00334362
0.00317304
0.0029926
0.00279896
0.00259642
0.00239718
0.00222009
0.00208537
0.00200151
0.0019577
0.00194671
0.00196794
0.00201516
0.00206463
0.0020756
0.00202331
0.00190341
0.00128201
0.00230355
0.00510303
0.00686232
0.00761682
0.00830823
0.00889474
0.00917424
0.00927199
0.00915356
0.00865506
0.00787821
0.00695091
0.00602351
0.00520196
0.00459501
0.00425061
0.00408719
0.0039996
0.00391717
0.00380919
0.00367411
0.00350883
0.00331292
0.00309358
0.0028643
0.00264144
0.00244004
0.00227909
0.00216734
0.00210522
0.00209055
0.00211643
0.00216635
0.002214
0.00222086
0.00231331
0.00254983
0.00131978
0.00200545
0.00212738
0.00221213
0.00234263
0.00224205
0.00213463
0.0020465
0.00196433
0.00189513
0.00181684
0.0017176
0.00159213
0.00144477
0.00129851
0.00117728
0.00109384
0.00104332
0.00101334
0.000993271
0.000977078
0.000961827
0.000946756
0.000930216
0.000912532
0.000895681
0.000882172
0.000874509
0.00087474
0.000884353
0.000902047
0.000926779
0.000958567
0.000998016
0.00104587
0.00110198
0.00116756
0.00119993
0.00117642
0.0011192
0.00106678
)
;

boundaryField
{
    floor
    {
        type            compressible::alphatWallFunction;
        Prt             0.85;
        value           nonuniform List<scalar> 
29
(
0.000195846
7.32671e-05
9.38034e-05
0.000101395
9.81817e-05
9.35595e-05
8.85362e-05
8.33377e-05
7.84952e-05
7.4153e-05
7.02985e-05
6.68823e-05
6.38454e-05
6.11205e-05
5.86619e-05
5.63703e-05
5.40996e-05
5.16004e-05
4.89764e-05
4.36837e-05
4.36831e-05
5.34089e-05
6.02084e-05
6.56672e-05
0.000195843
7.32662e-05
9.27402e-05
0.000170643
0.000224296
)
;
    }
    ceiling
    {
        type            compressible::alphatWallFunction;
        Prt             0.85;
        value           nonuniform List<scalar> 
43
(
0.000277748
0.00029357
0.000304515
0.000321392
0.000308519
0.000294676
0.000283253
0.000272555
0.000263516
0.000253248
0.000240155
0.000223488
0.000203708
0.000183845
0.000167184
0.000155601
0.00014854
0.000144331
0.000141505
0.000139221
0.000137066
0.000134933
0.000132586
0.000130072
0.000127671
0.000125742
0.000124646
0.00012468
0.000126055
0.000128581
0.000132101
0.00013661
0.000142181
0.000148906
0.000156744
0.000165847
0.000170319
0.000167074
0.000159141
0.000151835
0.00045502
0.000537535
0.000316124
)
;
    }
    sWall
    {
        type            compressible::alphatWallFunction;
        Prt             0.85;
        value           uniform 0.00027655;
    }
    nWall
    {
        type            compressible::alphatWallFunction;
        Prt             0.85;
        value           nonuniform List<scalar> 6(0.000119406 0.000122874 0.00012939 0.000181282 0.00018644 0.000151526);
    }
    sideWalls
    {
        type            empty;
    }
    glass1
    {
        type            compressible::alphatWallFunction;
        Prt             0.85;
        value           nonuniform List<scalar> 9(0.000154586 0.000211098 0.000258101 0.000303874 0.000350928 0.000400788 0.000448036 0.000458471 0.000448652);
    }
    glass2
    {
        type            compressible::alphatWallFunction;
        Prt             0.85;
        value           nonuniform List<scalar> 2(0.000209469 0.000202893);
    }
    sun
    {
        type            compressible::alphatWallFunction;
        Prt             0.85;
        value           nonuniform List<scalar> 
14
(
0.000158439
0.000171835
0.000174974
0.000183036
0.000190314
0.000196974
0.000203307
0.000209654
0.00021546
0.000219516
0.000221035
0.000219265
0.000213865
0.000205516
)
;
    }
    heatsource1
    {
        type            compressible::alphatWallFunction;
        Prt             0.85;
        value           nonuniform List<scalar> 3(8.67536e-05 0.000107542 0.000119669);
    }
    heatsource2
    {
        type            compressible::alphatWallFunction;
        Prt             0.85;
        value           nonuniform List<scalar> 4(0.000200095 0.00013246 0.000132458 0.000192592);
    }
    Table_master
    {
        type            compressible::alphatWallFunction;
        Prt             0.85;
        value           nonuniform List<scalar> 9(0.000115621 0.000103469 9.34463e-05 8.51203e-05 7.81205e-05 7.21555e-05 6.70158e-05 6.26031e-05 5.89506e-05);
    }
    Table_slave
    {
        type            compressible::alphatWallFunction;
        Prt             0.85;
        value           nonuniform List<scalar> 9(0.00012759 0.000117075 0.000109272 0.000103073 9.76887e-05 9.28504e-05 8.80949e-05 8.30259e-05 7.70379e-05);
    }
    inlet
    {
        type            fixedValue;
        value           uniform 1.94e-05;
    }
    outlet
    {
        type            zeroGradient;
    }
}


// ************************************************************************* //
