// -*- C++ -*-
// File generated by PyFoam - sorry for the ugliness

FoamFile
{
 version 2.0;
 format ascii;
 class volVectorField;
 location "1000";
 object U;
}

dimensions [ 0 1 -1 0 0 0 0 ];

internalField nonuniform List<vector> 459
(
  (0.0376476 0.0831078 0)
  (-0.161452 0.0237881 0)
  (-0.183951 0.0179841 0)
  (-0.21502 0.0133613 0)
  (-0.239435 0.00831495 0)
  (-0.256713 0.00303905 0)
  (-0.265857 -0.00263209 0)
  (-0.265313 -0.00885837 0)
  (-0.254018 -0.0157464 0)
  (-0.232052 -0.0227758 0)
  (-0.200525 -0.029056 0)
  (-0.161647 -0.034013 0)
  (-0.118311 -0.0379955 0)
  (-0.0766321 -0.0428536 0)
  (-0.0545572 -0.0498624 0)
  (0.0045941 0.00779925 0)
  (-0.0105167 -0.0205649 0)
  (0.0180859 -0.0259225 0)
  (0.036345 -0.0184387 0)
  (0.0522008 -0.0120552 0)
  (0.0625204 -0.00763909 0)
  (0.0678279 -0.00489402 0)
  (0.0702055 -0.00351114 0)
  (0.0713731 -0.00287197 0)
  (0.0721703 -0.0025439 0)
  (0.0728159 -0.00233998 0)
  (0.0733084 -0.00217008 0)
  (0.0735548 -0.00193347 0)
  (0.0732591 -0.00141301 0)
  (0.0716785 -0.000178879 0)
  (0.0673376 0.00238348 0)
  (0.0585285 0.00565125 0)
  (0.0458529 0.00968141 0)
  (0.00421025 0.0228809 0)
  (0.214137 0.170569 0)
  (-0.1529 0.0623479 0)
  (-0.147322 0.0517049 0)
  (-0.179074 0.0424072 0)
  (-0.202569 0.0322161 0)
  (-0.219365 0.0211043 0)
  (-0.228626 0.00846455 0)
  (-0.228669 -0.00616018 0)
  (-0.218371 -0.02226 0)
  (-0.198322 -0.0377941 0)
  (-0.170135 -0.0503337 0)
  (-0.136698 -0.0581727 0)
  (-0.101735 -0.0609645 0)
  (-0.070496 -0.059924 0)
  (-0.0499251 -0.0541759 0)
  (-0.032724 -0.0306179 0)
  (-0.0108433 0.0010354 0)
  (0.0587217 0.0193458 0)
  (0.0399307 -0.0260573 0)
  (0.0474323 -0.0319761 0)
  (0.0589759 -0.0244478 0)
  (0.0676333 -0.0152772 0)
  (0.0724066 -0.00765412 0)
  (0.073865 -0.00274914 0)
  (0.0738016 -0.00025985 0)
  (0.0736368 0.000827691 0)
  (0.0736894 0.00132029 0)
  (0.0738114 0.00157601 0)
  (0.0738907 0.00178476 0)
  (0.0739107 0.002206 0)
  (0.0737585 0.00325685 0)
  (0.0728313 0.00597949 0)
  (0.0685128 0.0132565 0)
  (0.0578425 0.0204208 0)
  (0.0457326 0.0273615 0)
  (-0.0242588 0.0482087 0)
  (0.376576 0.25532 0)
  (-0.173706 0.099526 0)
  (-0.109045 0.0832215 0)
  (-0.139846 0.0660394 0)
  (-0.15969 0.0490966 0)
  (-0.174435 0.0310676 0)
  (-0.183065 0.0105782 0)
  (-0.182966 -0.0130573 0)
  (-0.172453 -0.038698 0)
  (-0.15299 -0.0627386 0)
  (-0.126929 -0.0811299 0)
  (-0.0974261 -0.0914496 0)
  (-0.0679696 -0.0929988 0)
  (-0.0417975 -0.0865554 0)
  (-0.0215302 -0.071215 0)
  (-0.00536671 -0.0441254 0)
  (0.0106564 -0.00637823 0)
  (0.101192 -0.0595368 0)
  (0.0722667 -0.0536901 0)
  (0.0706416 -0.0436754 0)
  (0.0744251 -0.0319778 0)
  (0.0768467 -0.0205171 0)
  (0.0772623 -0.0109609 0)
  (0.0747406 -0.00927781 0)
  (0.0714584 -0.00708616 0)
  (0.0693652 -0.00590701 0)
  (0.0683195 -0.00524156 0)
  (0.0676981 -0.00483648 0)
  (0.0672212 -0.0045492 0)
  (0.0669633 -0.00419973 0)
  (0.0675357 -0.00332656 0)
  (0.0704815 0.000133221 0)
  (0.0685243 0.018662 0)
  (0.0553857 0.0332449 0)
  (0.0480085 0.0459089 0)
  (-0.0498374 0.0755644 0)
  (0.522185 0.323406 0)
  (-0.212809 0.132613 0)
  (-0.068605 0.109101 0)
  (-0.0986667 0.0851627 0)
  (-0.111721 0.0638656 0)
  (-0.121933 0.0412353 0)
  (-0.128287 0.0144448 0)
  (-0.126174 -0.0179864 0)
  (-0.113856 -0.0534807 0)
  (-0.0946634 -0.0853969 0)
  (-0.0717556 -0.108276 0)
  (-0.0477928 -0.119821 0)
  (-0.0255431 -0.119698 0)
  (-0.0059049 -0.109419 0)
  (0.0113318 -0.0887846 0)
  (0.0280156 -0.0613817 0)
  (0.0533941 -0.0335433 0)
  (0.0887892 -0.0188748 0)
  (0.0999954 -0.0469955 0)
  (0.0857735 -0.0469449 0)
  (0.0771904 -0.038369 0)
  (0.0740931 -0.0288565 0)
  (0.0729397 -0.0191222 0)
  (0.0737745 -0.00859323 0)
  (0.0768506 -0.0050761 0)
  (0.0804177 -0.00436298 0)
  (0.0829973 -0.00384553 0)
  (0.0845043 -0.00326986 0)
  (0.0848895 -0.00244314 0)
  (0.0835204 -0.00122154 0)
  (0.0797592 0.000493923 0)
  (0.0726367 0.00296761 0)
  (0.0590484 0.00677845 0)
  (0.0498833 0.0288401 0)
  (0.0418316 0.0477851 0)
  (0.0487356 0.0651765 0)
  (-0.0740897 0.100772 0)
  (0.646024 0.376442 0)
  (-0.258264 0.160285 0)
  (-0.0289283 0.122826 0)
  (-0.0568498 0.0951964 0)
  (-0.0610202 0.0717512 0)
  (-0.0642017 0.0468983 0)
  (-0.0660315 0.0161036 0)
  (-0.0572828 -0.0242041 0)
  (-0.041501 -0.0686102 0)
  (-0.0236554 -0.105563 0)
  (-0.00638365 -0.129735 0)
  (0.00932866 -0.139965 0)
  (0.0214956 -0.136798 0)
  (0.0313167 -0.123748 0)
  (0.0397335 -0.102915 0)
  (0.0488308 -0.0777225 0)
  (0.0613719 -0.0540061 0)
  (0.0743624 -0.0428793 0)
  (0.0776601 -0.0463481 0)
  (0.0707629 -0.0420223 0)
  (0.0625378 -0.0336331 0)
  (0.057151 -0.0252473 0)
  (0.0542102 -0.0175574 0)
  (0.0536971 -0.0106075 0)
  (0.0552221 -0.00591339 0)
  (0.0579913 -0.00364049 0)
  (0.0604929 -0.00240191 0)
  (0.0625333 -0.00108 0)
  (0.0640405 0.000998689 0)
  (0.0643526 0.00398741 0)
  (0.0628907 0.00793278 0)
  (0.0593645 0.013105 0)
  (0.053021 0.0203292 0)
  (0.0463756 0.0360955 0)
  (0.0392615 0.0565384 0)
  (0.0566676 0.0799534 0)
  (-0.00617664 0.11414 0)
  (0.0402939 0.0368522 0)
  (-0.0644282 -0.0381255 0)
  (-0.259924 -0.0587431 0)
  (0.73284 0.421424 0)
  (-0.299848 0.17987 0)
  (-0.000399167 0.117079 0)
  (-0.0151604 0.0950735 0)
  (-0.00894585 0.0732494 0)
  (-0.00351374 0.0478476 0)
  (0.00146883 0.0125165 0)
  (0.0247473 -0.0376838 0)
  (0.0425324 -0.085144 0)
  (0.0558095 -0.120626 0)
  (0.0642918 -0.141471 0)
  (0.0682016 -0.148078 0)
  (0.0684504 -0.142433 0)
  (0.066391 -0.127525 0)
  (0.0633678 -0.106299 0)
  (0.060984 -0.0823744 0)
  (0.060367 -0.0601417 0)
  (0.0599874 -0.045325 0)
  (0.0557504 -0.0389636 0)
  (0.0473002 -0.0333695 0)
  (0.0385038 -0.0266819 0)
  (0.0322977 -0.0204063 0)
  (0.0289731 -0.0150857 0)
  (0.0283457 -0.0106014 0)
  (0.0298329 -0.00753579 0)
  (0.0325067 -0.00621798 0)
  (0.0354455 -0.00543274 0)
  (0.0383806 -0.00412681 0)
  (0.0411514 -0.001558 0)
  (0.0437379 0.00263497 0)
  (0.0450035 0.00821742 0)
  (0.0451525 0.0152023 0)
  (0.0443201 0.0241893 0)
  (0.0440625 0.0379712 0)
  (0.0436792 0.0570945 0)
  (0.0646105 0.0819914 0)
  (0.0505575 0.106277 0)
  (0.0859886 0.0730486 0)
  (0.110838 0.0450504 0)
  (-0.132596 -0.0127927 0)
  (0.775916 0.46241 0)
  (-0.319162 0.166053 0)
  (0.021437 0.0656016 0)
  (0.0397496 0.0725604 0)
  (0.0544645 0.0648551 0)
  (0.0679906 0.0386767 0)
  (0.0928428 -0.00522072 0)
  (0.118067 -0.0564609 0)
  (0.133127 -0.0988727 0)
  (0.138131 -0.1277 0)
  (0.134654 -0.142254 0)
  (0.124626 -0.143827 0)
  (0.110314 -0.134827 0)
  (0.0939708 -0.118181 0)
  (0.0774817 -0.0968785 0)
  (0.0624018 -0.0741693 0)
  (0.0495597 -0.0533077 0)
  (0.03868 -0.0380303 0)
  (0.0279729 -0.0291326 0)
  (0.0175439 -0.0236522 0)
  (0.00892297 -0.0192473 0)
  (0.00334445 -0.0157896 0)
  (0.000661711 -0.013222 0)
  (0.000379971 -0.0112191 0)
  (0.00184388 -0.00989154 0)
  (0.00424148 -0.00929741 0)
  (0.00698579 -0.00875748 0)
  (0.00995357 -0.00757134 0)
  (0.0132134 -0.0050485 0)
  (0.0172832 -0.000476132 0)
  (0.0219077 0.00596536 0)
  (0.0258353 0.0134558 0)
  (0.029956 0.0223365 0)
  (0.035839 0.034105 0)
  (0.0428729 0.0493207 0)
  (0.0643975 0.0694551 0)
  (0.0780244 0.0826993 0)
  (0.109077 0.0593481 0)
  (0.149489 0.0443973 0)
  (-0.0443719 0.0877246 0)
  (0.876458 0.467887 0)
  (-0.0822427 0.146267 0)
  (0.100311 -0.0145882 0)
  (0.164416 -0.0192165 0)
  (0.173975 -0.0121571 0)
  (0.183901 -0.0322867 0)
  (0.213914 -0.0613808 0)
  (0.231209 -0.0886833 0)
  (0.232046 -0.1103 0)
  (0.219098 -0.123755 0)
  (0.196253 -0.127888 0)
  (0.167218 -0.123161 0)
  (0.135398 -0.111261 0)
  (0.103597 -0.0942161 0)
  (0.0737852 -0.0742773 0)
  (0.0473759 -0.0541086 0)
  (0.0250444 -0.036062 0)
  (0.00769383 -0.0233572 0)
  (-0.00632767 -0.0165701 0)
  (-0.0159118 -0.0142119 0)
  (-0.0225718 -0.0132461 0)
  (-0.0266208 -0.0128445 0)
  (-0.0286787 -0.0126566 0)
  (-0.029275 -0.0124632 0)
  (-0.0288776 -0.0122915 0)
  (-0.0279627 -0.0121781 0)
  (-0.0268433 -0.0119364 0)
  (-0.0255404 -0.011271 0)
  (-0.0238165 -0.00980279 0)
  (-0.0210219 -0.00704166 0)
  (-0.0153117 -0.0024244 0)
  (-0.00829347 0.00360039 0)
  (-0.00137305 0.0100422 0)
  (0.00858229 0.0171537 0)
  (0.019768 0.0244006 0)
  (0.040561 0.0332747 0)
  (0.0623713 0.0303871 0)
  (0.0856332 0.000882818 0)
  (0.147459 0.0346759 0)
  (-0.388452 0.190427 0)
  (1.01468 0.427846 0)
  (0.484582 0.284839 0)
  (0.499223 0.192053 0)
  (0.514523 0.132002 0)
  (0.48369 0.0917955 0)
  (0.450381 0.0516476 0)
  (0.415792 0.00868784 0)
  (0.374377 -0.0301847 0)
  (0.326719 -0.059484 0)
  (0.275019 -0.0770021 0)
  (0.222189 -0.0830876 0)
  (0.170658 -0.0799408 0)
  (0.122482 -0.0704086 0)
  (0.0789994 -0.0566534 0)
  (0.0409736 -0.0406611 0)
  (0.00911935 -0.0250797 0)
  (-0.0164096 -0.0125095 0)
  (-0.0313874 -0.00726338 0)
  (-0.041447 -0.00620828 0)
  (-0.0483071 -0.00722406 0)
  (-0.0532224 -0.00863334 0)
  (-0.0567286 -0.009886 0)
  (-0.0593006 -0.0108635 0)
  (-0.0612514 -0.0115602 0)
  (-0.0628716 -0.0120385 0)
  (-0.0645054 -0.0123298 0)
  (-0.0665002 -0.0123313 0)
  (-0.0691659 -0.0117649 0)
  (-0.0727766 -0.0101403 0)
  (-0.077547 -0.00681399 0)
  (-0.0837417 -0.00116178 0)
  (-0.0903593 0.00643186 0)
  (-0.0988693 0.0158794 0)
  (-0.112116 0.0279642 0)
  (-0.13284 0.0431974 0)
  (-0.163088 0.0608075 0)
  (-0.207002 0.0771277 0)
  (-0.261191 0.0896651 0)
  (-0.329835 0.0984176 0)
  (-0.585298 0.101853 0)
  (-0.195828 0.0132893 0)
  (0.139512 0.0422168 0)
  (0.23821 0.0248231 0)
  (0.234765 0.00349913 0)
  (0.220922 -0.0149601 0)
  (0.205935 -0.0282092 0)
  (0.181195 -0.0365361 0)
  (0.148838 -0.0401016 0)
  (0.112083 -0.0389363 0)
  (0.0738432 -0.0338754 0)
  (0.0366536 -0.025761 0)
  (0.00101836 -0.0142266 0)
  (-0.0298455 -0.00187216 0)
  (-0.0501371 0.00594275 0)
  (-0.0625295 0.00972986 0)
  (-0.0693021 0.0103921 0)
  (-0.0737256 0.00966414 0)
  (-0.0773876 0.00807563 0)
  (-0.0809902 0.00650418 0)
  (-0.084688 0.00557332 0)
  (-0.0884896 0.00530429 0)
  (-0.0923105 0.00567121 0)
  (-0.0961147 0.00659019 0)
  (-0.0999401 0.00793688 0)
  (-0.103865 0.00956893 0)
  (-0.107984 0.0113329 0)
  (-0.1124 0.0130896 0)
  (-0.117047 0.0146427 0)
  (-0.120953 0.0172689 0)
  (-0.124112 0.0224014 0)
  (-0.126732 0.0310143 0)
  (-0.128922 0.0437396 0)
  (-0.130951 0.0604296 0)
  (-0.132904 0.07845 0)
  (-0.132335 0.0888053 0)
  (-0.115621 0.0710267 0)
  (-0.0789757 -0.0126926 0)
  (-0.25726 -0.187116 0)
  (-0.0205839 0.196361 0)
  (0.0663712 0.0871658 0)
  (0.0364022 0.0228752 0)
  (0.0334138 0.00904195 0)
  (0.033397 0.00188601 0)
  (0.0292106 -0.00728822 0)
  (0.0190602 -0.0146287 0)
  (0.00108496 -0.0180467 0)
  (-0.0216314 -0.0175843 0)
  (-0.0438858 -0.016134 0)
  (-0.0630305 -0.0157006 0)
  (-0.076797 -0.0170827 0)
  (-0.0841415 -0.0209221 0)
  (-0.0873717 -0.02702 0)
  (-0.0886566 -0.0341318 0)
  (-0.089228 -0.0412958 0)
  (-0.0900566 -0.0473941 0)
  (-0.091656 -0.0520965 0)
  (-0.0943394 -0.055709 0)
  (-0.0980645 -0.0586102 0)
  (-0.102599 -0.0612449 0)
  (-0.107726 -0.0635924 0)
  (-0.113172 -0.065306 0)
  (-0.118581 -0.0659227 0)
  (-0.12351 -0.0648887 0)
  (-0.127441 -0.0615579 0)
  (-0.129881 -0.055147 0)
  (-0.130602 -0.0456777 0)
  (-0.129537 -0.0339513 0)
  (-0.125972 -0.0201466 0)
  (-0.118755 -0.00402426 0)
  (-0.106666 0.0148453 0)
  (-0.0889191 0.0361561 0)
  (-0.0659368 0.0566937 0)
  (-0.0403635 0.0690803 0)
  (-0.0012314 0.0524361 0)
  (0.143968 -0.018794 0)
  (-0.191543 -0.0977113 0)
  (-0.00545799 -0.304739 0)
  (-0.397149 -0.119204 0)
  (-0.28993 0.0659355 0)
  (-0.223647 -0.0143378 0)
  (-0.181201 -0.0196315 0)
  (-0.158444 -0.00443231 0)
  (-0.147285 0.00915207 0)
  (-0.143588 0.021376 0)
  (-0.143416 0.0334051 0)
  (-0.144773 0.0452045 0)
  (-0.14462 0.0561503 0)
  (-0.141917 0.0667317 0)
  (-0.137156 0.0783632 0)
  (-0.13051 0.0907864 0)
  (-0.122876 0.103086 0)
  (-0.115587 0.114578 0)
  (-0.109634 0.124755 0)
  (-0.10549 0.133185 0)
  (-0.103146 0.139781 0)
  (-0.102229 0.144789 0)
  (-0.102309 0.148744 0)
  (-0.103032 0.151999 0)
  (-0.104167 0.155191 0)
  (-0.105536 0.158199 0)
  (-0.107011 0.160461 0)
  (-0.108493 0.161311 0)
  (-0.109878 0.160078 0)
  (-0.111012 0.156161 0)
  (-0.111592 0.149067 0)
  (-0.110921 0.139957 0)
  (-0.107953 0.130493 0)
  (-0.101179 0.121933 0)
  (-0.0885527 0.115402 0)
  (-0.0682976 0.112073 0)
  (-0.0402902 0.112889 0)
  (-0.0012913 0.116925 0)
  (0.0416974 0.117765 0)
  (0.0790176 0.109367 0)
  (0.15695 0.091328 0)
  (-0.273338 0.0554757 0)
)
;

boundaryField
{
  floor
  {
    type noSlip;
  }
  ceiling
  {
    type noSlip;
  }
  sWall
  {
    type noSlip;
  }
  nWall
  {
    type noSlip;
  }
  sideWalls
  {
    type empty;
  }
  glass1
  {
    type noSlip;
  }
  glass2
  {
    type noSlip;
  }
  sun
  {
    type noSlip;
  }
  heatsource1
  {
    type noSlip;
  }
  heatsource2
  {
    type noSlip;
  }
  Table_master
  {
    type noSlip;
  }
  Table_slave
  {
    type noSlip;
  }
  inlet
  {
    type fixedValue;
    value uniform (0.277164 -0.114805 0);
  }
  outlet
  {
    type zeroGradient;
  }
} 	// ************************************************************************* //

