/*--------------------------------*- C++ -*----------------------------------*\
  =========                 |
  \\      /  F ield         | OpenFOAM: The Open Source CFD Toolbox
   \\    /   O peration     | Website:  https://openfoam.org
    \\  /    A nd           | Version:  6
     \\/     M anipulation  |
\*---------------------------------------------------------------------------*/
FoamFile
{
    version     2.0;
    format      ascii;
    class       volScalarField;
    location    "370";
    object      nut;
}
// * * * * * * * * * * * * * * * * * * * * * * * * * * * * * * * * * * * * * //

dimensions      [0 2 -1 0 0 0 0];

internalField   nonuniform List<scalar> 
459
(
0.000947921
0.00117215
0.00120279
0.00116449
0.00111557
0.00106885
0.00102581
0.000986334
0.000950106
0.000915346
0.000880494
0.000843833
0.000802979
0.000753338
0.000695711
0.00053607
0.000704655
0.000738244
0.00073489
0.000707853
0.000674527
0.00063307
0.000592603
0.000556462
0.000524768
0.000496958
0.000472384
0.000450357
0.000430525
0.000411846
0.000393063
0.000373154
0.000342986
0.000333569
0.00113377
0.00347962
0.00299417
0.00283975
0.00270135
0.00258771
0.00250602
0.00242945
0.00232881
0.00220294
0.00204559
0.00184835
0.00160522
0.00131201
0.000996656
0.000682894
0.00060957
0.00082565
0.0025336
0.00212973
0.00219346
0.00230447
0.00225725
0.00174104
0.00147682
0.00129637
0.00116264
0.00105963
0.000978617
0.00091465
0.000847342
0.000771605
0.000699967
0.000686417
0.000631439
0.000419399
0.0011997
0.00384134
0.00283552
0.00285675
0.00283046
0.00282635
0.00287955
0.00294566
0.00296201
0.00289782
0.00274093
0.00249296
0.00216713
0.00178509
0.00138644
0.00101801
0.000620983
0.000807386
0.00236255
0.00220658
0.00249028
0.00279461
0.00270931
0.000832468
0.000736583
0.000657345
0.0005923
0.000538743
0.000494397
0.000457603
0.000428453
0.000407471
0.000458185
0.000605768
0.000774639
0.00048153
0.00123117
0.00352234
0.00241546
0.00283271
0.00294884
0.00303754
0.00322297
0.00338198
0.00342954
0.00335692
0.00317423
0.00289792
0.00254916
0.00215278
0.00173696
0.00133425
0.0009013
0.000638784
0.00124021
0.00174262
0.00248259
0.00318436
0.00364295
0.00346109
0.000909011
0.000834955
0.000776313
0.000725197
0.000677113
0.000629383
0.00058014
0.000527616
0.000467588
0.000446488
0.000570093
0.000929477
0.000560018
0.00126692
0.00298535
0.00212357
0.00294732
0.00327474
0.00346482
0.00376184
0.00383832
0.00380179
0.00368402
0.00348799
0.00322052
0.00289981
0.00254906
0.0021927
0.00186774
0.00160877
0.00172777
0.00238054
0.00325528
0.00404618
0.00461433
0.00492423
0.00491241
0.00421031
0.00378998
0.00336922
0.00295932
0.00255183
0.00214344
0.00173196
0.00131847
0.000904315
0.000625865
0.000617425
0.00093004
0.000795749
0.000619585
0.000671432
0.000973669
0.00129371
0.00264228
0.00197188
0.00304447
0.00366451
0.00389707
0.00419777
0.00421878
0.00414802
0.00403791
0.00388387
0.00367748
0.00344393
0.00321018
0.00301366
0.00292719
0.00304027
0.00366191
0.00446945
0.00515427
0.00563655
0.00589918
0.00596745
0.00586014
0.0055365
0.00507883
0.0045301
0.00394039
0.003336
0.00273142
0.00213537
0.00155629
0.00109631
0.000853435
0.000824972
0.000946327
0.000927618
0.000988844
0.00145787
0.00129613
0.00131852
0.0024833
0.00172389
0.00315868
0.00409858
0.00418383
0.00441018
0.0044493
0.00441639
0.00437065
0.00430973
0.00423456
0.00416254
0.00411834
0.00416386
0.00437224
0.00481166
0.00551
0.00608769
0.00644937
0.0066044
0.00657491
0.00640894
0.00612946
0.00571807
0.00521251
0.00464069
0.00402981
0.00340912
0.00280962
0.00226652
0.00182149
0.00152881
0.00140098
0.0013558
0.00129518
0.00111614
0.00139718
0.00264773
0.00176559
0.00132801
0.00230288
0.00132253
0.00316026
0.00466753
0.00460553
0.00456537
0.00449629
0.0044859
0.00451201
0.00455323
0.00461034
0.00469866
0.00484427
0.00508446
0.00546564
0.0059606
0.0064617
0.00675885
0.00682326
0.00669008
0.00638695
0.00596629
0.00551055
0.00504988
0.00458502
0.00410857
0.0036313
0.00318246
0.00280017
0.00252039
0.00236413
0.00232225
0.00233104
0.00227689
0.00209958
0.00167658
0.00193693
0.00479754
0.00243903
0.00138513
0.00125237
0.000951471
0.00289044
0.0051854
0.0051716
0.00498842
0.00491053
0.00494164
0.00501037
0.00509287
0.00519188
0.0053197
0.00549164
0.0057207
0.00600593
0.00629656
0.00649254
0.00649699
0.0062985
0.00594033
0.00550667
0.00507194
0.00467615
0.00433433
0.00404352
0.0037979
0.00360403
0.0034778
0.00343449
0.00347922
0.00359826
0.00374948
0.00385459
0.00381777
0.00358635
0.00306743
0.00313398
0.00643929
0.00274864
0.000743014
0.00259297
0.00544599
0.00572445
0.0057933
0.00591965
0.00605374
0.00616297
0.0062467
0.00631434
0.00637558
0.00643706
0.00649963
0.00655338
0.00657184
0.00652016
0.00638195
0.00617537
0.00593497
0.00569348
0.00547213
0.00528197
0.00512762
0.00501256
0.00494212
0.00492456
0.00496839
0.005078
0.00524827
0.00545779
0.00566148
0.00578736
0.0057426
0.00550123
0.00501917
0.00489285
0.00675069
0.002335
0.00213426
0.0061192
0.00644904
0.00649704
0.00667823
0.00689558
0.00706926
0.00718428
0.00725144
0.0072845
0.00729397
0.00728705
0.00726859
0.0072412
0.00720369
0.00715065
0.00707545
0.00697841
0.00686808
0.00675502
0.00664657
0.00654815
0.00646567
0.00640672
0.00637998
0.00639448
0.0064582
0.00657589
0.0067456
0.00695266
0.00715998
0.00729581
0.00724742
0.00695701
0.00642608
0.00590891
0.00533471
0.00195778
0.00130823
0.0013876
0.00158135
0.00170016
0.00173064
0.00173843
0.00174503
0.00175066
0.00175422
0.00175595
0.00175657
0.00175675
0.00175703
0.00175781
0.00175913
0.00176054
0.00176092
0.00175907
0.00175453
0.00174787
0.00174014
0.00173234
0.00172527
0.00171957
0.00171581
0.00171451
0.00171619
0.0017213
0.00173005
0.00174221
0.00175673
0.00177117
0.00178106
0.00178009
0.00176699
0.00174922
0.00175791
0.0018094
0.00184194
0.00164554
)
;

boundaryField
{
    floor
    {
        type            nutkWallFunction;
        Cmu             0.09;
        kappa           0.41;
        E               9.8;
        value           nonuniform List<scalar> 
29
(
8.42126e-05
6.43301e-05
8.53055e-05
8.94089e-05
8.90006e-05
8.56982e-05
8.16067e-05
7.64831e-05
7.14428e-05
6.6906e-05
6.28977e-05
5.93562e-05
5.62064e-05
5.33657e-05
5.07932e-05
4.83567e-05
4.58926e-05
4.32643e-05
3.92472e-05
3.79832e-05
3.79831e-05
4.93409e-05
5.73777e-05
6.73505e-05
8.42126e-05
6.433e-05
9.99837e-05
9.77869e-05
7.71937e-05
)
;
    }
    ceiling
    {
        type            nutkWallFunction;
        Cmu             0.09;
        kappa           0.41;
        E               9.8;
        value           nonuniform List<scalar> 
43
(
0.000156394
0.000165421
0.000187225
0.00020045
0.000203827
0.00020469
0.000205421
0.000206043
0.000206437
0.000206629
0.000206697
0.000206717
0.000206749
0.000206834
0.000206981
0.000207137
0.00020718
0.000206975
0.000206473
0.000205737
0.000204882
0.000204019
0.000203237
0.000202606
0.000202188
0.000202044
0.00020223
0.000202796
0.000203764
0.000205108
0.000206712
0.000208306
0.000209397
0.000209289
0.000207843
0.000205878
0.000206838
0.000212517
0.000216098
0.000194383
0.000165108
0.000149975
0.000247955
)
;
    }
    sWall
    {
        type            nutkWallFunction;
        Cmu             0.09;
        kappa           0.41;
        E               9.8;
        value           uniform 0.000156397;
    }
    nWall
    {
        type            nutkWallFunction;
        Cmu             0.09;
        kappa           0.41;
        E               9.8;
        value           nonuniform List<scalar> 6(0.000117611 0.000155013 0.000207683 0.00026958 0.000228787 0.000194382);
    }
    sideWalls
    {
        type            empty;
    }
    glass1
    {
        type            nutkWallFunction;
        Cmu             0.09;
        kappa           0.41;
        E               9.8;
        value           nonuniform List<scalar> 9(0.000114562 0.000136311 0.000143925 0.000147543 0.000151641 0.000154703 0.000157534 0.000158615 0.000165102);
    }
    glass2
    {
        type            nutkWallFunction;
        Cmu             0.09;
        kappa           0.41;
        E               9.8;
        value           nonuniform List<scalar> 2(0.000280607 0.000313419);
    }
    sun
    {
        type            nutkWallFunction;
        Cmu             0.09;
        kappa           0.41;
        E               9.8;
        value           nonuniform List<scalar> 
14
(
0.000114564
0.000140758
0.00014429
0.000139873
0.000134205
0.000128767
0.000123734
0.000119096
0.000114821
0.000110702
0.000106553
0.000102168
9.72558e-05
9.12471e-05
)
;
    }
    heatsource1
    {
        type            nutkWallFunction;
        Cmu             0.09;
        kappa           0.41;
        E               9.8;
        value           nonuniform List<scalar> 3(7.47999e-05 8.12197e-05 0.000117616);
    }
    heatsource2
    {
        type            nutkWallFunction;
        Cmu             0.09;
        kappa           0.41;
        E               9.8;
        value           nonuniform List<scalar> 4(8.26362e-05 7.35601e-05 7.35601e-05 7.49807e-05);
    }
    Table_master
    {
        type            nutkWallFunction;
        Cmu             0.09;
        kappa           0.41;
        E               9.8;
        value           nonuniform List<scalar> 9(0.000100806 8.92058e-05 7.94842e-05 7.13985e-05 6.46597e-05 5.90175e-05 5.42884e-05 5.05081e-05 4.77669e-05);
    }
    Table_slave
    {
        type            nutkWallFunction;
        Cmu             0.09;
        kappa           0.41;
        E               9.8;
        value           nonuniform List<scalar> 9(0.000109954 0.000101105 9.40326e-05 8.78163e-05 8.19209e-05 7.60191e-05 6.98731e-05 6.32467e-05 5.55728e-05);
    }
    inlet
    {
        type            calculated;
        value           uniform 0.000100623;
    }
    outlet
    {
        type            calculated;
        value           nonuniform List<scalar> 2(0.00130823 0.0013876);
    }
}


// ************************************************************************* //
