// -*- C++ -*-
// File generated by PyFoam - sorry for the ugliness

FoamFile
{
 version 2.0;
 format ascii;
 class volScalarField;
 location "200";
 object T;
}

dimensions [ 0 0 0 1 0 0 0 ];

internalField nonuniform List<scalar> 459
(
  301.719
  301.333
  301.328
  301.341
  301.352
  301.363
  301.372
  301.381
  301.389
  301.395
  301.399
  301.4
  301.398
  301.395
  301.392
  300.397
  300.388
  300.387
  300.314
  300.222
  300.184
  300.175
  300.189
  300.202
  300.215
  300.205
  300.194
  300.189
  300.193
  300.215
  300.256
  300.278
  300.275
  300.286
  301.997
  301.425
  301.385
  301.399
  301.417
  301.434
  301.449
  301.462
  301.473
  301.48
  301.482
  301.477
  301.465
  301.443
  301.409
  301.367
  301.206
  300.557
  300.566
  300.573
  300.576
  300.556
  300.483
  300.356
  300.259
  300.283
  300.273
  300.277
  300.279
  300.284
  300.305
  300.38
  300.482
  300.449
  300.37
  300.319
  302.25
  301.545
  301.461
  301.472
  301.497
  301.52
  301.542
  301.561
  301.575
  301.584
  301.586
  301.577
  301.556
  301.52
  301.47
  301.409
  301.351
  300.918
  300.878
  300.884
  300.93
  300.985
  300.986
  300.656
  300.548
  300.451
  300.349
  300.382
  300.446
  300.5
  300.555
  300.616
  300.678
  300.553
  300.487
  300.444
  302.481
  301.689
  301.558
  301.552
  301.58
  301.611
  301.64
  301.666
  301.686
  301.7
  301.703
  301.694
  301.669
  301.627
  301.567
  301.489
  301.398
  301.321
  301.251
  301.248
  301.302
  301.372
  301.424
  301.467
  301.502
  301.508
  301.514
  301.519
  301.525
  301.529
  301.529
  301.524
  301.499
  301.368
  301.19
  301.069
  301.072
  302.694
  301.859
  301.704
  301.665
  301.68
  301.71
  301.743
  301.775
  301.803
  301.823
  301.831
  301.826
  301.806
  301.77
  301.722
  301.666
  301.608
  301.56
  301.525
  301.519
  301.531
  301.549
  301.564
  301.575
  301.581
  301.584
  301.588
  301.593
  301.598
  301.604
  301.608
  301.609
  301.599
  301.567
  301.512
  301.449
  301.416
  301.452
  301.451
  301.465
  302.887
  302.066
  301.939
  301.877
  301.848
  301.849
  301.869
  301.897
  301.926
  301.951
  301.964
  301.963
  301.946
  301.913
  301.869
  301.817
  301.765
  301.72
  301.687
  301.668
  301.66
  301.656
  301.654
  301.651
  301.648
  301.645
  301.645
  301.648
  301.655
  301.664
  301.673
  301.682
  301.687
  301.691
  301.695
  301.702
  301.716
  301.712
  301.627
  301.543
  303.068
  302.346
  302.308
  302.243
  302.167
  302.107
  302.076
  302.069
  302.078
  302.092
  302.103
  302.103
  302.088
  302.059
  302.017
  301.967
  301.915
  301.868
  301.828
  301.799
  301.777
  301.761
  301.746
  301.733
  301.719
  301.707
  301.699
  301.697
  301.702
  301.715
  301.732
  301.75
  301.767
  301.785
  301.803
  301.818
  301.828
  301.822
  301.764
  301.572
  303.333
  302.836
  302.831
  302.747
  302.611
  302.49
  302.402
  302.341
  302.303
  302.276
  302.259
  302.247
  302.23
  302.204
  302.166
  302.117
  302.065
  302.016
  301.972
  301.934
  301.903
  301.877
  301.852
  301.829
  301.805
  301.781
  301.76
  301.745
  301.742
  301.752
  301.772
  301.797
  301.822
  301.844
  301.863
  301.88
  301.893
  301.904
  301.914
  301.922
  303.703
  303.498
  303.236
  303.097
  302.944
  302.806
  302.69
  302.598
  302.529
  302.479
  302.439
  302.402
  302.37
  302.338
  302.302
  302.26
  302.213
  302.164
  302.118
  302.075
  302.038
  302.005
  301.974
  301.943
  301.91
  301.876
  301.842
  301.811
  301.787
  301.775
  301.776
  301.785
  301.8
  301.815
  301.83
  301.847
  301.87
  301.894
  301.926
  302.027
  301.963
  302.732
  302.832
  302.791
  302.729
  302.666
  302.613
  302.57
  302.535
  302.505
  302.474
  302.444
  302.411
  302.376
  302.337
  302.295
  302.252
  302.211
  302.172
  302.136
  302.102
  302.068
  302.032
  301.995
  301.954
  301.912
  301.872
  301.836
  301.812
  301.799
  301.796
  301.799
  301.803
  301.807
  301.809
  301.809
  301.812
  301.844
  302.171
  302.585
  302.697
  302.731
  302.708
  302.671
  302.636
  302.604
  302.576
  302.551
  302.528
  302.504
  302.479
  302.453
  302.424
  302.393
  302.36
  302.326
  302.292
  302.259
  302.225
  302.192
  302.157
  302.12
  302.081
  302.037
  301.989
  301.94
  301.895
  301.859
  301.835
  301.82
  301.811
  301.805
  301.8
  301.798
  301.801
  301.84
  302.216
  302.193
  302.198
  302.476
  302.624
  302.683
  302.675
  302.654
  302.632
  302.612
  302.593
  302.575
  302.558
  302.542
  302.525
  302.509
  302.491
  302.472
  302.452
  302.431
  302.408
  302.383
  302.357
  302.329
  302.299
  302.268
  302.233
  302.195
  302.152
  302.104
  302.05
  301.995
  301.946
  301.909
  301.881
  301.861
  301.847
  301.834
  301.825
  301.853
)
;

boundaryField
{
  floor
  {
    type wallHeatTransfer;
    Tinf uniform 305.2;
    alphaWall uniform 0.24;
    value nonuniform List<scalar> 29
(
  301.896
  301.382
  301.316
  301.299
  301.354
  301.466
  301.56
  301.633
  301.664
  301.723
  301.713
  301.677
  301.625
  301.543
  301.435
  301.329
  301.251
  301.214
  301.214
  301.287
  301.287
  301.146
  301.161
  301.498
  301.896
  301.382
  301.301
  301.417
  301.706
)
;
  }
  ceiling
  {
    type wallHeatTransfer;
    Tinf uniform 303.2;
    alphaWall uniform 0.24;
    value nonuniform List<scalar> 43
(
  302.253
  302.224
  302.224
  302.502
  302.653
  302.711
  302.706
  302.689
  302.672
  302.656
  302.642
  302.629
  302.617
  302.605
  302.594
  302.581
  302.568
  302.553
  302.537
  302.518
  302.498
  302.476
  302.453
  302.428
  302.402
  302.373
  302.341
  302.305
  302.263
  302.216
  302.16
  302.104
  302.055
  302.016
  301.989
  301.97
  301.959
  301.95
  301.944
  301.977
  303.682
  303.487
  302.192
)
;
  }
  sWall
  {
    type wallHeatTransfer;
    Tinf uniform 315.2;
    alphaWall uniform 0.36;
    value uniform 302.932;
  }
  nWall
  {
    type wallHeatTransfer;
    Tinf uniform 307.2;
    alphaWall uniform 0.36;
    value nonuniform List<scalar> 6
(
  302.259
  302.263
  302.306
  302.405
  302.447
  302.56
)
;
  }
  sideWalls
  {
    type empty;
  }
  glass1
  {
    type wallHeatTransfer;
    Tinf uniform 315.2;
    alphaWall uniform 4.3;
    value nonuniform List<scalar> 9
(
  311.815
  310.435
  309.605
  309.046
  308.666
  308.399
  308.245
  308.406
  308.742
)
;
  }
  glass2
  {
    type wallHeatTransfer;
    Tinf uniform 307.2;
    alphaWall uniform 4.3;
    value nonuniform List<scalar> 2
(
  305.169
  305.053
)
;
  }
  sun
  {
    type wallHeatTransfer;
    Tinf uniform 305.2;
    alphaWall uniform 0.24;
    value nonuniform List<scalar> 14
(
  302.205
  301.869
  301.939
  301.943
  301.94
  301.937
  301.933
  301.929
  301.924
  301.919
  301.913
  301.908
  301.902
  301.897
)
;
  }
  heatsource1
  {
    type fixedGradient;
    gradient uniform 0;
  }
  heatsource2
  {
    type fixedGradient;
    gradient uniform 0;
  }
  Table_master
  {
    type zeroGradient;
  }
  Table_slave
  {
    type zeroGradient;
  }
  inlet
  {
    type fixedValue;
    value uniform 290.15;
  }
  outlet
  {
    type zeroGradient;
  }
} 	// ************************************************************************* //

