/*--------------------------------*- C++ -*----------------------------------*\
  =========                 |
  \\      /  F ield         | OpenFOAM: The Open Source CFD Toolbox
   \\    /   O peration     | Website:  https://openfoam.org
    \\  /    A nd           | Version:  6
     \\/     M anipulation  |
\*---------------------------------------------------------------------------*/
FoamFile
{
    version     2.0;
    format      ascii;
    class       volScalarField;
    location    "660";
    object      alphat;
}
// * * * * * * * * * * * * * * * * * * * * * * * * * * * * * * * * * * * * * //

dimensions      [1 -1 -1 0 0 0 0];

internalField   nonuniform List<scalar> 
459
(
0.00089054
0.000982476
0.00101815
0.00107269
0.00112408
0.00117481
0.00122898
0.00127693
0.0013131
0.0013304
0.00132146
0.00127899
0.00113173
0.000958864
0.000810992
0.000492929
0.000715895
0.000739709
0.00074882
0.000745155
0.000728558
0.000692579
0.000652411
0.00061467
0.000580502
0.000549838
0.000522412
0.000497548
0.000474558
0.000452602
0.000430447
0.000405957
0.00036812
0.000325042
0.00115766
0.00280711
0.00269356
0.003113
0.00356005
0.00399704
0.00432659
0.00466656
0.0050107
0.00532594
0.00556675
0.00567809
0.00557179
0.00504807
0.00336567
0.00100767
0.00078505
0.000742049
0.00233772
0.00245955
0.00279953
0.00301453
0.00292706
0.00214249
0.00181166
0.00159397
0.00143287
0.00130631
0.00119604
0.00109617
0.00100045
0.000905368
0.000822554
0.000770273
0.000624903
0.000392326
0.00138145
0.00377613
0.00335412
0.00391872
0.00421307
0.0044327
0.00461127
0.00485619
0.00519301
0.00561997
0.00608859
0.00650558
0.00672418
0.0065246
0.00563584
0.00369225
0.000987258
0.000873564
0.00197994
0.00283765
0.00351601
0.00391077
0.00358759
0.000933321
0.000822353
0.000733166
0.000661912
0.000604608
0.000558357
0.000520881
0.000490923
0.000468689
0.000532558
0.000648452
0.000664273
0.000426584
0.00159488
0.00460846
0.00334223
0.00400397
0.00407764
0.00406157
0.00411432
0.00428522
0.00461207
0.00512311
0.00575198
0.00635155
0.00674904
0.00686666
0.00659458
0.00552097
0.00303346
0.00114459
0.00170669
0.00262559
0.00366194
0.00447263
0.00487813
0.00436223
0.0010209
0.00093781
0.000884624
0.000848363
0.000820139
0.000792895
0.000762333
0.000730374
0.000692087
0.000656981
0.000669469
0.000734216
0.000481425
0.00181411
0.00568272
0.00339381
0.00385641
0.00387693
0.00372497
0.0037271
0.00386431
0.00418654
0.00475842
0.00547581
0.00609612
0.00651576
0.00671822
0.00671636
0.00637195
0.0054969
0.00508088
0.00532103
0.00571537
0.00604464
0.00620499
0.00616274
0.00582051
0.00478655
0.00436331
0.00416818
0.00405454
0.00395137
0.00381159
0.00356328
0.00313613
0.00257415
0.0019666
0.00146998
0.00121581
0.000820045
0.00056308
0.000574679
0.00061121
0.00205187
0.0069571
0.00425897
0.00369836
0.00384413
0.00376548
0.00364383
0.00373154
0.00404806
0.004644
0.00537923
0.00601952
0.00641524
0.00658455
0.00666236
0.00675206
0.00681213
0.0070716
0.00732001
0.00742128
0.00734156
0.00710283
0.00675308
0.00633874
0.00589727
0.00561427
0.00544599
0.00532546
0.00520534
0.00504999
0.00482854
0.00446574
0.00394063
0.00327754
0.00258838
0.00205898
0.00155932
0.00120728
0.00131023
0.000822302
0.00228891
0.00797676
0.00602073
0.00429266
0.0040481
0.00400629
0.00381385
0.00378784
0.0040886
0.00472946
0.00551954
0.00618292
0.00655703
0.0066962
0.00682378
0.00714393
0.00758081
0.00793359
0.00805127
0.0079093
0.00756257
0.00709129
0.00658212
0.00612054
0.00577841
0.00558235
0.00547396
0.00539311
0.00529841
0.00516257
0.00498131
0.00476853
0.00446271
0.00399922
0.00343196
0.00287593
0.00232843
0.00189573
0.00175284
0.000978093
0.00235586
0.0076127
0.00641708
0.00545714
0.00494245
0.00438643
0.00393316
0.00385897
0.00425524
0.00503285
0.00590961
0.00657702
0.0069103
0.00703798
0.00719277
0.00748806
0.00776735
0.00788764
0.0077725
0.00743136
0.00694574
0.00641917
0.00594301
0.00557689
0.00533702
0.00519509
0.00510185
0.00501843
0.00491533
0.00477454
0.00461261
0.00448498
0.00442926
0.0042748
0.00398063
0.00367255
0.00336193
0.00289336
0.00304916
0.00131978
0.00231647
0.002782
0.00306329
0.00316705
0.00313257
0.003107
0.00324219
0.00372184
0.004589
0.00566357
0.00659902
0.00714842
0.00733433
0.00738765
0.00729618
0.00720433
0.00714856
0.00706262
0.00683373
0.00647785
0.00607649
0.0057052
0.00540334
0.00517455
0.00499866
0.00484786
0.00469969
0.00453982
0.00435019
0.00410497
0.0038029
0.00349147
0.00321177
0.00298139
0.00276953
0.0025644
0.00237267
0.00219671
0.00207044
0.00135393
0.000984989
0.0016189
0.00218638
0.00283657
0.0037806
0.004906
0.00606922
0.00703867
0.0075404
0.00756805
0.00730758
0.00696674
0.00669384
0.00654603
0.0064581
0.0063541
0.0062007
0.00599861
0.00579036
0.00560317
0.00544143
0.00529159
0.00513089
0.00493635
0.00469223
0.00439545
0.00405681
0.0036947
0.00332751
0.0029867
0.00273229
0.00255999
0.00244141
0.00234785
0.00224369
0.00209992
0.00194407
0.00135925
0.00136327
0.00301086
0.00428057
0.00563144
0.00665038
0.00727925
0.00787646
0.00824476
0.00810415
0.00759386
0.0070543
0.00668328
0.00649348
0.00641635
0.00639038
0.00637749
0.00635684
0.00631643
0.00625114
0.00617856
0.0061195
0.00606911
0.00600943
0.00591256
0.00574534
0.00547926
0.00510448
0.00464074
0.00415523
0.00369068
0.00329047
0.00297527
0.00274847
0.00258731
0.00245002
0.00233279
0.00283643
0.00145247
0.00150218
0.00156797
0.00162622
0.00186164
0.00186609
0.0018117
0.0017681
0.00178757
0.00178753
0.00175099
0.00168994
0.00162242
0.00156506
0.00153052
0.00151382
0.00150666
0.00150323
0.00149995
0.00149519
0.00148974
0.00148579
0.00148343
0.00148019
0.00147384
0.00146131
0.00143955
0.00140688
0.0013647
0.00131887
0.0012794
0.00124887
0.00123036
0.00122359
0.00122853
0.00124443
0.00126807
0.00129067
0.0012803
0.00123609
0.00119191
)
;

boundaryField
{
    floor
    {
        type            compressible::alphatWallFunction;
        Prt             0.85;
        value           nonuniform List<scalar> 
29
(
0.000115571
6.83451e-05
0.000101742
0.000105227
0.000106558
0.000106024
0.0001036
9.83215e-05
9.23887e-05
8.67736e-05
8.16533e-05
7.70262e-05
7.28603e-05
6.90598e-05
6.55244e-05
6.21276e-05
5.86786e-05
5.48393e-05
4.88477e-05
4.19257e-05
4.19251e-05
5.26891e-05
5.80749e-05
6.65834e-05
0.00011557
6.83442e-05
0.000105566
0.000124568
0.000162722
)
;
    }
    ceiling
    {
        type            compressible::alphatWallFunction;
        Prt             0.85;
        value           nonuniform List<scalar> 
43
(
0.000211466
0.000220289
0.000228068
0.000259222
0.000259818
0.000252678
0.000246937
0.000249512
0.000249511
0.000244689
0.000236604
0.000227624
0.000219963
0.000215335
0.000213094
0.000212132
0.000211671
0.000211231
0.00021059
0.000209857
0.000209325
0.000209008
0.000208572
0.000207716
0.000206027
0.00020309
0.000198669
0.000192946
0.000186705
0.000181311
0.000177124
0.000174582
0.00017365
0.000174329
0.000176516
0.000179758
0.000182853
0.000181434
0.00017537
0.000169287
0.000318282
0.000377385
0.000192663
)
;
    }
    sWall
    {
        type            compressible::alphatWallFunction;
        Prt             0.85;
        value           uniform 0.000210978;
    }
    nWall
    {
        type            compressible::alphatWallFunction;
        Prt             0.85;
        value           nonuniform List<scalar> 6(8.59453e-05 0.000116877 0.000139088 0.000191849 0.000204473 0.000168933);
    }
    sideWalls
    {
        type            empty;
    }
    glass1
    {
        type            compressible::alphatWallFunction;
        Prt             0.85;
        value           nonuniform List<scalar> 9(0.000125624 0.000162939 0.000193459 0.000222067 0.000251027 0.000282016 0.000312537 0.000321126 0.000316147);
    }
    glass2
    {
        type            compressible::alphatWallFunction;
        Prt             0.85;
        value           nonuniform List<scalar> 2(0.00018558 0.000190252);
    }
    sun
    {
        type            compressible::alphatWallFunction;
        Prt             0.85;
        value           nonuniform List<scalar> 
14
(
0.000126997
0.000140043
0.000145068
0.000152712
0.000159872
0.000166904
0.000174374
0.000180955
0.000185901
0.000188261
0.000187041
0.000181237
0.000160935
0.000136706
)
;
    }
    heatsource1
    {
        type            compressible::alphatWallFunction;
        Prt             0.85;
        value           nonuniform List<scalar> 3(7.89372e-05 8.06855e-05 8.61633e-05);
    }
    heatsource2
    {
        type            compressible::alphatWallFunction;
        Prt             0.85;
        value           nonuniform List<scalar> 4(0.0001435 0.000111728 0.000111727 0.000140623);
    }
    Table_master
    {
        type            compressible::alphatWallFunction;
        Prt             0.85;
        value           nonuniform List<scalar> 9(0.000132989 0.000117117 0.000104175 9.36997e-05 8.51752e-05 7.82221e-05 7.25359e-05 6.79534e-05 6.45297e-05);
    }
    Table_slave
    {
        type            compressible::alphatWallFunction;
        Prt             0.85;
        value           nonuniform List<scalar> 9(0.000145361 0.000133629 0.000126056 0.000120861 0.0001168 0.000112864 0.00010843 0.000103769 9.81538e-05);
    }
    inlet
    {
        type            fixedValue;
        value           uniform 1.94e-05;
    }
    outlet
    {
        type            zeroGradient;
    }
}


// ************************************************************************* //
