/*--------------------------------*- C++ -*----------------------------------*\
  =========                 |
  \\      /  F ield         | OpenFOAM: The Open Source CFD Toolbox
   \\    /   O peration     | Website:  https://openfoam.org
    \\  /    A nd           | Version:  6
     \\/     M anipulation  |
\*---------------------------------------------------------------------------*/
FoamFile
{
    version     2.0;
    format      ascii;
    class       surfaceScalarField;
    location    "500";
    object      phi;
}
// * * * * * * * * * * * * * * * * * * * * * * * * * * * * * * * * * * * * * //

dimensions      [1 0 -1 0 0 0 0];

internalField   nonuniform List<scalar> 
852
(
-0.00303435
0.00309234
-0.00415508
0.0011208
-0.00495706
0.000802051
-0.00551734
0.000560349
-0.0057938
0.000276531
-0.00575454
-3.919e-05
-0.00537638
-0.000378092
-0.00468066
-0.000695652
-0.00374693
-0.000933665
-0.00269166
-0.0010552
-0.00163824
-0.00105336
-0.000710122
-0.000928054
-3.68741e-05
-0.000673189
0.000212185
-0.000249005
0.000214518
-0.000887805
0.000891002
-0.000683655
-0.000204137
-8.45449e-05
-0.000599095
0.000487285
-0.000571815
0.000914595
-0.000427297
0.00120583
-0.000291225
0.00136973
-0.000163892
0.00144749
-7.77572e-05
0.00149092
-4.34317e-05
0.00151941
-2.84871e-05
0.00153811
-1.87038e-05
0.00154916
-1.10504e-05
0.00155121
-2.05641e-06
0.00153597
1.5224e-05
0.00148072
5.52425e-05
0.00134637
0.000134334
0.00111684
0.000229511
0.00080131
0.000315514
0.000805348
-0.00217928
0.00542781
-0.00326048
0.00220207
-0.00409063
0.00163227
-0.0046568
0.0011266
-0.00494237
0.000562167
-0.00491795
-6.35399e-05
-0.00456864
-0.000727328
-0.00393544
-0.00132878
-0.00311245
-0.00175658
-0.00221546
-0.00195212
-0.00134956
-0.00191919
-0.000603206
-0.00167434
-3.93163e-05
-0.00123702
0.000349109
-0.000637374
0.000661858
-9.81766e-05
0.000433806
0.000228052
0.000433798
6.49732e-05
0.000835619
0.000470802
-0.000609945
0.000818773
-0.000947042
0.00109773
-0.000850754
0.00132216
-0.00065171
0.00147374
-0.000442794
0.00150533
-0.000195473
0.00151243
-8.48418e-05
0.00152059
-5.15934e-05
0.00152747
-3.53598e-05
0.00153213
-2.33687e-05
0.00153506
-1.3984e-05
0.0015357
-2.70924e-06
0.00153054
2.03787e-05
0.00149114
9.46323e-05
0.00131677
0.000308685
0.00102269
0.000523577
0.00065896
0.000679218
0.00147501
-0.00153235
0.00719944
-0.00246007
0.00312987
-0.00320626
0.00237853
-0.00370402
0.00162444
-0.00395427
0.000812483
-0.00390822
-0.000109518
-0.00354294
-0.00109253
-0.00293529
-0.00193635
-0.00219961
-0.00249217
-0.00144559
-0.00270606
-0.000747294
-0.00261741
-0.000156185
-0.00226539
0.000313296
-0.00170644
0.000695126
-0.00101915
0.000945072
-0.000348068
0.000878404
0.000294774
0.00131225
0.00148967
-0.00064256
0.00171959
-0.000839835
0.00167854
-0.000905968
0.0016767
-0.000848887
0.00171519
-0.000690182
0.00178668
-0.000514268
0.00159137
0.00150669
0.00145526
0.00142005
0.00139684
0.001383
0.00138044
0.00140096
0.00149574
0.00120017
0.000604233
0.000873711
0.000850018
0.000506713
0.00104619
0.00199812
-0.00106789
0.00857785
-0.00179281
0.00385487
-0.00229816
0.00288394
-0.00262941
0.00195576
-0.00276656
0.000949698
-0.002617
-0.000259007
-0.00218538
-0.00152408
-0.00160435
-0.0025173
-0.000988639
-0.00310779
-0.000417717
-0.0032769
7.59478e-05
-0.003111
0.000479939
-0.00266932
0.000818986
-0.00204544
0.001128
-0.00132811
0.00140589
-0.00062591
0.00172345
-2.27276e-05
0.00265753
0.000378219
0.00267817
-1.09596e-05
0.00240558
-0.00036991
0.00222638
-0.000660591
0.00204421
-0.000723761
0.00188462
-0.000689271
0.00177467
-0.000580211
0.00166855
-0.000408135
0.00183294
-0.000164545
0.00191039
-7.76045e-05
0.00195534
-4.51062e-05
0.00197399
-1.88111e-05
0.00195509
1.87307e-05
0.00188189
7.30294e-05
0.00173228
0.00014944
0.00147458
0.000257522
0.00105244
0.000421965
0.000906216
0.000750429
0.000623876
0.00113234
0.00022859
0.00144145
0.00224831
-0.000741213
0.00969049
-0.00127554
0.00438927
-0.00139355
0.00300202
-0.00144535
0.00200763
-0.00133898
0.000843392
-0.000962546
-0.000635383
-0.000448771
-0.00203778
5.31553e-05
-0.00301913
0.000469657
-0.0035242
0.000784291
-0.00359145
0.00100714
-0.00333378
0.00117302
-0.00283514
0.00131291
-0.00218528
0.00145759
-0.00147276
0.00163338
-0.000801658
0.0018797
-0.000268998
0.00221789
4.00817e-05
0.00225362
-4.66405e-05
0.00215931
-0.000275548
0.00195333
-0.000454573
0.00174417
-0.000514574
0.00155202
-0.000497102
0.0013956
-0.000423788
0.00129176
-0.000304295
0.00129504
-0.000167841
0.00131029
-9.28653e-05
0.00132738
-6.2222e-05
0.00134603
-3.74862e-05
0.00135654
8.20237e-06
0.00134192
8.7616e-05
0.00128487
0.00020646
0.00117231
0.000370058
0.00101028
0.000583958
0.000870071
0.00089061
0.000731732
0.00127065
0.000401607
0.00177155
0.000357657
0.00229223
-0.00101193
0.00136933
-0.00145661
0.000444425
-0.00140754
-0.000631636
0.0107452
-0.000971027
0.00472873
-0.000530695
0.00256175
-0.000112672
0.00158966
0.000443058
0.000287715
0.00110289
-0.00129516
0.00161188
-0.00254668
0.00192034
-0.00332749
0.00204807
-0.00365183
0.00204569
-0.00358897
0.0019501
-0.00323812
0.00181147
-0.00269646
0.00167513
-0.00204891
0.00157443
-0.00137203
0.00153394
-0.000761139
0.00156401
-0.000299039
0.00164502
-4.08877e-05
0.00162916
-3.07465e-05
0.00150315
-0.000149504
0.00130927
-0.000260677
0.00110852
-0.000313814
0.000924769
-0.000313355
0.00077359
-0.000272622
0.000672926
-0.000203651
0.00063732
-0.000132261
0.000641907
-9.74832e-05
0.000671616
-9.19649e-05
0.000722113
-8.80195e-05
0.000787947
-5.76678e-05
0.000852593
2.29318e-05
0.000899286
0.000159728
0.000927919
0.000341385
0.00094344
0.000568398
0.000986189
0.000847824
0.00110572
0.00115109
0.00131224
0.00156501
0.00182137
0.00178307
0.00213453
0.00105613
0.00178658
0.000792329
0.000437871
-0.000642638
0.0118581
-0.000451196
0.00453736
0.000826725
0.0012839
0.00188921
0.000527233
0.00285
-0.000673036
0.00353731
-0.00198239
0.00386998
-0.00287925
0.00387422
-0.00333161
0.00362544
-0.00340293
0.00321193
-0.00317537
0.00271328
-0.00273941
0.00220401
-0.00218715
0.00174191
-0.0015868
0.0013592
-0.000989324
0.00108362
-0.000485554
0.000917448
-0.00013286
0.000836488
4.00813e-05
0.000760754
4.49955e-05
0.000641101
-2.98478e-05
0.000485637
-0.000105217
0.000320683
-0.000148874
0.00016642
-0.000159116
3.92591e-05
-0.000145492
-4.41377e-05
-0.000120292
-7.47666e-05
-0.000101674
-6.43993e-05
-0.000107895
-2.3817e-05
-0.000132594
4.5347e-05
-0.000157232
0.000147123
-0.000159493
0.000282982
-0.000112976
0.000433891
8.77094e-06
0.000590332
0.000184895
0.000765937
0.000392746
0.000989117
0.000624601
0.00130083
0.000839332
0.00177324
0.00109257
0.00248997
0.00106631
0.00306896
0.0004771
0.00310637
0.000754877
0.00360559
0.00281031
0.00957455
0.00362791
0.00371982
0.00429899
0.000612878
0.00541895
-0.000592686
0.00626734
-0.00152135
0.00652759
-0.00224253
0.00630063
-0.00265215
0.00570753
-0.00273837
0.00487627
-0.00257155
0.0039252
-0.00222423
0.00295548
-0.00176964
0.00205574
-0.00128741
0.0012858
-0.000816884
0.00066633
-0.00036988
0.000235551
-5.48006e-05
-8.53509e-06
0.000111205
-0.000121559
0.000153096
-0.000195934
0.000119359
-0.00028437
5.85674e-05
-0.000394301
4.68435e-06
-0.000514425
-2.87878e-05
-0.000628173
-4.54112e-05
-0.000721542
-5.21724e-05
-0.000783585
-5.83013e-05
-0.000811278
-7.40372e-05
-0.000813094
-0.000106137
-0.000796766
-0.000148981
-0.000763648
-0.00019041
-0.000706579
-0.000216621
-0.000606871
-0.000212742
-0.000438467
-0.00015969
-0.000217499
-3.61279e-05
3.98895e-05
0.000135304
0.000340295
0.000324145
0.000670435
0.000509146
0.0010665
0.000696462
0.00145419
0.000678586
0.00154157
0.000389673
0.000807512
0.00148889
0.00467623
0.0101561
0.0138707
0.0127031
0.00178054
0.0119643
0.000146172
0.0109813
-0.000538179
0.00968724
-0.00094826
0.00816042
-0.00112515
0.00653449
-0.00111231
0.00493
-0.000966982
0.00342736
-0.000721573
0.00208058
-0.00042287
0.000932712
-0.000139574
2.23018e-05
9.34586e-05
-0.000575053
0.000227411
-0.000872176
0.00024228
-0.000994769
0.000233766
-0.0010512
0.000209498
-0.00110018
0.000168301
-0.00116315
0.000121494
-0.00123945
8.0933e-05
-0.00132032
5.20278e-05
-0.00139857
3.27708e-05
-0.00146831
1.75023e-05
-0.00152719
5.15781e-07
-0.0015783
-2.29918e-05
-0.00163102
-5.34837e-05
-0.00169624
-8.38342e-05
-0.00178498
-0.00010173
-0.00190865
-9.30155e-05
-0.00207813
-4.33281e-05
-0.00229894
6.10596e-05
-0.00256721
0.000232083
-0.00291719
0.000485227
-0.00342566
0.000832559
-0.00418035
0.00126379
-0.00522529
0.00174135
-0.00666364
0.00211688
-0.0083689
0.00209488
-0.00771637
0.000836312
-0.00275087
0.00470713
0.00331371
0.00352798
0.00132574
0.00356073
-0.000570756
0.0032675
-0.000654991
0.00258951
-0.000447204
0.00171402
-0.000236899
0.000744707
2.22621e-06
-0.000195215
0.000218201
-0.00094651
0.000328329
-0.00143336
0.000347199
-0.00168805
0.000348081
-0.00179116
0.000330469
-0.0018382
0.000289261
-0.00185501
0.000250531
-0.0018641
0.000218533
-0.00188381
0.000187951
-0.00192033
0.000157956
-0.00197029
0.000130817
-0.0020264
0.000108072
-0.00208261
8.89068e-05
-0.00213598
7.07972e-05
-0.00218674
5.11948e-05
-0.00223868
2.88707e-05
-0.00229873
6.49822e-06
-0.00237168
-1.0959e-05
-0.00245814
-1.5343e-05
-0.00255474
3.51869e-06
-0.00265447
5.63351e-05
-0.00275021
0.00015674
-0.00284127
0.000323078
-0.00293224
0.000576133
-0.00302693
0.000927196
-0.00311609
0.00135289
-0.00312919
0.00175439
-0.00296236
0.00195
-0.00236763
0.00150009
-0.00110554
-0.000425842
-0.00378312
-0.000536581
0.00391756
-5.64456e-05
0.000845614
-0.000815023
0.000187745
-0.00151811
4.79796e-05
-0.0020725
0.000107054
-0.00249801
0.000188491
-0.00275795
0.000262055
-0.00285731
0.000317447
-0.00286582
0.000336753
-0.00282885
0.000310156
-0.00275296
0.000272118
-0.00265862
0.000236059
-0.00257344
0.000204018
-0.00250414
0.000181162
-0.00245178
0.000166102
-0.00241822
0.000154317
-0.00240311
0.000142759
-0.00240261
0.000130238
-0.00241103
0.000116416
-0.00242335
0.000101143
-0.00243692
8.42774e-05
-0.0024515
6.56937e-05
-0.00246825
4.55398e-05
-0.00248708
2.52503e-05
-0.00250683
8.7085e-06
-0.00252296
7.15255e-07
-0.00252751
7.99447e-06
-0.00251132
4.00679e-05
-0.00245865
0.00010401
-0.00234562
0.000209978
-0.00214247
0.000372912
-0.00182395
0.000608621
-0.00137645
0.000905326
-0.000752155
0.00113004
0.00016796
0.00102982
0.00126441
0.000403574
0.00150716
-0.000668665
-0.00219542
0.0010568
-0.0104337
-0.0064761
-0.00561327
-0.00541677
-0.00536359
-0.00525342
-0.00506337
-0.00480105
-0.00448446
-0.00414959
-0.00384224
-0.00357373
-0.00334195
-0.00314279
-0.00296698
-0.00280667
-0.00265854
-0.00252232
-0.00239888
-0.00228943
-0.00219531
-0.00211801
-0.00205915
-0.00202023
-0.00200131
-0.00199857
-0.00200344
-0.00200059
-0.00196524
-0.00186552
-0.00165944
-0.00129008
-0.000684698
0.000217628
0.00134477
0.00237159
0.00277188
0.00209956
)
;

boundaryField
{
    floor
    {
        type            calculated;
        value           nonuniform List<scalar> 
29
(
0
0
0
0
0
0
0
0
0
0
0
0
0
0
0
0
0
0
0
0
-4.06247e-06
-1.07305e-05
-1.64254e-05
-2.16291e-05
-2.27773e-06
-3.18869e-06
-9.58426e-06
-1.14733e-05
-9.61992e-06
)
;
    }
    ceiling
    {
        type            calculated;
        value           nonuniform List<scalar> 
43
(
-1.71155e-05
-3.8159e-05
-4.01886e-05
-1.73698e-05
-8.89253e-06
-5.32453e-06
-3.23018e-06
-1.65466e-06
-3.62801e-07
7.59775e-07
1.7926e-06
2.72253e-06
3.52266e-06
4.19599e-06
4.76834e-06
5.26498e-06
5.70714e-06
6.10328e-06
6.4439e-06
6.70767e-06
6.87366e-06
6.93184e-06
6.88584e-06
6.74755e-06
6.52951e-06
6.24127e-06
5.89178e-06
5.49476e-06
5.06907e-06
4.636e-06
4.21659e-06
3.82601e-06
3.4751e-06
3.17396e-06
2.9327e-06
2.82684e-06
2.93291e-06
3.21302e-06
3.58586e-06
4.80096e-06
7.93749e-06
5.30976e-06
-6.71746e-05
)
;
    }
    sWall
    {
        type            calculated;
        value           uniform -0.000222778;
    }
    nWall
    {
        type            calculated;
        value           nonuniform List<scalar> 6(-4.93263e-05 -5.8878e-05 -6.13977e-05 -7.33668e-05 -8.06121e-05 -0.000100735);
    }
    sideWalls
    {
        type            empty;
        value           nonuniform 0();
    }
    glass1
    {
        type            calculated;
        value           nonuniform List<scalar> 9(-5.79193e-05 -0.000156115 -0.000239206 -0.000310443 -0.00037136 -0.000423029 -0.000470187 -0.000526667 -0.000589446);
    }
    glass2
    {
        type            calculated;
        value           nonuniform List<scalar> 2(-0.000263168 -0.000289323);
    }
    sun
    {
        type            calculated;
        value           uniform 0;
    }
    heatsource1
    {
        type            calculated;
        value           nonuniform List<scalar> 3(2.04424e-07 2.04288e-07 2.04318e-07);
    }
    heatsource2
    {
        type            calculated;
        value           nonuniform List<scalar> 4(5.12728e-08 5.13654e-08 0 0);
    }
    Table_master
    {
        type            calculated;
        value           nonuniform List<scalar> 9(-1.53342e-07 -1.53471e-07 -1.53515e-07 -1.53545e-07 -1.53566e-07 -1.5358e-07 -1.53589e-07 -1.53586e-07 -1.53555e-07);
    }
    Table_slave
    {
        type            calculated;
        value           nonuniform List<scalar> 9(1.53143e-07 1.53175e-07 1.53155e-07 1.53143e-07 1.53139e-07 1.53144e-07 1.53169e-07 1.53222e-07 1.53316e-07);
    }
    inlet
    {
        type            calculated;
        value           uniform -0.00624014;
    }
    outlet
    {
        type            calculated;
        value           nonuniform List<scalar> 2(-0.000817061 0.0115286);
    }
}


// ************************************************************************* //
