/*--------------------------------*- C++ -*----------------------------------*\
  =========                 |
  \\      /  F ield         | OpenFOAM: The Open Source CFD Toolbox
   \\    /   O peration     | Website:  https://openfoam.org
    \\  /    A nd           | Version:  6
     \\/     M anipulation  |
\*---------------------------------------------------------------------------*/
FoamFile
{
    version     2.0;
    format      ascii;
    class       volScalarField;
    location    "1700";
    object      alphat;
}
// * * * * * * * * * * * * * * * * * * * * * * * * * * * * * * * * * * * * * //

dimensions      [1 -1 -1 0 0 0 0];

internalField   nonuniform List<scalar> 
459
(
0.00132124
0.00145192
0.00148769
0.00156262
0.00163321
0.00170147
0.00177193
0.00182864
0.00186166
0.00186381
0.00183046
0.00175792
0.00164028
0.00145872
0.00118998
0.000591922
0.000708125
0.000816067
0.000848754
0.000835119
0.000805527
0.000755146
0.000702413
0.000654509
0.000612355
0.00057539
0.00054288
0.00051401
0.000488379
0.000464982
0.000442607
0.000419522
0.000399002
0.000360498
0.00177045
0.00445693
0.00432829
0.00504626
0.00576815
0.00645884
0.00698426
0.00744319
0.00784015
0.00813813
0.00830688
0.00831838
0.0081285
0.00762855
0.00622063
0.00140036
0.000972532
0.000601735
0.00142426
0.00209524
0.00262447
0.00294643
0.00293742
0.0021902
0.00183796
0.00159951
0.00142259
0.00128564
0.00117648
0.00108845
0.00100616
0.000923344
0.000846702
0.000780635
0.00087043
0.000441972
0.00213908
0.00606278
0.00539614
0.00657247
0.00717006
0.0076195
0.00796293
0.00831122
0.00868895
0.00906696
0.00940516
0.0096592
0.00975124
0.00957563
0.00883136
0.00659588
0.00147844
0.00108071
0.00175739
0.0024877
0.00321226
0.00373783
0.00363331
0.00106906
0.000933344
0.000824414
0.000737065
0.000666464
0.000608813
0.00056131
0.000522484
0.00049193
0.000537115
0.000628178
0.000985199
0.000498319
0.00248861
0.00762101
0.00545182
0.00687789
0.00727609
0.00743514
0.00759252
0.00784897
0.00820897
0.00863852
0.0090877
0.00949455
0.00974639
0.00981537
0.00961315
0.00869582
0.00526059
0.0017142
0.00210733
0.00284569
0.00373148
0.00455048
0.0050962
0.00477013
0.00121355
0.00109622
0.00100973
0.000941468
0.000883507
0.000831936
0.000782184
0.00073065
0.000672424
0.000624379
0.000642215
0.00111637
0.000544403
0.0028438
0.00961089
0.00595084
0.00673843
0.00717906
0.00717762
0.00722334
0.00742458
0.00776922
0.0082256
0.00872041
0.00914797
0.00942112
0.00951453
0.00944462
0.00914152
0.00826768
0.00716027
0.00688909
0.00698432
0.007195
0.00736599
0.00739174
0.0070744
0.00579728
0.00514728
0.00474568
0.00443291
0.00410414
0.00370103
0.00321942
0.00267082
0.002083
0.00151674
0.00111916
0.00115303
0.000725101
0.000661195
0.000803139
0.000903399
0.00322159
0.0118053
0.00803359
0.00694697
0.00732846
0.00726243
0.00725378
0.00734622
0.0076165
0.00807058
0.00860181
0.00905625
0.00931203
0.00934377
0.00923668
0.00912301
0.00907077
0.00910512
0.00924996
0.0093594
0.00934804
0.00920377
0.00893074
0.00850443
0.00785382
0.00726322
0.00675216
0.0062799
0.00580682
0.00527716
0.00468184
0.00400719
0.0032589
0.00248642
0.00184863
0.00142057
0.00104166
0.000875938
0.00123974
0.000944022
0.00356048
0.0133111
0.0110415
0.00887439
0.00841017
0.00790773
0.00752372
0.0074406
0.00769341
0.00820652
0.00880725
0.00929156
0.00951798
0.00948067
0.00933829
0.0093499
0.00967781
0.0101629
0.010501
0.0105586
0.0103619
0.00998642
0.00949045
0.00890247
0.00824059
0.00759261
0.0069847
0.00641266
0.00587647
0.00538595
0.00493831
0.00441407
0.00379699
0.00311209
0.00249498
0.0019769
0.00157905
0.00145397
0.0014676
0.00108795
0.00362091
0.0116163
0.0104652
0.00951143
0.00853256
0.00770356
0.00730902
0.00741109
0.00792771
0.00867217
0.00939293
0.0098621
0.00997784
0.00982062
0.00967711
0.00987868
0.0104251
0.0108863
0.0109819
0.0107538
0.0102877
0.00966074
0.00893115
0.00814784
0.00736494
0.00663555
0.00597814
0.00540111
0.00492071
0.0045568
0.00431909
0.00416071
0.00383895
0.00341272
0.0030665
0.0028899
0.00297925
0.00339383
0.00412341
0.00167979
0.00352118
0.00416348
0.0045634
0.00465147
0.0048664
0.00541838
0.00633197
0.00751464
0.00876996
0.00984733
0.010512
0.010649
0.0103672
0.0100136
0.0100951
0.0103425
0.010539
0.0105205
0.0102331
0.0097114
0.00901357
0.00819514
0.00732084
0.00645855
0.00566601
0.0049745
0.00439003
0.00391093
0.00353081
0.00323476
0.00300069
0.00282283
0.00269622
0.00260722
0.00256901
0.00256919
0.0025436
0.00243574
0.00227449
0.00158109
0.00158477
0.00356319
0.00676633
0.00907681
0.0106558
0.0116444
0.012075
0.0119906
0.0115072
0.0107624
0.0100023
0.00954496
0.0094596
0.00939634
0.00916727
0.00874394
0.00814394
0.00741513
0.00662505
0.00584424
0.00512247
0.00448888
0.00395261
0.00350919
0.00315352
0.00288185
0.00268777
0.00256465
0.00250363
0.00248539
0.00249539
0.00252369
0.00255697
0.00256609
0.00250797
0.00237184
0.00215726
0.00132786
0.00231041
0.0069592
0.0100134
0.0110844
0.0114051
0.0112198
0.0106357
0.0098234
0.00899276
0.0082723
0.00771164
0.00732337
0.00701067
0.00666277
0.00625848
0.00580264
0.0053104
0.00481573
0.00435689
0.0039579
0.00362331
0.00334565
0.003114
0.00291943
0.00275671
0.00262508
0.00252723
0.00246557
0.00244211
0.00245638
0.00250493
0.00257744
0.0026522
0.00270464
0.00267434
0.00270421
0.00278758
0.00135846
0.00208808
0.00221592
0.00230588
0.00249387
0.00240695
0.00231854
0.00224016
0.00212282
0.00196814
0.00179248
0.00161181
0.00144518
0.00131195
0.00121482
0.0011447
0.00109106
0.0010464
0.00100641
0.000969593
0.00093627
0.000907265
0.000883075
0.000863834
0.000849639
0.000840865
0.000838282
0.000842857
0.000855469
0.000876753
0.000906805
0.000945566
0.000993055
0.00104948
0.00111494
0.00118806
0.00127501
0.00130021
0.00126344
0.00119061
0.00111334
)
;

boundaryField
{
    floor
    {
        type            compressible::alphatWallFunction;
        Prt             0.85;
        value           nonuniform List<scalar> 
29
(
0.000168773
8.31773e-05
0.000100406
0.000116106
0.00012081
0.000118852
0.000114587
0.000107281
9.95707e-05
9.2506e-05
8.6237e-05
8.0696e-05
7.57865e-05
7.13961e-05
6.74723e-05
6.38678e-05
6.03993e-05
5.67974e-05
5.35743e-05
4.74679e-05
4.74672e-05
6.03004e-05
6.89969e-05
7.60175e-05
0.000168771
8.31763e-05
8.46459e-05
0.000153617
0.000239581
)
;
    }
    ceiling
    {
        type            compressible::alphatWallFunction;
        Prt             0.85;
        value           nonuniform List<scalar> 
43
(
0.000288484
0.000305002
0.000316568
0.000340713
0.000329686
0.000318394
0.000308339
0.000293202
0.000273105
0.000250069
0.000226114
0.000203756
0.00018567
0.000172356
0.000162668
0.000155211
0.00014897
0.000143355
0.000138162
0.000133442
0.000129318
0.000125866
0.000123112
0.000121075
0.000119814
0.000119442
0.000120099
0.000121909
0.000124957
0.000129247
0.000134755
0.000141468
0.000149395
0.000158531
0.000168662
0.00018062
0.000184067
0.000179035
0.000169016
0.000158312
0.000469172
0.000547307
0.000316943
)
;
    }
    sWall
    {
        type            compressible::alphatWallFunction;
        Prt             0.85;
        value           uniform 0.00028728;
    }
    nWall
    {
        type            compressible::alphatWallFunction;
        Prt             0.85;
        value           nonuniform List<scalar> 6(0.000128441 0.000134209 0.000154435 0.000187523 0.000191686 0.000157995);
    }
    sideWalls
    {
        type            empty;
    }
    glass1
    {
        type            compressible::alphatWallFunction;
        Prt             0.85;
        value           nonuniform List<scalar> 9(0.000182324 0.000241773 0.000289434 0.000333895 0.000378462 0.000425272 0.000466826 0.000474325 0.000462395);
    }
    glass2
    {
        type            compressible::alphatWallFunction;
        Prt             0.85;
        value           nonuniform List<scalar> 2(0.000233522 0.000220493);
    }
    sun
    {
        type            compressible::alphatWallFunction;
        Prt             0.85;
        value           nonuniform List<scalar> 
14
(
0.000186809
0.000204524
0.000209343
0.0002194
0.000228826
0.000237898
0.00024722
0.000254694
0.000259032
0.000259314
0.00025493
0.000245366
0.000229763
0.000205434
)
;
    }
    heatsource1
    {
        type            compressible::alphatWallFunction;
        Prt             0.85;
        value           nonuniform List<scalar> 3(9.35942e-05 0.000114345 0.000128733);
    }
    heatsource2
    {
        type            compressible::alphatWallFunction;
        Prt             0.85;
        value           nonuniform List<scalar> 4(0.000197675 0.000138551 0.000138549 0.000208217);
    }
    Table_master
    {
        type            compressible::alphatWallFunction;
        Prt             0.85;
        value           nonuniform List<scalar> 9(0.000152108 0.000132994 0.000117416 0.000104746 9.4374e-05 8.58049e-05 7.86689e-05 7.27808e-05 6.81087e-05);
    }
    Table_slave
    {
        type            compressible::alphatWallFunction;
        Prt             0.85;
        value           nonuniform List<scalar> 9(0.000172156 0.000155902 0.000143792 0.00013415 0.000125897 0.000118501 0.000111314 0.000103811 9.52562e-05);
    }
    inlet
    {
        type            fixedValue;
        value           uniform 1.94e-05;
    }
    outlet
    {
        type            zeroGradient;
    }
}


// ************************************************************************* //
