/*--------------------------------*- C++ -*----------------------------------*\
  =========                 |
  \\      /  F ield         | OpenFOAM: The Open Source CFD Toolbox
   \\    /   O peration     | Website:  https://openfoam.org
    \\  /    A nd           | Version:  6
     \\/     M anipulation  |
\*---------------------------------------------------------------------------*/
FoamFile
{
    version     2.0;
    format      ascii;
    class       volScalarField;
    location    "1100";
    object      alphat;
}
// * * * * * * * * * * * * * * * * * * * * * * * * * * * * * * * * * * * * * //

dimensions      [1 -1 -1 0 0 0 0];

internalField   nonuniform List<scalar> 
459
(
0.00116521
0.00130323
0.00139724
0.00129255
0.00116449
0.000980903
0.000855464
0.000772965
0.000719259
0.00068572
0.000666523
0.000657671
0.000655326
0.00065459
0.000654986
0.000547524
0.000545689
0.00046624
0.000398755
0.000360766
0.000346482
0.000341686
0.000348097
0.000358029
0.00036699
0.000371872
0.000369306
0.000363348
0.000362808
0.000373655
0.000407238
0.000454643
0.000585169
0.000540913
0.0012609
0.002575
0.00385756
0.0050968
0.00526267
0.00462066
0.00351692
0.00296175
0.00308521
0.00313477
0.00292538
0.00262388
0.00229736
0.00192456
0.00144548
0.00077528
0.000497187
0.000730115
0.00207317
0.00166853
0.00137221
0.00114318
0.000987437
0.000889539
0.000975357
0.00109278
0.00118398
0.00122993
0.0012164
0.00118726
0.00119932
0.00133869
0.00176806
0.00187716
0.00239586
0.000816751
0.00236731
0.0026829
0.00281089
0.00329184
0.00404838
0.00456734
0.00465818
0.00407192
0.00382266
0.00426662
0.00427427
0.0039289
0.0034695
0.00293894
0.00230939
0.00159139
0.000896879
0.000844148
0.00221509
0.00174751
0.00126196
0.000890243
0.000614125
0.000386259
0.000407994
0.000436178
0.000467535
0.00050503
0.00055378
0.000620866
0.000719887
0.000875028
0.0025883
0.00291693
0.00369824
0.00107019
0.00323179
0.00347905
0.00330191
0.00320695
0.00353351
0.00412505
0.00462314
0.00460431
0.00440516
0.00487221
0.0052993
0.00519548
0.00487465
0.00442788
0.00380642
0.00292162
0.00180422
0.000953905
0.00215389
0.00269057
0.00223934
0.00172805
0.00131095
0.000987149
0.000743029
0.000753548
0.000767491
0.000785124
0.000808553
0.000840657
0.000886097
0.000953911
0.00106438
0.0030598
0.0033033
0.00386153
0.0011844
0.00357118
0.00410381
0.00376595
0.00338847
0.0034635
0.00397225
0.0045795
0.00482776
0.00474137
0.00525746
0.00597789
0.00619125
0.00620444
0.00617053
0.0061005
0.00595537
0.00566523
0.00524912
0.00508679
0.00494776
0.00471692
0.00454089
0.00441243
0.00428659
0.00417391
0.00411987
0.00406811
0.00401305
0.0039556
0.00389833
0.00384498
0.00380153
0.00377599
0.00377733
0.003403
0.00287196
0.00223728
0.00139056
0.00149329
0.00150108
0.00387617
0.00454832
0.00426913
0.00352183
0.00345405
0.00394669
0.00462202
0.00501411
0.00509113
0.00557935
0.00629449
0.00661864
0.00682844
0.00702402
0.00718848
0.00728972
0.00727518
0.00710586
0.00685946
0.00662796
0.00645146
0.00633278
0.0062488
0.00617088
0.00608814
0.00600343
0.00591594
0.00582583
0.00573337
0.00563873
0.00554106
0.00543719
0.00531967
0.00517147
0.00496607
0.00475966
0.00462828
0.00471079
0.00493598
0.00191069
0.00421798
0.00469253
0.00461962
0.00359695
0.00352367
0.00405195
0.00475448
0.00523038
0.00545635
0.00583431
0.00632749
0.00659101
0.00688834
0.00722698
0.00753727
0.00777761
0.00790566
0.00788921
0.00776808
0.00762423
0.00750109
0.00740078
0.00731355
0.00722453
0.00712856
0.00702516
0.00691691
0.00680512
0.00669067
0.00657571
0.00646422
0.00636233
0.00627823
0.00621844
0.00617891
0.00614471
0.00611754
0.00634197
0.00723518
0.00228039
0.00466906
0.0050359
0.00456435
0.00344181
0.0038406
0.00443906
0.00510044
0.00561167
0.00591918
0.00609357
0.006295
0.0065146
0.0068247
0.0071945
0.00755365
0.00787137
0.00810307
0.00821371
0.00821858
0.00817001
0.00810812
0.00804293
0.00797245
0.00789313
0.00780366
0.00770408
0.00759658
0.00748119
0.00735708
0.00722511
0.00708881
0.00695496
0.0068346
0.00674365
0.00670311
0.00673613
0.00683158
0.00700042
0.00830883
0.00267929
0.00538218
0.00652686
0.0104138
0.0040857
0.00414728
0.00539773
0.00600448
0.00644317
0.00654193
0.00660676
0.0068281
0.00710071
0.00739273
0.00767824
0.00792826
0.0081516
0.00834012
0.0084717
0.00853997
0.00856096
0.00855471
0.00853351
0.00849732
0.00844727
0.00838556
0.00831249
0.00822866
0.00813238
0.00802159
0.00789582
0.0077566
0.00760737
0.00745397
0.00730587
0.0071807
0.0071168
0.00717707
0.00741809
0.00832041
0.00270161
0.0180697
0.0109502
0.0053517
0.00698632
0.00770022
0.00793841
0.00799286
0.00820082
0.00851516
0.00879321
0.00901983
0.00918078
0.00926979
0.00932024
0.00935572
0.00938252
0.00939927
0.00940544
0.00940282
0.00939323
0.00937639
0.00934714
0.0093098
0.00926338
0.00920327
0.0091257
0.00902953
0.00891527
0.00878395
0.00863675
0.00847527
0.00830266
0.00812586
0.00795842
0.00781867
0.00769992
0.00719084
0.00199196
0.00695899
0.00902039
0.00914155
0.00797447
0.00781933
0.00816933
0.00873956
0.00936328
0.00990211
0.0102629
0.0104406
0.0104797
0.0104386
0.0103698
0.0103037
0.0102515
0.0102139
0.0101881
0.0101706
0.0101592
0.0101531
0.010151
0.0101527
0.0101539
0.010136
0.0100947
0.0100339
0.00995801
0.00986974
0.00976997
0.00965815
0.00953279
0.00939153
0.00923054
0.00903488
0.00873732
0.0076727
0.00221566
0.00187044
0.0020245
0.00412636
0.00366952
0.00327084
0.00293957
0.00269967
0.00254541
0.00245995
0.00242424
0.00242132
0.0024356
0.00245139
0.00246009
0.00245953
0.00245116
0.00243807
0.00242316
0.00240829
0.00239438
0.00238179
0.00237051
0.00236036
0.00235133
0.00234308
0.00233534
0.00232896
0.00232295
0.00231635
0.00230894
0.00230086
0.00229235
0.00228363
0.0022748
0.00226587
0.00225687
0.00224858
0.00224132
0.00215837
0.0019035
)
;

boundaryField
{
    floor
    {
        type            compressible::alphatWallFunction;
        Prt             0.85;
        value           nonuniform List<scalar> 
29
(
9.28503e-05
7.67037e-05
7.64312e-05
6.42785e-05
5.37414e-05
4.77077e-05
4.54167e-05
4.46448e-05
4.56744e-05
4.7265e-05
4.86949e-05
4.94715e-05
4.9062e-05
4.81113e-05
4.8025e-05
4.97536e-05
5.50648e-05
6.24657e-05
8.23759e-05
7.57015e-05
7.57006e-05
0.00011645
0.000152432
0.000168325
9.28492e-05
7.67028e-05
0.000103865
0.000120409
0.000136095
)
;
    }
    ceiling
    {
        type            compressible::alphatWallFunction;
        Prt             0.85;
        value           nonuniform List<scalar> 
43
(
0.000261369
0.000281442
0.000543524
0.000487988
0.000438941
0.000397696
0.000367514
0.000347955
0.000337059
0.000332486
0.000332098
0.000333907
0.000335911
0.000337011
0.000336932
0.000335858
0.000334182
0.000332273
0.000330367
0.000328584
0.000326969
0.00032552
0.000324215
0.000323056
0.000321994
0.000320998
0.000320176
0.000319402
0.000318552
0.000317597
0.000316556
0.000315461
0.000314337
0.000313198
0.000312046
0.000310885
0.000309813
0.000308873
0.000298169
0.000265001
0.000692798
0.000826143
0.000875946
)
;
    }
    sWall
    {
        type            compressible::alphatWallFunction;
        Prt             0.85;
        value           uniform 0.000260821;
    }
    nWall
    {
        type            compressible::alphatWallFunction;
        Prt             0.85;
        value           nonuniform List<scalar> 6(0.000211414 0.000265742 0.00031368 0.000276367 0.000305369 0.000264811);
    }
    sideWalls
    {
        type            empty;
    }
    glass1
    {
        type            compressible::alphatWallFunction;
        Prt             0.85;
        value           nonuniform List<scalar> 9(0.000163238 0.000176394 0.000321832 0.00043051 0.000472176 0.000509266 0.000550492 0.000604406 0.000688655);
    }
    glass2
    {
        type            compressible::alphatWallFunction;
        Prt             0.85;
        value           nonuniform List<scalar> 2(0.000365461 0.000368299);
    }
    sun
    {
        type            compressible::alphatWallFunction;
        Prt             0.85;
        value           nonuniform List<scalar> 
14
(
0.000165723
0.000184706
0.000197503
0.000183241
0.000165598
0.00013992
0.000122068
0.000110159
0.000102323
9.73942e-05
9.456e-05
9.325e-05
9.29023e-05
9.27929e-05
)
;
    }
    heatsource1
    {
        type            compressible::alphatWallFunction;
        Prt             0.85;
        value           nonuniform List<scalar> 3(0.000196326 0.000210203 0.000211251);
    }
    heatsource2
    {
        type            compressible::alphatWallFunction;
        Prt             0.85;
        value           nonuniform List<scalar> 4(0.000110319 6.89108e-05 6.891e-05 0.000127807);
    }
    Table_master
    {
        type            compressible::alphatWallFunction;
        Prt             0.85;
        value           nonuniform List<scalar> 9(5.16529e-05 5.50807e-05 5.94914e-05 6.43562e-05 7.01198e-05 7.75343e-05 8.76065e-05 0.000102235 0.000124681);
    }
    Table_slave
    {
        type            compressible::alphatWallFunction;
        Prt             0.85;
        value           nonuniform List<scalar> 9(0.000105624 0.000107156 0.000109184 0.000111743 0.000115132 0.000119757 0.000126268 0.000135913 0.000151456);
    }
    inlet
    {
        type            fixedValue;
        value           uniform 1.94e-05;
    }
    outlet
    {
        type            zeroGradient;
    }
}


// ************************************************************************* //
