/*--------------------------------*- C++ -*----------------------------------*\
  =========                 |
  \\      /  F ield         | OpenFOAM: The Open Source CFD Toolbox
   \\    /   O peration     | Website:  https://openfoam.org
    \\  /    A nd           | Version:  6
     \\/     M anipulation  |
\*---------------------------------------------------------------------------*/
FoamFile
{
    version     2.0;
    format      ascii;
    class       surfaceScalarField;
    location    "900";
    object      phi;
}
// * * * * * * * * * * * * * * * * * * * * * * * * * * * * * * * * * * * * * //

dimensions      [1 0 -1 0 0 0 0];

internalField   nonuniform List<scalar> 
852
(
-0.00212519
0.00217964
-0.00206651
-5.84487e-05
-0.00187495
-0.000191339
-0.00177972
-9.50116e-05
-0.00174143
-3.80594e-05
-0.00172855
-1.26674e-05
-0.00172216
-6.16729e-06
-0.00170758
-1.43623e-05
-0.00167096
-3.64006e-05
-0.00159796
-7.27797e-05
-0.0014738
-0.000123947
-0.00128272
-0.000190861
-0.00100076
-0.000281747
-0.000579936
-0.000420605
-0.000579111
-0.000164059
0.000167066
-0.000165892
1.94798e-06
-0.00010883
-5.69569e-05
-5.81682e-05
-5.05581e-05
-7.68038e-07
-5.72896e-05
0.000103677
-0.000104321
0.000234353
-0.000130546
0.000346165
-0.000111685
0.000432269
-8.5982e-05
0.00049932
-6.69336e-05
0.000550869
-5.1437e-05
0.000582695
-3.17213e-05
0.000585795
-3.00344e-06
0.000560759
2.51301e-05
0.000522631
3.82191e-05
0.000499875
2.28462e-05
0.000555343
-5.53622e-05
0.000555998
-5.88166e-07
0.000559049
-0.00151693
0.00383391
-0.00188288
0.000307742
-0.00190398
-0.000170008
-0.0018962
-0.000102564
-0.00189091
-4.31228e-05
-0.00188664
-1.67123e-05
-0.00188025
-1.23387e-05
-0.00186607
-2.83173e-05
-0.00183628
-6.59743e-05
-0.00178091
-0.000127939
-0.0016872
-0.000217441
-0.00153913
-0.000338723
-0.00132241
-0.000498254
-0.00104615
-0.000696662
-0.000730703
-0.000894364
0.000156759
-0.000887319
0.000156927
0.000339401
-0.000167043
0.000128036
0.0002134
-0.00010882
0.000180007
-0.000217142
5.78708e-05
-0.000252842
-2.14807e-05
-0.000294231
-6.28028e-05
-0.000264601
-0.000160047
-0.000257739
-0.000118425
-0.000265723
-7.78819e-05
-0.000285251
-4.72964e-05
-0.000317561
-1.90245e-05
-0.000360177
1.09901e-05
-0.00040363
4.05386e-05
-0.000443217
6.48019e-05
-0.000471143
6.62319e-05
-0.000470404
2.21845e-05
-0.000509664
-1.6098e-05
-0.000512192
1.98036e-06
5.47058e-05
-0.00109594
0.00513014
-0.00161007
0.000822112
-0.00179853
1.86857e-05
-0.00187164
-2.92122e-05
-0.00189853
-1.6008e-05
-0.00190633
-8.68712e-06
-0.00190642
-1.20222e-05
-0.00190253
-3.19847e-05
-0.00189392
-7.43646e-05
-0.00187714
-0.000144512
-0.00184647
-0.0002479
-0.00179523
-0.000389761
-0.00172078
-0.000572497
-0.0016319
-0.000785345
-0.00154039
-0.000985694
-0.00132063
-0.0011069
-0.00116353
-0.00083084
0.000669333
-0.000923449
0.000306062
-0.000925968
0.000182591
-0.000935903
6.78776e-05
-0.000928301
-2.9016e-05
-0.000848309
-0.000142713
-0.00100811
-0.00112628
-0.00120391
-0.00125096
-0.00126972
-0.00125846
-0.00121762
-0.00115248
-0.00108586
-0.000837032
-0.000226331
-0.000700049
-0.000152677
-0.000519358
-0.000178205
-0.000460415
-0.000763534
0.00614533
-0.00130778
0.0013666
-0.00157503
0.000286195
-0.00171959
0.00011559
-0.00178646
5.1107e-05
-0.00180825
1.33286e-05
-0.00181094
-9.10415e-06
-0.00181099
-3.17102e-05
-0.00181692
-6.82223e-05
-0.00183359
-0.000127626
-0.00186463
-0.000216652
-0.00191495
-0.000339233
-0.0019949
-0.000492341
-0.00212111
-0.000658934
-0.00230116
-0.000805463
-0.00252809
-0.000879808
-0.00296774
-0.000723736
-0.00267134
-0.0002935
-0.0021078
0.000105892
-0.00200055
0.000198928
-0.00197617
0.000158357
-0.00199395
8.58311e-05
-0.00202183
-9.37725e-07
-0.00209246
-7.18762e-05
-0.00201751
-7.48954e-05
-0.00192817
-8.92779e-05
-0.0018221
-0.000106012
-0.00170364
-0.000118392
-0.00157507
-0.00012851
-0.00143651
-0.000138491
-0.00128461
-0.000151818
-0.00110856
-0.00017597
-0.000880008
-0.000228447
-0.000757606
-0.00034846
-0.000472222
-0.000437769
-9.76534e-05
-0.000552465
-0.000557605
-0.000508933
0.00695028
-0.0010374
0.00189533
-0.00120815
0.000457225
-0.00134937
0.000257075
-0.00148147
0.000183467
-0.00154731
7.94155e-05
-0.00155966
3.47485e-06
-0.00155547
-3.56739e-05
-0.00155673
-6.67403e-05
-0.0015757
-0.000108432
-0.00162114
-0.000170999
-0.0017002
-0.00025996
-0.00181875
-0.000373571
-0.001979
-0.000498476
-0.00217696
-0.000607301
-0.00240808
-0.000648497
-0.00259226
-0.000539365
-0.00258461
-0.000300972
-0.00240412
-7.44259e-05
-0.00223819
3.31634e-05
-0.0021297
5.00592e-05
-0.00206232
1.86529e-05
-0.00202563
-3.74113e-05
-0.00200798
-8.93169e-05
-0.00196166
-0.000120988
-0.00190315
-0.000147567
-0.0018377
-0.000171236
-0.00176481
-0.000191059
-0.00168494
-0.00020816
-0.00159782
-0.000225386
-0.00150067
-0.000248735
-0.00138606
-0.00029034
-0.00124494
-0.000369326
-0.00109611
-0.000497039
-0.000862967
-0.000670658
-0.000509508
-0.00090567
7.1923e-05
-0.00113879
0.00112582
-0.00105386
0.00138699
-0.000261136
0.00141025
-0.000448258
0.00773397
-0.000835211
0.00228256
-0.000642572
0.000264886
-0.000610693
0.000225499
-0.000820019
0.000393082
-0.00101408
0.000273745
-0.00109337
8.30063e-05
-0.001113
-1.5805e-05
-0.00111553
-6.39896e-05
-0.00112772
-9.60144e-05
-0.00116504
-0.000133456
-0.00123778
-0.000186991
-0.0013506
-0.000260522
-0.00150253
-0.000346329
-0.00168607
-0.000423532
-0.00188015
-0.0004542
-0.00202079
-0.000398513
-0.00205301
-0.00026854
-0.00198955
-0.00013768
-0.00189729
-5.88975e-05
-0.00181424
-3.27764e-05
-0.0017519
-4.34762e-05
-0.00171348
-7.5615e-05
-0.00169046
-0.000112111
-0.00166788
-0.000143332
-0.00164412
-0.000171103
-0.00161997
-0.000195146
-0.00159602
-0.000214779
-0.00157369
-0.000230262
-0.00155488
-0.000243956
-0.00154087
-0.000262512
-0.00153134
-0.000299629
-0.00152453
-0.000375897
-0.00150924
-0.000512092
-0.00144973
-0.000729931
-0.00130045
-0.0010547
-0.000967128
-0.00147188
-0.000254563
-0.00176619
0.000382463
-0.000897921
0.00182059
-0.000707843
0.00881403
-0.000333805
0.00190881
0.000431676
-0.000500259
0.000617545
3.99635e-05
0.000296051
0.000714896
-4.9464e-05
0.000619557
-0.000277035
0.000310845
-0.000401941
0.000109351
-0.000460996
-4.69739e-06
-0.000490968
-6.58065e-05
-0.000527529
-9.66596e-05
-0.000588987
-0.000125295
-0.000683655
-0.000165614
-0.000812955
-0.000216787
-0.00096833
-0.000267915
-0.00112709
-0.000295199
-0.00124925
-0.00027611
-0.00130271
-0.000214853
-0.00129445
-0.000145706
-0.0012559
-9.72154e-05
-0.00121251
-7.59396e-05
-0.00117784
-7.79109e-05
-0.00115746
-9.57662e-05
-0.00114914
-0.00012019
-0.0011476
-0.000144632
-0.00115093
-0.000167537
-0.00115874
-0.000187085
-0.00117195
-0.00020133
-0.00119337
-0.000208595
-0.00122851
-0.000208572
-0.00128599
-0.000204784
-0.00137721
-0.000208168
-0.00151325
-0.000239624
-0.00169583
-0.000329265
-0.00191237
-0.000513155
-0.00214469
-0.000822141
-0.00235974
-0.00125659
-0.00240667
-0.00171902
-0.00156646
-0.00173789
0.000285744
0.00164523
0.00758922
0.00268447
0.000869846
0.00300626
-0.000821699
0.00242089
0.000625688
0.00170909
0.00142704
0.00123111
0.00109785
0.000900893
0.000641349
0.000667208
0.000343306
0.000498959
0.000163815
0.000383044
5.03677e-05
0.000303994
-1.73554e-05
0.000234772
-5.58156e-05
0.000152756
-8.33371e-05
4.73438e-05
-0.000111112
-7.8614e-05
-0.000141692
-0.000208563
-0.000164984
-0.000316531
-0.000167878
-0.000382183
-0.00014894
-0.000406696
-0.000120935
-0.000405748
-9.79094e-05
-0.000395235
-8.62003e-05
-0.000386325
-8.65698e-05
-0.000385133
-9.67063e-05
-0.000392808
-0.000112262
-0.000408001
-0.000129185
-0.000429682
-0.0001456
-0.000456885
-0.000159624
-0.000489032
-0.000168923
-0.000526681
-0.000170685
-0.000572956
-0.000162036
-0.000636042
-0.000141438
-0.000732623
-0.000111328
-0.000890193
-8.17993e-05
-0.00114408
-7.51314e-05
-0.00153039
-0.000126595
-0.00209204
-0.00026024
-0.00290726
-0.000441116
-0.00395475
-0.000671265
-0.00409813
-0.00159425
-0.00370911
0.0080476
0.00890206
0.00688521
0.00119553
0.00405711
0.00345418
0.00282511
0.00265941
0.00222315
0.00170013
0.00187894
0.000985858
0.00166898
0.000553559
0.00152685
0.000306237
0.0014145
0.000163003
0.00131657
8.08566e-05
0.00122729
3.37581e-05
0.00114134
2.90912e-06
0.00105209
-2.15624e-05
0.000954709
-4.40127e-05
0.00085338
-6.33571e-05
0.000760855
-7.50571e-05
0.000689934
-7.77253e-05
0.000643341
-7.40525e-05
0.000615114
-6.93971e-05
0.000596912
-6.77158e-05
0.000581431
-7.08102e-05
0.000563637
-7.86348e-05
0.000541047
-8.93957e-05
0.000512535
-0.000100397
0.000478226
-0.000111015
0.000439175
-0.000120296
0.000397243
-0.000126714
0.000355177
-0.000128341
0.000316555
-0.000123135
0.000285306
-0.000109909
0.000264827
-9.05689e-05
0.000257077
-7.37724e-05
0.000261107
-7.88875e-05
0.000269723
-0.00013494
0.000273869
-0.00026412
0.000293882
-0.000460864
0.000380314
-0.000757434
0.000308088
-0.00152177
-0.00328863
-0.00309459
0.00252054
-0.00135527
0.00171533
0.000403686
0.000900857
0.00135747
0.000746701
0.00180253
0.000541149
0.00202639
0.000330038
0.00214316
0.000189807
0.00219917
0.000107334
0.00221862
6.17527e-05
0.00221321
3.95202e-05
0.00218596
3.04947e-05
0.00214001
2.47398e-05
0.00207797
1.83713e-05
0.00200477
1.01838e-05
0.00192848
1.56398e-06
0.00185733
-6.23754e-06
0.00179573
-1.21226e-05
0.00174409
-1.74395e-05
0.00170026
-2.35689e-05
0.00166101
-3.12481e-05
0.00162322
-4.05307e-05
0.00158453
-5.0406e-05
0.00154274
-5.83007e-05
0.00149753
-6.55116e-05
0.00144946
-7.19213e-05
0.00139998
-7.69361e-05
0.00135184
-7.99097e-05
0.00130941
-8.04022e-05
0.00127864
-7.88466e-05
0.00126633
-7.79581e-05
0.00127783
-8.49754e-05
0.00131315
-0.000113912
0.00136342
-0.000184921
0.00141645
-0.000316866
0.00147501
-0.000519145
0.00153103
-0.000813182
0.00133578
-0.00132625
-0.00192912
-0.000471162
0.00296858
0.0010707
0.000173989
0.00168591
0.000286128
0.00220603
0.000227041
0.00265783
8.98017e-05
0.00296005
2.82492e-05
0.00312945
2.08426e-05
0.00320626
3.09502e-05
0.00322314
4.52967e-05
0.00320355
5.95186e-05
0.00316421
7.02469e-05
0.00311443
7.49251e-05
0.00305947
7.37215e-05
0.00300194
6.81048e-05
0.00294393
5.99557e-05
0.00288669
5.1376e-05
0.00283252
4.24157e-05
0.00278211
3.33327e-05
0.00273459
2.43048e-05
0.00268822
1.54711e-05
0.00264104
6.99068e-06
0.00259172
-7.50064e-07
0.00254081
-7.05517e-06
0.00248825
-1.26246e-05
0.00243406
-1.74164e-05
0.00237899
-2.15477e-05
0.00232466
-2.52647e-05
0.00227369
-2.91213e-05
0.00222944
-3.42859e-05
0.00219484
-4.30499e-05
0.00216973
-5.95586e-05
0.00214663
-9.05123e-05
0.00210714
-0.000145136
0.00202424
-0.000233667
0.00187028
-0.000364901
0.00159794
-0.000540556
0.00107119
-0.000799234
-0.000832197
0.00469999
0.000581334
0.0035139
0.00365091
0.00389669
0.00407923
0.0041202
0.00409566
0.00406044
0.004033
0.0040186
0.0040181
0.00402883
0.00404525
0.00406176
0.00407403
0.0040795
0.00407768
0.00406809
0.0040505
0.00402486
0.00399128
0.00395004
0.00390182
0.00384806
0.00378945
0.00372675
0.00366061
0.00359142
0.00351902
0.0034421
0.00335702
0.00325599
0.00312451
0.00293879
0.00266482
0.00225973
0.0016789
0.000840007
)
;

boundaryField
{
    floor
    {
        type            calculated;
        value           nonuniform List<scalar> 
29
(
0
0
0
0
0
0
0
0
0
0
0
0
0
0
0
0
0
0
0
0
-3.02226e-06
-7.80044e-06
-3.50692e-06
-1.51645e-07
-6.14796e-07
-2.86952e-06
-5.28786e-06
-5.46279e-06
-2.77843e-06
)
;
    }
    ceiling
    {
        type            calculated;
        value           nonuniform List<scalar> 
43
(
9.30679e-05
7.76485e-05
3.65476e-05
3.75535e-05
4.09262e-05
4.50833e-05
4.94028e-05
5.33643e-05
5.66158e-05
5.89402e-05
6.02329e-05
6.05305e-05
6.00226e-05
5.89869e-05
5.7683e-05
5.62945e-05
5.49268e-05
5.363e-05
5.2431e-05
5.13385e-05
5.03479e-05
4.94465e-05
4.86178e-05
4.78405e-05
4.70787e-05
4.63418e-05
4.563e-05
4.49391e-05
4.42647e-05
4.36049e-05
4.2963e-05
4.23494e-05
4.17813e-05
4.12821e-05
4.0878e-05
4.05985e-05
4.04822e-05
4.05508e-05
3.99348e-05
4.31558e-05
1.78704e-05
1.5641e-05
2.37546e-05
)
;
    }
    sWall
    {
        type            calculated;
        value           uniform -0.000117326;
    }
    nWall
    {
        type            calculated;
        value           nonuniform List<scalar> 6(-2.32232e-05 -2.76675e-05 -3.13935e-05 -2.34686e-05 -2.54777e-05 -3.50919e-05);
    }
    sideWalls
    {
        type            empty;
        value           nonuniform 0();
    }
    glass1
    {
        type            calculated;
        value           nonuniform List<scalar> 9(-5.42385e-05 -0.000137123 -0.000200079 -0.000251442 -0.000295804 -0.000335214 -0.000371988 -0.0004202 -0.00047602);
    }
    glass2
    {
        type            calculated;
        value           nonuniform List<scalar> 2(-0.000103011 -0.000112139);
    }
    sun
    {
        type            calculated;
        value           uniform 0;
    }
    heatsource1
    {
        type            calculated;
        value           nonuniform List<scalar> 3(2.01322e-07 2.01335e-07 2.0144e-07);
    }
    heatsource2
    {
        type            calculated;
        value           nonuniform List<scalar> 4(5.06206e-08 5.07927e-08 0 0);
    }
    Table_master
    {
        type            calculated;
        value           nonuniform List<scalar> 9(-1.52595e-07 -1.52524e-07 -1.52452e-07 -1.52389e-07 -1.52332e-07 -1.52278e-07 -1.52218e-07 -1.52149e-07 -1.52042e-07);
    }
    Table_slave
    {
        type            calculated;
        value           nonuniform List<scalar> 9(1.51141e-07 1.51162e-07 1.51184e-07 1.5121e-07 1.51241e-07 1.51274e-07 1.51309e-07 1.51348e-07 1.51366e-07);
    }
    inlet
    {
        type            calculated;
        value           uniform 0.00177027;
    }
    outlet
    {
        type            calculated;
        value           nonuniform List<scalar> 2(-0.00467528 0.00404146);
    }
}


// ************************************************************************* //
