// -*- C++ -*-
// File generated by PyFoam - sorry for the ugliness

FoamFile
{
 version 2.0;
 format ascii;
 class volScalarField;
 location "510";
 object T;
}

dimensions [ 0 0 0 1 0 0 0 ];

internalField nonuniform List<scalar> 459
(
  303.545
  303.413
  303.41
  303.411
  303.412
  303.412
  303.412
  303.411
  303.408
  303.403
  303.398
  303.394
  303.393
  303.39
  303.356
  303.333
  303.412
  303.442
  303.456
  303.465
  303.47
  303.471
  303.47
  303.468
  303.466
  303.464
  303.461
  303.459
  303.457
  303.454
  303.45
  303.446
  303.435
  303.374
  303.639
  303.445
  303.439
  303.443
  303.447
  303.449
  303.448
  303.445
  303.436
  303.423
  303.41
  303.402
  303.401
  303.404
  303.402
  303.408
  303.412
  303.423
  303.46
  303.476
  303.489
  303.5
  303.508
  303.51
  303.511
  303.511
  303.511
  303.511
  303.511
  303.51
  303.509
  303.505
  303.499
  303.487
  303.468
  303.452
  303.734
  303.473
  303.461
  303.469
  303.478
  303.484
  303.486
  303.482
  303.466
  303.441
  303.415
  303.4
  303.399
  303.407
  303.413
  303.417
  303.418
  303.449
  303.467
  303.487
  303.504
  303.519
  303.531
  303.531
  303.531
  303.532
  303.532
  303.533
  303.533
  303.533
  303.533
  303.531
  303.526
  303.514
  303.494
  303.478
  303.829
  303.504
  303.48
  303.494
  303.511
  303.526
  303.535
  303.532
  303.505
  303.462
  303.419
  303.395
  303.394
  303.406
  303.418
  303.427
  303.429
  303.436
  303.454
  303.477
  303.5
  303.523
  303.543
  303.559
  303.573
  303.585
  303.595
  303.605
  303.613
  303.619
  303.625
  303.629
  303.632
  303.603
  303.57
  303.533
  303.505
  303.923
  303.541
  303.499
  303.513
  303.538
  303.565
  303.586
  303.585
  303.545
  303.481
  303.42
  303.388
  303.387
  303.404
  303.425
  303.441
  303.453
  303.469
  303.488
  303.511
  303.535
  303.558
  303.578
  303.595
  303.611
  303.624
  303.634
  303.643
  303.65
  303.655
  303.658
  303.658
  303.655
  303.641
  303.613
  303.576
  303.537
  303.538
  303.54
  303.571
  304.01
  303.587
  303.524
  303.528
  303.553
  303.586
  303.625
  303.623
  303.567
  303.486
  303.415
  303.379
  303.379
  303.404
  303.435
  303.462
  303.484
  303.505
  303.527
  303.551
  303.575
  303.597
  303.616
  303.632
  303.646
  303.657
  303.665
  303.671
  303.675
  303.678
  303.679
  303.677
  303.673
  303.662
  303.643
  303.615
  303.581
  303.568
  303.561
  303.58
  304.087
  303.662
  303.588
  303.571
  303.583
  303.612
  303.652
  303.637
  303.566
  303.471
  303.394
  303.36
  303.371
  303.409
  303.454
  303.493
  303.523
  303.549
  303.573
  303.596
  303.618
  303.637
  303.653
  303.666
  303.675
  303.682
  303.687
  303.69
  303.691
  303.691
  303.69
  303.688
  303.683
  303.674
  303.66
  303.64
  303.614
  303.595
  303.581
  303.59
  304.2
  303.868
  303.776
  303.718
  303.696
  303.71
  303.704
  303.637
  303.526
  303.414
  303.343
  303.33
  303.366
  303.427
  303.488
  303.537
  303.572
  303.597
  303.62
  303.64
  303.657
  303.671
  303.681
  303.689
  303.694
  303.696
  303.698
  303.698
  303.697
  303.695
  303.692
  303.689
  303.685
  303.678
  303.667
  303.653
  303.635
  303.618
  303.607
  303.667
  304.358
  304.204
  304.089
  303.983
  303.905
  303.845
  303.718
  303.544
  303.384
  303.282
  303.257
  303.299
  303.381
  303.469
  303.544
  303.593
  303.622
  303.643
  303.659
  303.673
  303.683
  303.691
  303.696
  303.699
  303.701
  303.701
  303.7
  303.698
  303.696
  303.693
  303.69
  303.686
  303.681
  303.678
  303.675
  303.675
  303.679
  303.689
  303.704
  303.743
  301.561
  302.259
  302.623
  302.737
  302.791
  302.849
  302.931
  303.041
  303.178
  303.32
  303.452
  303.552
  303.607
  303.64
  303.66
  303.673
  303.683
  303.69
  303.695
  303.698
  303.7
  303.701
  303.701
  303.7
  303.699
  303.697
  303.695
  303.693
  303.691
  303.689
  303.687
  303.686
  303.687
  303.689
  303.695
  303.705
  303.721
  303.755
  301.617
  302.17
  302.412
  302.546
  302.664
  302.814
  302.981
  303.154
  303.331
  303.464
  303.554
  303.613
  303.646
  303.666
  303.677
  303.685
  303.69
  303.694
  303.696
  303.697
  303.698
  303.698
  303.698
  303.698
  303.697
  303.697
  303.697
  303.697
  303.696
  303.695
  303.695
  303.694
  303.695
  303.696
  303.7
  303.707
  303.72
  303.74
  302.142
  302.103
  302.102
  302.439
  302.655
  302.854
  303.051
  303.208
  303.338
  303.445
  303.528
  303.585
  303.621
  303.644
  303.657
  303.665
  303.67
  303.673
  303.674
  303.676
  303.676
  303.677
  303.677
  303.677
  303.678
  303.678
  303.679
  303.68
  303.681
  303.682
  303.684
  303.686
  303.687
  303.689
  303.691
  303.693
  303.695
  303.7
  303.701
  303.732
)
;

boundaryField
{
  floor
  {
    type wallHeatTransfer;
    Tinf uniform 300.653;
    alphaWall uniform 0.24;
    value nonuniform List<scalar> 29
(
  303.002
  302.848
  303.009
  303.028
  303.035
  303.035
  303.029
  303.013
  302.992
  302.969
  302.947
  302.926
  302.905
  302.885
  302.864
  302.843
  302.821
  302.794
  302.747
  302.687
  302.687
  302.843
  302.899
  302.966
  303.002
  302.848
  303.035
  303.105
  303.16
)
;
  }
  ceiling
  {
    type wallHeatTransfer;
    Tinf uniform 300.653;
    alphaWall uniform 0.24;
    value nonuniform List<scalar> 43
(
  302.011
  301.981
  301.984
  302.304
  302.503
  302.683
  302.862
  303.01
  303.135
  303.238
  303.316
  303.365
  303.394
  303.409
  303.418
  303.422
  303.426
  303.428
  303.429
  303.429
  303.429
  303.429
  303.429
  303.429
  303.429
  303.428
  303.426
  303.423
  303.418
  303.413
  303.407
  303.402
  303.397
  303.394
  303.393
  303.394
  303.396
  303.397
  303.399
  303.421
  304.149
  304.033
  301.536
)
;
  }
  sWall
  {
    type wallHeatTransfer;
    Tinf uniform 310.178;
    alphaWall uniform 0.36;
    value uniform 303.159;
  }
  nWall
  {
    type wallHeatTransfer;
    Tinf uniform 306.167;
    alphaWall uniform 0.36;
    value nonuniform List<scalar> 6
(
  304.197
  304.107
  304.056
  304.081
  304.044
  304.085
)
;
  }
  sideWalls
  {
    type empty;
  }
  glass1
  {
    type wallHeatTransfer;
    Tinf uniform 310.178;
    alphaWall uniform 4.3;
    value nonuniform List<scalar> 9
(
  308.327
  308.017
  307.811
  307.647
  307.507
  307.375
  307.261
  307.278
  307.378
)
;
  }
  glass2
  {
    type wallHeatTransfer;
    Tinf uniform 306.167;
    alphaWall uniform 4.3;
    value nonuniform List<scalar> 2
(
  305.371
  305.373
)
;
  }
  sun
  {
    type wallHeatTransfer;
    Tinf uniform 300.653;
    alphaWall uniform 0.24;
    value nonuniform List<scalar> 14
(
  303.185
  303.092
  303.095
  303.108
  303.118
  303.127
  303.135
  303.142
  303.145
  303.144
  303.14
  303.132
  303.121
  303.097
)
;
  }
  heatsource1
  {
    type fixedGradient;
    gradient uniform 0;
  }
  heatsource2
  {
    type fixedGradient;
    gradient uniform 0;
  }
  Table_master
  {
    type zeroGradient;
  }
  Table_slave
  {
    type zeroGradient;
  }
  inlet
  {
    type fixedValue;
    value uniform 300.15;
  }
  outlet
  {
    type zeroGradient;
  }
} 	// ************************************************************************* //

