// -*- C++ -*-
// File generated by PyFoam - sorry for the ugliness

FoamFile
{
 version 2.0;
 format ascii;
 class volVectorField;
 location "1200";
 object U;
}

dimensions [ 0 1 -1 0 0 0 0 ];

internalField nonuniform List<vector> 459
(
  (0.0409599 0.0758368 0)
  (-0.145719 0.0181323 0)
  (-0.151566 0.0072678 0)
  (-0.161299 0.00247969 0)
  (-0.16316 -0.0018351 0)
  (-0.158055 -0.00565731 0)
  (-0.148322 -0.00819979 0)
  (-0.136528 -0.0090919 0)
  (-0.124577 -0.00935629 0)
  (-0.112964 -0.00981667 0)
  (-0.101135 -0.0109505 0)
  (-0.0875344 -0.0131883 0)
  (-0.070247 -0.0172867 0)
  (-0.0502353 -0.0244824 0)
  (-0.0372047 -0.0347248 0)
  (0.0744376 -0.00267898 0)
  (-0.0223764 0.00387881 0)
  (-0.00689872 0.00286047 0)
  (-0.0113591 0.000934009 0)
  (-0.0134496 -0.000387148 0)
  (-0.0134213 -0.0014341 0)
  (-0.00920988 -0.00651723 0)
  (-0.00205309 -0.00639879 0)
  (0.00458138 -0.00466981 0)
  (0.00900944 -0.00348239 0)
  (0.0123433 -0.0027285 0)
  (0.0148639 -0.00232149 0)
  (0.0169063 -0.00221396 0)
  (0.0183696 -0.00202865 0)
  (0.0183465 -0.001754 0)
  (0.0165696 -0.000171096 0)
  (0.0151644 -0.00109858 0)
  (0.0189103 0.000756828 0)
  (-0.0306891 0.0078588 0)
  (0.173768 0.156035 0)
  (-0.152559 0.0505474 0)
  (-0.136148 0.02082 0)
  (-0.147029 0.0099119 0)
  (-0.152295 -0.00183275 0)
  (-0.148724 -0.0123221 0)
  (-0.139991 -0.017592 0)
  (-0.129338 -0.0181928 0)
  (-0.119274 -0.0173334 0)
  (-0.110164 -0.0167221 0)
  (-0.101527 -0.0172719 0)
  (-0.0923785 -0.0196676 0)
  (-0.0816778 -0.0248117 0)
  (-0.0694748 -0.0337791 0)
  (-0.0571646 -0.0452262 0)
  (-0.044416 -0.0483219 0)
  (0.0112336 0.00508919 0)
  (0.0404715 0.000664998 0)
  (-0.00711774 0.00812099 0)
  (-0.00460298 0.00685538 0)
  (-0.00559156 0.00511872 0)
  (-0.00791551 0.00382244 0)
  (-0.0157537 0.000989299 0)
  (-0.0135089 -0.0125989 0)
  (-0.011501 -0.0100897 0)
  (-0.00726731 -0.00662183 0)
  (-0.00632565 -0.00464405 0)
  (-0.00618864 -0.00336777 0)
  (-0.00642728 -0.00205666 0)
  (-0.00713954 9.56242e-05 0)
  (-0.00975397 0.00318585 0)
  (-0.0115505 0.00612475 0)
  (-0.0131048 0.00898668 0)
  (-0.0171876 0.00704609 0)
  (-0.0283932 0.00621955 0)
  (-0.0495194 0.00310866 0)
  (0.348352 0.232202 0)
  (-0.126421 0.0482637 0)
  (-0.0670766 -0.0064098 0)
  (-0.0815998 -0.00280111 0)
  (-0.104587 -0.0131125 0)
  (-0.117019 -0.0239229 0)
  (-0.116229 -0.0284649 0)
  (-0.109941 -0.0279688 0)
  (-0.103493 -0.0259328 0)
  (-0.0978348 -0.0243986 0)
  (-0.0930136 -0.0245161 0)
  (-0.0887744 -0.0271254 0)
  (-0.0847575 -0.0329427 0)
  (-0.0806838 -0.0420977 0)
  (-0.0762653 -0.0526925 0)
  (-0.0741967 -0.0606008 0)
  (-0.088844 -0.0661404 0)
  (-0.0379374 0.0225779 0)
  (-0.0298826 0.00984982 0)
  (-0.027851 0.00652102 0)
  (-0.0240824 0.00428493 0)
  (-0.0187404 0.00256144 0)
  (-0.0158858 -4.72378e-05 0)
  (-0.00397962 -0.0121478 0)
  (-0.0249796 -0.0100037 0)
  (-0.0324515 -0.00733421 0)
  (-0.0374123 -0.00583898 0)
  (-0.0410366 -0.00476721 0)
  (-0.0437132 -0.00380734 0)
  (-0.0452769 -0.0029254 0)
  (-0.0444861 -0.0024168 0)
  (-0.0395604 -0.00341354 0)
  (-0.027851 -0.00542516 0)
  (-0.0125481 -0.00191603 0)
  (-0.0170615 -0.0015574 0)
  (0.0753374 -0.00953984 0)
  (0.581076 0.254353 0)
  (0.279403 0.180801 0)
  (0.225702 0.136146 0)
  (0.174159 0.109003 0)
  (0.0997562 0.078453 0)
  (0.00634188 0.0268411 0)
  (-0.0634272 -0.0193697 0)
  (-0.0769233 -0.0289196 0)
  (-0.0788516 -0.0290235 0)
  (-0.0780566 -0.0272367 0)
  (-0.0772882 -0.0263699 0)
  (-0.0776551 -0.0277921 0)
  (-0.0797083 -0.0322517 0)
  (-0.0837027 -0.0393945 0)
  (-0.0905258 -0.0473776 0)
  (-0.104094 -0.0529991 0)
  (-0.125984 -0.0491657 0)
  (-0.126847 -0.0199922 0)
  (-0.0973437 0.0113096 0)
  (-0.0839865 0.00584693 0)
  (-0.079054 0.00329931 0)
  (-0.0779767 0.00114235 0)
  (-0.0787414 -0.00136994 0)
  (-0.0811648 -0.00421195 0)
  (-0.0822786 -0.00367546 0)
  (-0.0792435 -0.00396508 0)
  (-0.0758507 -0.00457394 0)
  (-0.0719005 -0.00512296 0)
  (-0.0674734 -0.00573039 0)
  (-0.0625266 -0.00650807 0)
  (-0.0566477 -0.00761474 0)
  (-0.0489371 -0.00940856 0)
  (-0.0393292 -0.0126365 0)
  (-0.0328067 -0.0179439 0)
  (-0.0291859 -0.0187829 0)
  (-0.0370111 -0.0191788 0)
  (0.129092 -0.00267639 0)
  (0.427434 -0.186245 0)
  (0.27295 -0.00726018 0)
  (0.265726 0.0935046 0)
  (0.241683 0.141386 0)
  (0.174099 0.140303 0)
  (0.0927936 0.104973 0)
  (0.0254913 0.0550681 0)
  (-0.0334908 -0.00838514 0)
  (-0.0480588 -0.0240902 0)
  (-0.0527423 -0.025856 0)
  (-0.0551968 -0.0248048 0)
  (-0.0580881 -0.0245591 0)
  (-0.062754 -0.026738 0)
  (-0.0695817 -0.0312924 0)
  (-0.0790018 -0.0369267 0)
  (-0.0919492 -0.0410567 0)
  (-0.105783 -0.0380213 0)
  (-0.11081 -0.0216898 0)
  (-0.105441 -0.00722641 0)
  (-0.097661 -0.00167983 0)
  (-0.0919652 -5.59877e-05 0)
  (-0.0879574 -5.32592e-05 0)
  (-0.0850707 -0.0010894 0)
  (-0.0829612 -0.00247865 0)
  (-0.0806751 -0.00306274 0)
  (-0.0778115 -0.00411258 0)
  (-0.0748497 -0.00491956 0)
  (-0.071746 -0.00557248 0)
  (-0.0684869 -0.00620133 0)
  (-0.0650859 -0.00694637 0)
  (-0.0614934 -0.00799561 0)
  (-0.0576595 -0.00973366 0)
  (-0.0541504 -0.0128753 0)
  (-0.0527512 -0.0175617 0)
  (-0.0553509 -0.0197967 0)
  (-0.0609618 -0.0194369 0)
  (-0.0599853 -0.0109233 0)
  (-0.063717 -0.0106872 0)
  (-0.0497181 -0.0201646 0)
  (0.0194505 -0.0419557 0)
  (0.343925 -0.304621 0)
  (0.129237 -0.0634005 0)
  (0.190973 0.122188 0)
  (0.194505 0.200475 0)
  (0.145226 0.202143 0)
  (0.0876182 0.161081 0)
  (0.0438862 0.10253 0)
  (0.0112836 0.0398864 0)
  (-0.0155945 -0.00981903 0)
  (-0.0248273 -0.0210539 0)
  (-0.0295783 -0.0215492 0)
  (-0.0336181 -0.0201073 0)
  (-0.0390121 -0.0202525 0)
  (-0.0464792 -0.0226622 0)
  (-0.0562249 -0.0263981 0)
  (-0.0679504 -0.0291265 0)
  (-0.0791528 -0.027036 0)
  (-0.0854812 -0.0187074 0)
  (-0.0859177 -0.0108723 0)
  (-0.0832286 -0.00655361 0)
  (-0.0799491 -0.00449265 0)
  (-0.0767476 -0.00395644 0)
  (-0.0738891 -0.00448197 0)
  (-0.0714206 -0.00544442 0)
  (-0.0690832 -0.00627804 0)
  (-0.0667295 -0.00721731 0)
  (-0.0643938 -0.00807104 0)
  (-0.0620283 -0.00882065 0)
  (-0.0596152 -0.00952538 0)
  (-0.0571729 -0.0102687 0)
  (-0.0547373 -0.011166 0)
  (-0.0524302 -0.0124274 0)
  (-0.050667 -0.0143276 0)
  (-0.0500965 -0.0166396 0)
  (-0.0507439 -0.0178623 0)
  (-0.0509651 -0.0171532 0)
  (-0.048124 -0.0129152 0)
  (-0.0455285 -0.0124846 0)
  (-0.0468577 -0.019759 0)
  (0.0636878 -0.054969 0)
  (0.264397 -0.364199 0)
  (0.00623781 -0.137334 0)
  (0.127015 0.122053 0)
  (0.124664 0.239088 0)
  (0.0795646 0.241465 0)
  (0.0478536 0.193117 0)
  (0.033992 0.126967 0)
  (0.0260954 0.0615537 0)
  (0.0178649 0.0130953 0)
  (0.00561343 -0.0120417 0)
  (-0.00140288 -0.0172454 0)
  (-0.00602634 -0.0157554 0)
  (-0.0108317 -0.0142545 0)
  (-0.0172244 -0.0146551 0)
  (-0.0256336 -0.016673 0)
  (-0.0355243 -0.0186364 0)
  (-0.0450285 -0.0181582 0)
  (-0.0516421 -0.0146944 0)
  (-0.0546058 -0.0108758 0)
  (-0.0550123 -0.00832377 0)
  (-0.0541435 -0.00697327 0)
  (-0.052678 -0.00660763 0)
  (-0.051041 -0.00697656 0)
  (-0.0494419 -0.00772937 0)
  (-0.047884 -0.00858233 0)
  (-0.046343 -0.00948958 0)
  (-0.0448206 -0.0103486 0)
  (-0.0432859 -0.0111359 0)
  (-0.0417239 -0.0118812 0)
  (-0.0401407 -0.0126433 0)
  (-0.0385623 -0.0135113 0)
  (-0.037069 -0.0146173 0)
  (-0.0358504 -0.016071 0)
  (-0.035092 -0.0176991 0)
  (-0.0345198 -0.0189254 0)
  (-0.0328229 -0.0193981 0)
  (-0.028519 -0.0197272 0)
  (-0.0257982 -0.0236524 0)
  (-0.0472838 -0.0347688 0)
  (0.10955 -0.0654448 0)
  (0.131919 -0.311943 0)
  (-0.150026 -0.187288 0)
  (0.0710537 0.057918 0)
  (0.0548675 0.280187 0)
  (-0.00550566 0.258477 0)
  (-0.000378758 0.194869 0)
  (0.0169029 0.124648 0)
  (0.0310126 0.0629739 0)
  (0.0367556 0.0199495 0)
  (0.0334224 -0.00349877 0)
  (0.0278437 -0.011675 0)
  (0.0237425 -0.0119127 0)
  (0.0204995 -0.00995811 0)
  (0.016449 -0.00862345 0)
  (0.0106742 -0.00873415 0)
  (0.00333465 -0.00976833 0)
  (-0.00449825 -0.0103074 0)
  (-0.0106732 -0.00956376 0)
  (-0.0146731 -0.00837879 0)
  (-0.01681 -0.00753625 0)
  (-0.0177054 -0.00718479 0)
  (-0.0178585 -0.00729795 0)
  (-0.0176516 -0.00778661 0)
  (-0.0173137 -0.00850524 0)
  (-0.0169256 -0.00931881 0)
  (-0.0165109 -0.0101625 0)
  (-0.0160813 -0.0109707 0)
  (-0.015626 -0.0117207 0)
  (-0.0151371 -0.0124273 0)
  (-0.0146165 -0.0131331 0)
  (-0.0140764 -0.0139078 0)
  (-0.013552 -0.0148477 0)
  (-0.0131112 -0.0160309 0)
  (-0.0127849 -0.0173959 0)
  (-0.0123335 -0.0187035 0)
  (-0.0108807 -0.0198531 0)
  (-0.00742791 -0.0217852 0)
  (-0.00465357 -0.0279103 0)
  (-0.0358299 -0.0430044 0)
  (0.178141 -0.0595456 0)
  (-0.0826412 -0.165765 0)
  (-0.417381 -0.10864 0)
  (-0.581393 -0.0173396 0)
  (-0.0303509 0.260046 0)
  (-0.102868 0.230024 0)
  (-0.0436729 0.1673 0)
  (0.0077759 0.0991679 0)
  (0.0388596 0.0498849 0)
  (0.0540124 0.018791 0)
  (0.0581092 0.00220387 0)
  (0.0574022 -0.00421895 0)
  (0.0562874 -0.00482835 0)
  (0.0554695 -0.00321976 0)
  (0.0539203 -0.00146511 0)
  (0.0508692 -0.000560945 0)
  (0.0464576 -0.000625241 0)
  (0.0413294 -0.00117292 0)
  (0.0364653 -0.00164758 0)
  (0.0325044 -0.00195277 0)
  (0.0296078 -0.0022594 0)
  (0.0275881 -0.00265659 0)
  (0.0261374 -0.00316256 0)
  (0.0249712 -0.00378669 0)
  (0.023914 -0.0045162 0)
  (0.0228975 -0.0053055 0)
  (0.0219013 -0.00611241 0)
  (0.0209196 -0.0068965 0)
  (0.0199584 -0.00763962 0)
  (0.0190239 -0.00835091 0)
  (0.0181177 -0.00906636 0)
  (0.017236 -0.0098488 0)
  (0.0163666 -0.0107853 0)
  (0.0154891 -0.0119651 0)
  (0.0146019 -0.0134292 0)
  (0.013806 -0.0151459 0)
  (0.0134467 -0.0171561 0)
  (0.013593 -0.0201885 0)
  (0.0112942 -0.0267757 0)
  (-0.0180205 -0.0405725 0)
  (0.16321 -0.0502223 0)
  (-2.00235 -0.0354933 0)
  (-0.068192 0.106759 0)
  (-0.144339 0.128413 0)
  (-0.0517391 0.102338 0)
  (0.0311071 0.0552796 0)
  (0.0667453 0.0344894 0)
  (0.0860777 0.0219767 0)
  (0.0952122 0.0125554 0)
  (0.0973719 0.00887121 0)
  (0.0972006 0.00991947 0)
  (0.0965056 0.0131124 0)
  (0.0954712 0.0166309 0)
  (0.0939321 0.0187205 0)
  (0.0919498 0.018485 0)
  (0.0893433 0.0171196 0)
  (0.0863557 0.0153154 0)
  (0.0833396 0.0133504 0)
  (0.0806083 0.0110884 0)
  (0.0781003 0.00886312 0)
  (0.0757144 0.00684645 0)
  (0.0733466 0.00496035 0)
  (0.0709349 0.00310074 0)
  (0.0684601 0.00125436 0)
  (0.0659173 -0.000561663 0)
  (0.0633108 -0.00232714 0)
  (0.0606541 -0.00403847 0)
  (0.0579633 -0.00572046 0)
  (0.0552511 -0.00743178 0)
  (0.0525219 -0.00926676 0)
  (0.0497685 -0.0113518 0)
  (0.0469708 -0.0138281 0)
  (0.044106 -0.0168135 0)
  (0.0411791 -0.0203538 0)
  (0.0382623 -0.0244044 0)
  (0.0350318 -0.0290031 0)
  (0.0284859 -0.0350402 0)
  (0.00332016 -0.0468772 0)
  (0.0713807 -0.0746392 0)
  (-0.863381 0.0755274 0)
  (0.34048 -0.0434628 0)
  (0.109694 -0.0420653 0)
  (0.093961 -0.0549031 0)
  (0.131023 -0.0836555 0)
  (0.155643 -0.105363 0)
  (0.165532 -0.12412 0)
  (0.164403 -0.136328 0)
  (0.157656 -0.141973 0)
  (0.149213 -0.142278 0)
  (0.141681 -0.138937 0)
  (0.136468 -0.132179 0)
  (0.133567 -0.124867 0)
  (0.132042 -0.118089 0)
  (0.13106 -0.112819 0)
  (0.130116 -0.109117 0)
  (0.128967 -0.106716 0)
  (0.127312 -0.105035 0)
  (0.125075 -0.103908 0)
  (0.122375 -0.102846 0)
  (0.11936 -0.101673 0)
  (0.116089 -0.100608 0)
  (0.112572 -0.0996976 0)
  (0.108793 -0.0989194 0)
  (0.104752 -0.0982318 0)
  (0.100466 -0.0976009 0)
  (0.0959615 -0.0970096 0)
  (0.0912557 -0.0964573 0)
  (0.0863495 -0.0959558 0)
  (0.0812187 -0.0955222 0)
  (0.0758156 -0.0951719 0)
  (0.0700898 -0.0949118 0)
  (0.0640499 -0.0947357 0)
  (0.0579144 -0.0946191 0)
  (0.0521464 -0.0945524 0)
  (0.0463513 -0.095224 0)
  (0.0392587 -0.103618 0)
  (0.0841697 -0.172946 0)
  (0.417251 0.217319 0)
  (0.331426 -0.0454985 0)
  (0.0120845 0.148948 0)
  (0.290059 0.139674 0)
  (0.286817 0.184918 0)
  (0.250813 0.22496 0)
  (0.244899 0.265189 0)
  (0.242633 0.300669 0)
  (0.2357 0.332067 0)
  (0.226053 0.356613 0)
  (0.217119 0.372364 0)
  (0.210255 0.379013 0)
  (0.205509 0.37794 0)
  (0.202321 0.369509 0)
  (0.200407 0.358258 0)
  (0.199202 0.346827 0)
  (0.198239 0.336882 0)
  (0.197118 0.328872 0)
  (0.195596 0.322651 0)
  (0.193557 0.317738 0)
  (0.191002 0.313939 0)
  (0.187873 0.310525 0)
  (0.184187 0.307184 0)
  (0.179979 0.304209 0)
  (0.175221 0.301697 0)
  (0.169898 0.299632 0)
  (0.164019 0.297959 0)
  (0.157596 0.296628 0)
  (0.150638 0.295606 0)
  (0.143136 0.294879 0)
  (0.135059 0.294445 0)
  (0.126334 0.294303 0)
  (0.116837 0.294457 0)
  (0.106371 0.294922 0)
  (0.0946572 0.29576 0)
  (0.0813411 0.297121 0)
  (0.0658053 0.29925 0)
  (0.0458507 0.303607 0)
  (0.0162444 0.327635 0)
  (0.0904844 0.479031 0)
)
;

boundaryField
{
  floor
  {
    type noSlip;
  }
  ceiling
  {
    type noSlip;
  }
  sWall
  {
    type noSlip;
  }
  nWall
  {
    type noSlip;
  }
  sideWalls
  {
    type empty;
  }
  glass1
  {
    type noSlip;
  }
  glass2
  {
    type noSlip;
  }
  sun
  {
    type noSlip;
  }
  heatsource1
  {
    type noSlip;
  }
  heatsource2
  {
    type noSlip;
  }
  Table_master
  {
    type noSlip;
  }
  Table_slave
  {
    type noSlip;
  }
  inlet
  {
    type fixedValue;
    value uniform (0.0707107 -0.0707107 0);
  }
  outlet
  {
    type zeroGradient;
  }
} 	// ************************************************************************* //

