/*--------------------------------*- C++ -*----------------------------------*\
  =========                 |
  \\      /  F ield         | OpenFOAM: The Open Source CFD Toolbox
   \\    /   O peration     | Website:  https://openfoam.org
    \\  /    A nd           | Version:  6
     \\/     M anipulation  |
\*---------------------------------------------------------------------------*/
FoamFile
{
    version     2.0;
    format      ascii;
    class       surfaceScalarField;
    location    "1500";
    object      phi;
}
// * * * * * * * * * * * * * * * * * * * * * * * * * * * * * * * * * * * * * //

dimensions      [1 0 -1 0 0 0 0];

internalField   nonuniform List<scalar> 
852
(
-0.00264422
0.00270148
-0.00327563
0.000631436
-0.0038727
0.000597107
-0.00441616
0.000543485
-0.00487024
0.000454113
-0.00521902
0.000348808
-0.0054474
0.000228405
-0.0055371
8.97337e-05
-0.0054664
-7.06685e-05
-0.00521103
-0.000255341
-0.00475641
-0.000454582
-0.00410111
-0.000655268
-0.00322591
-0.000875163
-0.00198827
-0.0012376
-0.00198701
0.000146662
-0.000144251
0.000387261
-0.000240569
0.000598259
-0.00021097
0.000773216
-0.000174929
0.000930195
-0.000156949
0.00104914
-0.00011891
0.00107625
-2.70804e-05
0.00104427
3.20189e-05
0.000994661
4.96561e-05
0.000941362
5.3345e-05
0.000887284
5.41283e-05
0.000833945
5.33913e-05
0.000781822
5.21777e-05
0.000727997
5.38804e-05
0.000660214
6.78374e-05
0.000561714
9.85515e-05
0.000455703
0.000106058
0.000439758
1.59855e-05
0.000443359
-0.00190481
0.00475887
-0.0026762
0.00140286
-0.00336312
0.00128406
-0.00392648
0.00110687
-0.00438833
0.000915992
-0.00474819
0.000708695
-0.00499523
0.000475465
-0.00511245
0.000206992
-0.00508168
-0.000101412
-0.00489115
-0.000445842
-0.00453983
-0.000805859
-0.00403772
-0.00115734
-0.00340341
-0.00150943
-0.00275956
-0.00188141
-0.0026711
-0.00207544
-0.00102439
-0.00164673
-0.00102441
0.00059812
-0.000737137
0.000661894
-0.00030433
0.000669449
-0.000218509
0.000754008
-0.000259472
0.000885084
-0.000288006
0.00101759
-0.000251397
0.00103733
-4.67952e-05
0.00103211
3.72708e-05
0.00102883
5.29664e-05
0.00102721
5.50012e-05
0.00102644
5.49387e-05
0.00102623
5.36496e-05
0.00102561
5.28432e-05
0.00102196
5.75749e-05
0.00099307
9.67768e-05
0.000869177
0.000222496
0.000654935
0.000320352
0.000407268
0.000263699
0.000858959
-0.00137828
0.00636781
-0.00214333
0.00216794
-0.00279046
0.00193121
-0.00329506
0.0016115
-0.00371606
0.00133702
-0.00405543
0.0010481
-0.00430002
0.000720083
-0.0044299
0.000336902
-0.00442393
-0.000107352
-0.00426891
-0.000600817
-0.00397352
-0.00110121
-0.00356783
-0.00156299
-0.00310847
-0.00196874
-0.00269822
-0.00229161
-0.00234306
-0.00243055
-0.00157396
-0.00241578
-0.00259834
-0.000175794
-0.000553712
6.08161e-06
-0.000486194
0.000237699
-0.000450116
0.00043239
-0.00045415
0.000614002
-0.000469604
0.000873431
-0.00051081
0.000826807
0.000864253
0.000917397
0.000972579
0.0010277
0.00108154
0.00113457
0.00119234
0.00128931
0.00107826
0.000433595
0.000789226
0.000609435
0.000396994
0.000655979
0.00126829
-0.00101298
0.00767591
-0.00171825
0.00287324
-0.0021861
0.00239908
-0.00256771
0.00199315
-0.00290556
0.0016749
-0.00319379
0.00133636
-0.00341564
0.000941963
-0.00354603
0.000467324
-0.00355366
-9.96825e-05
-0.0034206
-0.00073384
-0.0031717
-0.00135006
-0.00286031
-0.00187432
-0.00255483
-0.00227416
-0.00231802
-0.00252835
-0.00213525
-0.00261327
-0.00200536
-0.00254563
-0.00246999
-0.00213369
-0.00117179
-0.00129099
-0.000700595
-0.00102489
-0.000338059
-0.00084872
-4.21659e-05
-0.000745998
0.000175911
-0.000672215
0.000319469
-0.00061315
0.000338775
-0.000530103
0.000679119
-0.000340482
0.000959768
-0.000280785
0.00122093
-0.0002613
0.00146605
-0.000245249
0.00168289
-0.000216977
0.00184383
-0.000161068
0.00190369
-5.99977e-05
0.00181069
9.28778e-05
0.00150851
0.000302051
0.0013043
0.000637829
0.00093176
0.000982018
0.000338153
0.00124963
0.00162228
-0.000743621
0.00876838
-0.00137128
0.00350094
-0.00155052
0.00257834
-0.00176485
0.00220752
-0.00198584
0.00189592
-0.00218662
0.00153716
-0.00234848
0.00110386
-0.00244779
0.000566662
-0.00244091
-0.000106527
-0.00230519
-0.000869513
-0.00208903
-0.00156617
-0.00185558
-0.00210771
-0.00165754
-0.00247212
-0.00152243
-0.00266337
-0.00144463
-0.00269098
-0.00143536
-0.00255481
-0.00138436
-0.00218463
-0.000988732
-0.00168659
-0.000655856
-0.00135775
-0.000373232
-0.00113133
-0.000149065
-0.000970154
2.56937e-05
-0.000846962
0.000160497
-0.000747941
0.000285239
-0.00065483
0.000499851
-0.000555078
0.000720213
-0.00050113
0.000936234
-0.000477302
0.00114869
-0.000457683
0.00135099
-0.000419253
0.00152534
-0.000335403
0.00163983
-0.000174463
0.00165413
7.86087e-05
0.00156004
0.000396165
0.00142189
0.00077601
0.00122888
0.00117506
0.000863133
0.00161542
0.000623799
0.00186166
-0.000760624
0.00138425
-0.001261
0.000500208
-0.00121636
-0.000662464
0.00982496
-0.00117596
0.00401446
-0.000913486
0.00231591
-0.000881642
0.00217571
-0.00097459
0.0019889
-0.00106952
0.00163213
-0.00112876
0.00116313
-0.00114285
0.000580776
-0.00107128
-0.000178062
-0.00091681
-0.00102395
-0.000745917
-0.00173701
-0.000608971
-0.00224458
-0.000532777
-0.00254822
-0.000522948
-0.00267309
-0.000569399
-0.00264441
-0.000647489
-0.00247661
-0.000660145
-0.00217188
-0.000551154
-0.00179552
-0.000413842
-0.00149502
-0.000283582
-0.00126157
-0.000176005
-0.00107772
-8.62089e-05
-0.000936746
-2.37133e-06
-0.000831766
9.31806e-05
-0.000750367
0.000224537
-0.000686417
0.00037499
-0.000651564
0.000534934
-0.000637225
0.000703656
-0.000626383
0.000881298
-0.000596871
0.00106451
-0.000518589
0.001241
-0.000350927
0.00137171
-5.20719e-05
0.00142893
0.000338968
0.00146372
0.000741244
0.001529
0.00110981
0.00166375
0.00148071
0.00194135
0.0015841
0.00216085
0.00116479
0.00177181
0.000889284
0.000608815
-0.00085425
0.011113
-0.000882758
0.00404301
-3.49927e-05
0.00146817
0.000255026
0.00188572
0.00024562
0.00199834
0.000228691
0.00164909
0.000286344
0.00110551
0.000420293
0.000446856
0.000599452
-0.000357199
0.000752235
-0.0011767
0.000830136
-0.00181486
0.000821671
-0.00223604
0.000734138
-0.00246058
0.000583261
-0.00252209
0.000389839
-0.00245084
0.000184486
-0.00227111
1.90595e-05
-0.00200633
-7.39916e-05
-0.00170239
-0.000127871
-0.00144109
-0.00016094
-0.00122847
-0.00018524
-0.00105341
-0.000199549
-0.000922426
-0.000199734
-0.000831568
-0.000179579
-0.000770505
-0.000133615
-0.000732364
-6.81085e-05
-0.000717049
1.20502e-05
-0.000717361
0.0001066
-0.000720907
0.000220468
-0.000710713
0.000363878
-0.000661972
0.000549226
-0.000536246
0.000780616
-0.000283434
0.00100914
0.000110474
0.00122198
0.000528429
0.00149712
0.000834706
0.00189504
0.00108282
0.00242412
0.00105505
0.0028999
0.000689045
0.0028401
0.000949124
0.0035053
0.00214238
0.009454
0.0026392
0.00354622
0.00266301
0.0014444
0.00253757
0.0020112
0.00234235
0.00219359
0.00226241
0.00172906
0.00231661
0.00105132
0.00249235
0.000271135
0.00267338
-0.000538216
0.00270581
-0.00120909
0.00258485
-0.00169385
0.00234704
-0.00199815
0.00203321
-0.00214665
0.00167658
-0.00216532
0.0013039
-0.00207801
0.000940294
-0.00190734
0.000613323
-0.00167921
0.000343163
-0.00143211
0.000118518
-0.00121637
-6.57838e-05
-0.00104413
-0.000215753
-0.000903423
-0.00033384
-0.000804328
-0.000424873
-0.000740523
-0.000492452
-0.000702911
-0.000539756
-0.000685041
-0.000573523
-0.00068326
-0.000599343
-0.000691517
-0.000619011
-0.000701213
-0.000628684
-0.000701013
-0.000615512
-0.000675114
-0.000550382
-0.000601346
-0.000380045
-0.000453742
-6.84661e-05
-0.000201075
0.000295063
0.00016493
0.000658495
0.000471304
0.00106091
0.000680437
0.00143525
0.000680748
0.00163105
0.000493282
0.00100057
0.00157964
0.00474249
0.00997869
0.0135138
0.0115932
0.00336499
0.00965738
0.00394709
0.00818976
0.00366125
0.00721778
0.00270108
0.00658139
0.00168774
0.00607793
0.000774626
0.00554012
-3.68413e-07
0.00495068
-0.000619592
0.00433774
-0.00108082
0.00372281
-0.00138312
0.00311964
-0.00154335
0.00253792
-0.00158345
0.00198622
-0.00152615
0.00147444
-0.00139539
0.00101369
-0.00121831
0.000611345
-0.00102964
0.00026238
-0.00086733
-3.63614e-05
-0.000745351
-0.000282539
-0.000657234
-0.000483301
-0.000603558
-0.000654271
-0.000569541
-0.000806117
-0.000551051
-0.000946847
-0.000544292
-0.00108499
-0.000545094
-0.00122947
-0.000547016
-0.00138983
-0.000540824
-0.00157676
-0.000514056
-0.00180158
-0.000450264
-0.00207428
-0.000328617
-0.00239972
-0.000128278
-0.00276662
0.00016586
-0.00317178
0.000570115
-0.0037548
0.00105436
-0.00464425
0.00156991
-0.00595951
0.00199604
-0.00754617
0.00207997
-0.00708196
0.00111546
-0.0020769
0.00402046
0.00376435
0.00434743
0.0036202
0.00540462
0.00260413
0.0058263
0.00227948
0.0058598
0.00165431
0.00572773
0.00090678
0.00546578
0.000261664
0.00507439
-0.000228104
0.00456729
-0.000573624
0.00398712
-0.000802828
0.00337413
-0.000930219
0.00275827
-0.00096744
0.00216012
-0.000927827
0.00159737
-0.000832459
0.00108868
-0.00070947
0.000644833
-0.000585676
0.000258663
-0.000481089
-7.52205e-05
-0.000411435
-0.00035384
-0.000378607
-0.000594231
-0.000363161
-0.000814824
-0.00034894
-0.00102608
-0.000339782
-0.00123478
-0.000335576
-0.00144593
-0.000333926
-0.00166278
-0.000330145
-0.0018865
-0.000317078
-0.00211552
-0.000285012
-0.00234372
-0.000222039
-0.00255914
-0.000113169
-0.00275067
6.3277e-05
-0.00290798
0.000323198
-0.0030269
0.000689069
-0.00311199
0.00113947
-0.0031372
0.00159516
-0.00306871
0.00192757
-0.00271917
0.00173046
-0.00146369
-0.000139997
-0.00347226
-0.000268947
0.00405614
0.00161732
0.001734
0.00264221
0.00157932
0.00340559
0.00151618
0.00396569
0.0010943
0.0042516
0.000620963
0.00428753
0.000225841
0.0041128
-5.32707e-05
0.0037729
-0.000233609
0.00332177
-0.000351578
0.00280813
-0.000416439
0.00227349
-0.000432646
0.00174484
-0.000398999
0.00123814
-0.000325603
0.000788848
-0.000260047
0.000426163
-0.000222903
0.000134716
-0.000189596
-0.000112098
-0.000164604
-0.000340184
-0.000150519
-0.000563149
-0.000140194
-0.000781005
-0.000131079
-0.000998087
-0.000122691
-0.00121805
-0.000115597
-0.00144186
-0.000110105
-0.0016664
-0.000105586
-0.00188369
-9.9768e-05
-0.00208044
-8.82432e-05
-0.00223797
-6.44783e-05
-0.00233031
-2.08079e-05
-0.00233185
6.48438e-05
-0.00223086
0.000222234
-0.00199913
0.000457367
-0.00161422
0.000754586
-0.00105069
0.00103166
-0.000143475
0.00102038
0.00110448
0.000482528
0.00155569
-0.000591187
-0.001842
-0.00611285
-0.00799211
-0.00392017
-0.00218302
-0.000604743
0.000907299
0.00199578
0.00260991
0.00282814
0.00276657
0.00252404
0.00216294
0.00173641
0.00129322
0.000883406
0.000547016
0.000276531
4.35686e-05
-0.000155986
-0.000330726
-0.000491628
-0.000642431
-0.000784331
-0.000918053
-0.0010449
-0.00116646
-0.00128368
-0.00139521
-0.00149524
-0.00157141
-0.00160368
-0.00154992
-0.00133833
-0.000891149
-0.000146333
0.000875944
0.00188697
0.00235988
0.00175863
)
;

boundaryField
{
    floor
    {
        type            calculated;
        value           nonuniform List<scalar> 
29
(
0
0
0
0
0
0
0
0
0
0
0
0
0
0
0
0
0
0
0
0
-3.56543e-06
-8.29343e-06
-1.22937e-05
-1.57982e-05
-1.22413e-06
-2.35954e-06
-5.22027e-06
-7.62253e-06
-7.19129e-06
)
;
    }
    ceiling
    {
        type            calculated;
        value           nonuniform List<scalar> 
43
(
-1.67498e-05
-1.65019e-05
-1.57559e-05
-3.08774e-06
1.11302e-06
4.22938e-06
5.90032e-06
6.92631e-06
7.71271e-06
8.4044e-06
9.03924e-06
9.64804e-06
1.0222e-05
1.07042e-05
1.09812e-05
1.0913e-05
1.05161e-05
1.01e-05
9.97089e-06
1.0136e-05
1.03817e-05
1.061e-05
1.08241e-05
1.10379e-05
1.1256e-05
1.1469e-05
1.16529e-05
1.17749e-05
1.18023e-05
1.17112e-05
1.14868e-05
1.11118e-05
1.06626e-05
1.02112e-05
9.7963e-06
9.40964e-06
9.38112e-06
9.64156e-06
1.00872e-05
1.1383e-05
1.49338e-05
1.11797e-05
-2.2795e-05
)
;
    }
    sWall
    {
        type            calculated;
        value           uniform -0.000231255;
    }
    nWall
    {
        type            calculated;
        value           nonuniform List<scalar> 6(-4.48097e-05 -5.33375e-05 -5.63502e-05 -6.83128e-05 -7.4543e-05 -9.4733e-05);
    }
    sideWalls
    {
        type            empty;
        value           nonuniform 0();
    }
    glass1
    {
        type            calculated;
        value           nonuniform List<scalar> 9(-5.72279e-05 -0.000152534 -0.000230615 -0.000295072 -0.000348804 -0.000394069 -0.000433776 -0.000483311 -0.000539576);
    }
    glass2
    {
        type            calculated;
        value           nonuniform List<scalar> 2(-0.000236592 -0.000262545);
    }
    sun
    {
        type            calculated;
        value           uniform 0;
    }
    heatsource1
    {
        type            calculated;
        value           nonuniform List<scalar> 3(2.03773e-07 2.03754e-07 2.03764e-07);
    }
    heatsource2
    {
        type            calculated;
        value           nonuniform List<scalar> 4(5.07115e-08 5.09203e-08 0 0);
    }
    Table_master
    {
        type            calculated;
        value           nonuniform List<scalar> 9(-1.52889e-07 -1.52942e-07 -1.52942e-07 -1.52939e-07 -1.52936e-07 -1.52932e-07 -1.52928e-07 -1.52923e-07 -1.52904e-07);
    }
    Table_slave
    {
        type            calculated;
        value           nonuniform List<scalar> 9(1.52922e-07 1.5287e-07 1.52786e-07 1.52707e-07 1.52638e-07 1.52588e-07 1.52575e-07 1.52584e-07 1.52628e-07);
    }
    inlet
    {
        type            calculated;
        value           uniform -0.00441977;
    }
    outlet
    {
        type            calculated;
        value           nonuniform List<scalar> 2(0.0063609 0.00189581);
    }
}


// ************************************************************************* //
