/*--------------------------------*- C++ -*----------------------------------*\
  =========                 |
  \\      /  F ield         | OpenFOAM: The Open Source CFD Toolbox
   \\    /   O peration     | Website:  https://openfoam.org
    \\  /    A nd           | Version:  6
     \\/     M anipulation  |
\*---------------------------------------------------------------------------*/
FoamFile
{
    version     2.0;
    format      ascii;
    class       surfaceScalarField;
    location    "400";
    object      phi;
}
// * * * * * * * * * * * * * * * * * * * * * * * * * * * * * * * * * * * * * //

dimensions      [1 0 -1 0 0 0 0];

internalField   nonuniform List<scalar> 
852
(
-0.0021896
0.00223927
-0.00239302
0.000203499
-0.00259814
0.000205195
-0.00282981
0.000231749
-0.00304183
0.000212098
-0.00321303
0.000171268
-0.00332939
0.000116437
-0.00337769
4.83801e-05
-0.00334371
-3.39088e-05
-0.00321036
-0.000133274
-0.00296036
-0.000249917
-0.00257723
-0.000383061
-0.00202843
-0.00054872
-0.00121898
-0.00080937
-0.00121933
0.000187932
-0.000186874
0.000185419
2.6194e-06
0.000122731
6.27707e-05
0.000107739
1.50586e-05
0.000123256
-1.54544e-05
0.000158137
-3.48195e-05
0.000212951
-5.47521e-05
0.000269101
-5.60838e-05
0.000318188
-4.90182e-05
0.000360623
-4.23647e-05
0.000393426
-3.2731e-05
0.000404308
-1.08103e-05
0.000386404
1.79762e-05
0.000336269
5.02087e-05
0.000266844
6.94981e-05
0.000159987
0.00010693
2.16921e-05
0.000138372
-8.08674e-05
0.000102648
-7.97507e-05
-0.00157358
0.00394198
-0.00204853
0.00067853
-0.00236564
0.000522377
-0.00261915
0.000485337
-0.00283565
0.000428676
-0.00301089
0.000346586
-0.00313638
0.000241994
-0.00320189
0.000113967
-0.00319677
-3.89522e-05
-0.00311196
-0.00021801
-0.00293822
-0.000423581
-0.00266549
-0.000655718
-0.00228796
-0.000926172
-0.00184992
-0.00124733
-0.00151304
-0.00155614
6.35054e-05
-0.00157652
6.35327e-05
-0.000127067
-5.7949e-05
-0.000293722
0.00016936
-0.000345107
0.000114237
-0.00036844
3.8465e-05
-0.000362505
-2.13153e-05
-0.000351973
-4.52766e-05
-0.000304246
-0.000102403
-0.000285101
-7.51535e-05
-0.000285788
-4.82552e-05
-0.000302151
-2.59264e-05
-0.000332996
-1.81139e-06
-0.000368341
2.46069e-05
-0.000400289
4.99941e-05
-0.000426499
7.64852e-05
-0.000418395
6.14568e-05
-0.000266327
-4.5077e-05
-9.88727e-05
-2.90236e-05
-6.62895e-06
1.04748e-05
-8.59753e-05
-0.00115797
0.00529176
-0.00172982
0.00125045
-0.00206397
0.000856601
-0.00231005
0.000731491
-0.00251374
0.000632444
-0.00268008
0.000513004
-0.00280543
0.000367423
-0.00288263
0.000191239
-0.00290382
-1.76904e-05
-0.00286461
-0.000257145
-0.00276735
-0.000520764
-0.0026193
-0.000803698
-0.002439
-0.0011064
-0.00226916
-0.00141709
-0.00214886
-0.00167636
-0.00192461
-0.00180069
-0.001861
-0.000916483
0.000859318
-0.00103403
0.000286989
-0.0010417
0.000122002
-0.00101859
1.54353e-05
-0.000961998
-7.78301e-05
-0.000817531
-0.000189665
-0.000919702
-0.000994623
-0.00104265
-0.00106834
-0.00106993
-0.00104509
-0.000994872
-0.000918162
-0.000856483
-0.000474867
-0.000426621
-0.000193683
-0.000310138
2.36613e-05
-0.000206799
-6.38682e-05
-0.000863812
0.00639827
-0.00145241
0.00183913
-0.00172788
0.00113215
-0.00194437
0.000948052
-0.0021177
0.000805853
-0.00225507
0.000650452
-0.00235931
0.000471737
-0.00242753
0.000259524
-0.00245412
8.97641e-06
-0.00243905
-0.000272142
-0.00239746
-0.000562277
-0.00235407
-0.000847018
-0.00234254
-0.00111785
-0.00240306
-0.0013565
-0.00255664
-0.00152271
-0.00280178
-0.00155547
-0.0033986
-0.0012641
-0.00289012
-0.00050993
-0.00207471
4.39886e-05
-0.00189329
0.000105649
-0.00183508
6.38775e-05
-0.0018128
-6.76388e-06
-0.00180602
-8.45368e-05
-0.00186376
-0.000131842
-0.00176025
-0.000103585
-0.00166224
-9.80785e-05
-0.00155959
-0.000102722
-0.00145141
-0.00010826
-0.00133531
-0.000116173
-0.00120683
-0.000128555
-0.00105771
-0.000149192
-0.000869164
-0.000188621
-0.000592168
-0.000277071
-0.000563941
-0.000454775
-0.000349769
-0.000524236
-2.59095e-05
-0.000530587
-9.30365e-05
-0.000648786
0.00733263
-0.00122593
0.00241635
-0.00137332
0.00127961
-0.00152339
0.0010982
-0.00165356
0.000936097
-0.00174285
0.00073982
-0.00179852
0.000527476
-0.00182521
0.000286291
-0.00181921
3.05446e-06
-0.00178641
-0.000304877
-0.00175167
-0.000596938
-0.00174427
-0.000854353
-0.00179043
-0.00107162
-0.00190528
-0.00124157
-0.00208724
-0.00134068
-0.00232949
-0.00131315
-0.00253593
-0.00105759
-0.00242465
-0.000621129
-0.00212083
-0.000259762
-0.00190141
-0.000113688
-0.00175914
-7.83187e-05
-0.00167214
-9.36846e-05
-0.00162789
-0.000128712
-0.00160729
-0.000152362
-0.00155678
-0.000154015
-0.00149872
-0.00015606
-0.00143976
-0.000161608
-0.00137886
-0.00016908
-0.00131534
-0.000179617
-0.00124726
-0.00019656
-0.00116954
-0.000226835
-0.00107349
-0.000284601
-0.000960937
-0.000389547
-0.000879088
-0.00053655
-0.000721898
-0.000681353
-0.000433826
-0.000818586
0.000338909
-0.000865699
0.00114072
-0.000801941
0.00126907
-0.000128477
0.00128768
-0.000610389
0.00826577
-0.00112342
0.00292946
-0.000963968
0.00112024
-0.000946879
0.00108119
-0.00105112
0.00104042
-0.00110008
0.000788859
-0.00109149
0.000518962
-0.00105053
0.0002454
-0.000984932
-6.24692e-05
-0.000915444
-0.000374293
-0.00087082
-0.000641491
-0.00087617
-0.000848933
-0.00094781
-0.000999913
-0.00108836
-0.00110095
-0.00128599
-0.00114298
-0.00150744
-0.00109163
-0.00165765
-0.000907302
-0.00165072
-0.000627984
-0.00152973
-0.000380677
-0.00140625
-0.000237099
-0.00131336
-0.000171129
-0.00125406
-0.000152903
-0.00122388
-0.000158817
-0.0012082
-0.000167966
-0.00119031
-0.00017183
-0.00117075
-0.000175548
-0.00115242
-0.000179858
-0.00113718
-0.000184242
-0.00112744
-0.000189277
-0.00112599
-0.000197934
-0.00113504
-0.000217711
-0.00115659
-0.000262983
-0.00119469
-0.000351368
-0.00124175
-0.000489419
-0.00124949
-0.000673538
-0.00115395
-0.000914047
-0.000804335
-0.00121524
-0.000145118
-0.00146109
0.000394069
-0.00066759
0.00170413
-0.000780148
0.00940307
-0.000791676
0.00294107
-0.000104897
0.000433543
0.000120657
0.00085572
-3.08116e-05
0.00119197
-0.000101863
0.000859991
-5.92624e-05
0.000476441
3.29081e-05
0.000153308
0.000133164
-0.00016265
0.000204586
-0.000445641
0.000228793
-0.000665625
0.000193527
-0.000813595
9.25594e-05
-0.000898875
-7.23152e-05
-0.000936002
-0.000283725
-0.000931504
-0.000502113
-0.000873168
-0.000665358
-0.000743987
-0.000731554
-0.000561716
-0.000722932
-0.000389226
-0.000691114
-0.000268845
-0.000663252
-0.000198916
-0.000649414
-0.000166667
-0.000650594
-0.00015756
-0.000660517
-0.000157967
-0.000672118
-0.000160152
-0.000684564
-0.000163025
-0.00069933
-0.000165016
-0.000719228
-0.000164267
-0.000749239
-0.000159189
-0.000797517
-0.000149579
-0.000876133
-0.000139019
-0.00100097
-0.000138071
-0.00118709
-0.000165172
-0.00143311
-0.000243322
-0.00171111
-0.00039547
-0.00198241
-0.000642667
-0.00219969
-0.000997891
-0.00226228
-0.00139843
-0.00151035
-0.00141945
0.000219121
0.00168605
0.00811779
0.00234175
0.00228544
0.00264111
0.000134268
0.00227019
0.00122672
0.00192698
0.00153526
0.00177612
0.00101094
0.00170562
0.000547023
0.00167164
0.000187362
0.00164973
-0.000140658
0.00161039
-0.000406229
0.00152873
-0.000583885
0.00140341
-0.000688202
0.00123913
-0.000734526
0.00104031
-0.000737106
0.000815397
-0.000706526
0.00058713
-0.000644831
0.000393019
-0.000549807
0.000261906
-0.000430533
0.000187585
-0.000314834
0.000144482
-0.00022567
0.000113185
-0.000167547
8.28717e-05
-0.000136279
4.9077e-05
-0.000123692
1.25835e-05
-0.000121399
-2.40511e-05
-0.000123442
-6.04605e-05
-0.00012654
-9.74164e-05
-0.000127984
-0.000136505
-0.000125102
-0.000180668
-0.000114949
-0.000235629
-9.45402e-05
-0.000312407
-6.21643e-05
-0.000430939
-1.94619e-05
-0.000625645
2.9609e-05
-0.000939513
7.06214e-05
-0.00139902
6.41117e-05
-0.00201223
-2.93884e-05
-0.00281904
-0.000191001
-0.00379241
-0.000424983
-0.00388007
-0.00133173
-0.00357266
0.00854453
0.0108099
0.00960351
0.00134069
0.00686264
0.00396767
0.00570916
0.00268882
0.00497202
0.00174815
0.00440936
0.00110977
0.00398012
0.000616671
0.00360786
0.000231684
0.00325748
-5.57828e-05
0.00293182
-0.000258148
0.00263357
-0.000389882
0.00235746
-0.000458336
0.00209719
-0.000476765
0.00184846
-0.000457734
0.00161347
-0.000409764
0.00140477
-0.00034104
0.00123636
-0.000262051
0.00110908
-0.000187488
0.0010127
-0.000129215
0.000936088
-9.08688e-05
0.000870981
-7.11009e-05
0.000811611
-6.425e-05
0.000755581
-6.52951e-05
0.000702383
-7.01707e-05
0.000651415
-7.5498e-05
0.000602201
-7.86946e-05
0.000554684
-7.751e-05
0.000509535
-6.97233e-05
0.000468311
-5.32403e-05
0.000433334
-2.71099e-05
0.000407602
6.34676e-06
0.000393624
4.36639e-05
0.000392831
7.14907e-05
0.000405155
5.18625e-05
0.000412419
-3.6577e-05
0.00040156
-0.000180067
0.000373523
-0.000396871
0.000188453
-0.00114658
-0.00328578
-0.000501386
0.00256446
0.00232763
0.00113872
0.00365163
0.00136488
0.0039906
0.00140924
0.00403872
0.00106172
0.00399766
0.000657803
0.00389266
0.000336759
0.00372759
0.000109356
0.00352184
-5.2329e-05
0.00329311
-0.000161082
0.00305343
-0.000218584
0.00281333
-0.000236597
0.00258156
-0.000225898
0.00236436
-0.000192487
0.00216949
-0.000146104
0.00200384
-9.63293e-05
0.0018688
-5.23873e-05
0.00176025
-2.05893e-05
0.00167187
-2.42048e-06
0.00159715
3.69231e-06
0.00153087
2.09292e-06
0.00146991
-4.26442e-06
0.00141238
-1.25675e-05
0.00135723
-2.0274e-05
0.00130437
-2.57559e-05
0.00125472
-2.77859e-05
0.00121049
-2.54282e-05
0.00117549
-1.81649e-05
0.00115495
-6.48878e-06
0.00115571
5.66029e-06
0.00118851
1.0945e-05
0.00125928
7.93153e-07
0.00136202
-5.08023e-05
0.00148101
-0.000155494
0.00160698
-0.000305955
0.00167232
-0.000462137
0.00131343
-0.000787617
-0.00195141
-0.000107357
0.00266002
0.00158366
-0.000552244
0.00247701
0.000471602
0.0029876
0.000898712
0.00336884
0.000680547
0.00361302
0.000413692
0.00372481
0.000225036
0.00373086
0.000103373
0.00364587
3.27255e-05
0.00348184
3.01905e-06
0.00327035
-7.0195e-06
0.00304047
-6.65231e-06
0.00281499
-3.44877e-07
0.00261334
9.22679e-06
0.00244742
1.98855e-05
0.00232074
3.04182e-05
0.00222926
3.91614e-05
0.00216406
4.46797e-05
0.0021152
4.65114e-05
0.00207348
4.54755e-05
0.00203414
4.15032e-05
0.00199378
3.61648e-05
0.00195074
3.05436e-05
0.00190543
2.5111e-05
0.00185932
2.04247e-05
0.00181482
1.67873e-05
0.00177522
1.42376e-05
0.00174472
1.2411e-05
0.00172812
1.01888e-05
0.00172799
5.86199e-06
0.0017443
-5.2919e-06
0.00177761
-3.24379e-05
0.0018117
-8.4826e-05
0.00183154
-0.00017525
0.00184258
-0.000316921
0.00191426
-0.000533744
0.00198692
-0.000860207
5.73583e-05
0.00442357
-0.00192131
0.000720642
0.000146085
0.000590677
0.00145982
0.00210779
0.00248591
0.00267254
0.002735
0.00272472
0.00268326
0.00263095
0.00257878
0.00253307
0.0024973
0.00247263
0.00245887
0.00245415
0.00245516
0.00245816
0.00246027
0.00245856
0.00245168
0.00243937
0.00242187
0.00239992
0.00237461
0.00234701
0.00231786
0.00228674
0.00225151
0.00220529
0.00213206
0.00200647
0.00179034
0.00143215
0.000856272
-4.659e-05
)
;

boundaryField
{
    floor
    {
        type            calculated;
        value           nonuniform List<scalar> 
29
(
0
0
0
0
0
0
0
0
0
0
0
0
0
0
0
0
0
0
0
0
-9.59804e-07
-3.31301e-07
1.61595e-06
3.32756e-06
4.26824e-07
-9.45258e-07
-1.78783e-06
-6.96945e-07
1.53106e-06
)
;
    }
    ceiling
    {
        type            calculated;
        value           nonuniform List<scalar> 
43
(
5.6522e-05
3.78726e-05
1.81414e-05
2.23766e-05
2.70658e-05
2.96273e-05
3.26401e-05
3.56462e-05
3.84665e-05
4.09845e-05
4.30647e-05
4.45512e-05
4.53541e-05
4.55875e-05
4.54384e-05
4.50601e-05
4.46281e-05
4.42466e-05
4.39523e-05
4.37383e-05
4.35761e-05
4.34326e-05
4.32848e-05
4.31154e-05
4.29166e-05
4.26895e-05
4.24391e-05
4.2173e-05
4.19004e-05
4.16319e-05
4.13809e-05
4.11644e-05
4.09968e-05
4.0871e-05
4.08352e-05
4.09508e-05
4.13364e-05
4.221e-05
4.27289e-05
4.23052e-05
2.41651e-05
2.01705e-05
1.18623e-05
)
;
    }
    sWall
    {
        type            calculated;
        value           uniform -0.000137789;
    }
    nWall
    {
        type            calculated;
        value           nonuniform List<scalar> 6(-1.87377e-05 -2.23015e-05 -2.52685e-05 -2.08729e-05 -2.17741e-05 -3.14654e-05);
    }
    sideWalls
    {
        type            empty;
        value           nonuniform 0();
    }
    glass1
    {
        type            calculated;
        value           nonuniform List<scalar> 9(-4.95945e-05 -0.000129068 -0.000191734 -0.000242626 -0.000285506 -0.000322691 -0.000357081 -0.00040071 -0.000450841);
    }
    glass2
    {
        type            calculated;
        value           nonuniform List<scalar> 2(-8.82107e-05 -9.83567e-05);
    }
    sun
    {
        type            calculated;
        value           uniform 0;
    }
    heatsource1
    {
        type            calculated;
        value           nonuniform List<scalar> 3(2.00809e-07 2.00839e-07 2.00902e-07);
    }
    heatsource2
    {
        type            calculated;
        value           nonuniform List<scalar> 4(5.0225e-08 5.04551e-08 0 0);
    }
    Table_master
    {
        type            calculated;
        value           nonuniform List<scalar> 9(-1.51599e-07 -1.51544e-07 -1.51487e-07 -1.51435e-07 -1.51389e-07 -1.51342e-07 -1.51292e-07 -1.51234e-07 -1.51136e-07);
    }
    Table_slave
    {
        type            calculated;
        value           nonuniform List<scalar> 9(1.50557e-07 1.50596e-07 1.50627e-07 1.50658e-07 1.50689e-07 1.50721e-07 1.50755e-07 1.50795e-07 1.50817e-07);
    }
    inlet
    {
        type            calculated;
        value           uniform -0.00072231;
    }
    outlet
    {
        type            calculated;
        value           nonuniform List<scalar> 2(-0.00434222 0.00630711);
    }
}


// ************************************************************************* //
