/*--------------------------------*- C++ -*----------------------------------*\
  =========                 |
  \\      /  F ield         | OpenFOAM: The Open Source CFD Toolbox
   \\    /   O peration     | Website:  https://openfoam.org
    \\  /    A nd           | Version:  6
     \\/     M anipulation  |
\*---------------------------------------------------------------------------*/
FoamFile
{
    version     2.0;
    format      ascii;
    class       volScalarField;
    location    "1000";
    object      alphat;
}
// * * * * * * * * * * * * * * * * * * * * * * * * * * * * * * * * * * * * * //

dimensions      [1 -1 -1 0 0 0 0];

internalField   nonuniform List<scalar> 
459
(
0.00125268
0.00137004
0.00139589
0.00146309
0.00152528
0.00158348
0.00164051
0.00169641
0.00173603
0.00175305
0.00174156
0.00169793
0.00162194
0.00152005
0.00140812
0.000552075
0.000676393
0.000760672
0.000755079
0.000728535
0.000693964
0.00065105
0.000608679
0.000570246
0.000536117
0.000505886
0.000479014
0.000455098
0.000433618
0.000413803
0.000394656
0.000374693
0.000359911
0.000327278
0.00170519
0.00417814
0.00400489
0.00466356
0.00531063
0.00595748
0.00652846
0.00695652
0.0073431
0.00765715
0.00785472
0.00788566
0.00767301
0.00702408
0.00524571
0.00143632
0.000848108
0.000597701
0.00125682
0.00173288
0.0020708
0.00224753
0.00223725
0.00180175
0.00155558
0.0013792
0.00124362
0.00113564
0.00104766
0.000971837
0.000900925
0.000831894
0.000770414
0.000716969
0.00083392
0.000425618
0.00208103
0.00570577
0.00497548
0.00624766
0.00688457
0.00735583
0.00771978
0.00800672
0.00831711
0.00864135
0.00894124
0.00916193
0.00924193
0.00909133
0.00847152
0.0065381
0.00142637
0.00119539
0.00171555
0.00219502
0.00261757
0.00289956
0.00281472
0.00093222
0.00082313
0.00073552
0.000664835
0.000607249
0.000559831
0.000520478
0.000487852
0.000461393
0.000497306
0.000575368
0.000934842
0.000490907
0.00244123
0.00728714
0.00499053
0.00662049
0.00718734
0.00737932
0.00749851
0.00763968
0.00788284
0.00821309
0.00859013
0.00894576
0.00921593
0.00932964
0.00920181
0.00854102
0.00627063
0.00170963
0.00212086
0.00273684
0.00332561
0.00378476
0.00405843
0.00379346
0.00105139
0.000956661
0.000888496
0.000836337
0.00079204
0.000751793
0.000713217
0.000672898
0.000626347
0.000587863
0.000601236
0.00106131
0.00054161
0.0028083
0.00931666
0.00548329
0.00637273
0.00712728
0.00718266
0.00711416
0.00718112
0.00739413
0.00772971
0.00815296
0.00857042
0.00889371
0.00905095
0.00901543
0.00873752
0.00802246
0.00663627
0.00616295
0.0060054
0.00594828
0.00590886
0.00583846
0.00560665
0.00472687
0.0043023
0.00405391
0.00386211
0.00366155
0.00337377
0.00298991
0.00252544
0.00200904
0.00148666
0.0010952
0.00109493
0.000724901
0.000667058
0.000808842
0.000907656
0.00319732
0.0115259
0.00753952
0.00633733
0.00690429
0.00716021
0.00699536
0.00705297
0.00721409
0.00751489
0.00794235
0.0084
0.00875639
0.00890867
0.00883124
0.00857707
0.00823566
0.00788025
0.00768158
0.00753463
0.00736713
0.00717458
0.00695738
0.00668524
0.00628508
0.00592627
0.0056079
0.0053036
0.00499497
0.00465894
0.00423959
0.00372077
0.00310153
0.00241606
0.00180966
0.00135397
0.0010141
0.000858753
0.00122332
0.000946408
0.00355071
0.013067
0.0105483
0.00815857
0.00772356
0.00762837
0.00736943
0.00720429
0.00725419
0.00754882
0.00802401
0.0085356
0.00891229
0.00903303
0.00888346
0.00857469
0.00830574
0.00821326
0.00822662
0.0081558
0.00794464
0.00763159
0.00725389
0.00683332
0.00639096
0.00598049
0.00560455
0.00525468
0.0049312
0.00464158
0.00438572
0.00403464
0.00354752
0.00295672
0.00238946
0.00188188
0.00150578
0.00138491
0.00140711
0.00107468
0.00361677
0.0116077
0.010324
0.00954422
0.00884502
0.00803725
0.00740698
0.00715796
0.00731555
0.00779418
0.00843097
0.00901699
0.00935606
0.00935326
0.00905293
0.00864793
0.00840174
0.00840095
0.00841484
0.00816672
0.00772109
0.00716724
0.00657976
0.00602127
0.00553213
0.00512045
0.00477062
0.00447422
0.00423504
0.00406256
0.00396586
0.00391488
0.00365988
0.00327788
0.00294117
0.00276327
0.00285396
0.00327335
0.00402624
0.00168128
0.00351705
0.00417368
0.0046359
0.00475172
0.00485267
0.00512708
0.00567672
0.00651224
0.00753746
0.00857534
0.00943477
0.00993622
0.00996154
0.00956678
0.00896669
0.00854676
0.0083186
0.00812005
0.00777755
0.00722609
0.00654641
0.00584607
0.00521273
0.00468865
0.00427208
0.003938
0.00366169
0.00342861
0.00322968
0.00305556
0.00289606
0.00275072
0.00263554
0.00255023
0.00251669
0.00252705
0.00251481
0.00241804
0.00226276
0.001584
0.00175193
0.00359402
0.0058391
0.00770687
0.00916339
0.010275
0.010977
0.0112554
0.0111514
0.010657
0.00987953
0.00892248
0.00810749
0.00759623
0.00717737
0.00666202
0.00603442
0.00536606
0.00473345
0.00418942
0.0037576
0.00342089
0.00315387
0.00293776
0.00276274
0.00262453
0.00252147
0.00245288
0.002421
0.00242171
0.00243928
0.00246916
0.00250254
0.00251194
0.00245265
0.00230901
0.00209279
0.00132076
0.00234382
0.00602933
0.00896454
0.0101032
0.0106738
0.0108554
0.0106204
0.0100397
0.00923334
0.00831933
0.00745322
0.00668599
0.00606248
0.00552432
0.0049833
0.00445747
0.00399673
0.00362382
0.00333392
0.00310736
0.00291874
0.00275488
0.0026108
0.00248994
0.00239719
0.00233276
0.00229565
0.00228552
0.00230666
0.002356
0.00242952
0.00251877
0.00260508
0.00266459
0.002645
0.00267622
0.00273226
0.0013476
0.0020809
0.00220587
0.00229382
0.00245742
0.00237369
0.00227802
0.002216
0.0021276
0.00200034
0.00184191
0.0016635
0.00147807
0.00129825
0.00114402
0.00102753
0.00094479
0.000886128
0.000843679
0.00081255
0.000789915
0.000774042
0.000763889
0.000758903
0.000759408
0.000766011
0.000778677
0.000797151
0.000821864
0.000853485
0.000892633
0.000938395
0.000990862
0.00105061
0.00111816
0.00119299
0.00128121
0.00131161
0.00127871
0.00120175
0.00112093
)
;

boundaryField
{
    floor
    {
        type            compressible::alphatWallFunction;
        Prt             0.85;
        value           nonuniform List<scalar> 
29
(
0.000198603
7.71771e-05
9.57391e-05
0.000108083
0.000107269
0.000103396
9.8327e-05
9.19913e-05
8.56858e-05
7.99195e-05
7.47586e-05
7.01529e-05
6.603e-05
6.2336e-05
5.89972e-05
5.58986e-05
5.28862e-05
4.97253e-05
4.73709e-05
4.21277e-05
4.21271e-05
5.77487e-05
6.78586e-05
7.55928e-05
0.000198601
7.71762e-05
8.40435e-05
0.000169534
0.000238982
)
;
    }
    ceiling
    {
        type            compressible::alphatWallFunction;
        Prt             0.85;
        value           nonuniform List<scalar> 
43
(
0.000287542
0.000303696
0.000315009
0.000336053
0.000325415
0.000313177
0.000305212
0.000293807
0.000277292
0.000256565
0.000232987
0.00020818
0.000183787
0.000162559
0.000146307
0.000134634
0.000126286
0.000120205
0.000115722
0.000112449
0.000110148
0.000108673
0.000107948
0.000108022
0.000108982
0.000110822
0.000113498
0.000117067
0.000121615
0.000127218
0.00013373
0.000141152
0.000149547
0.000158973
0.000169338
0.000181464
0.00018562
0.000181122
0.000170548
0.000159362
0.000468674
0.000548548
0.00032125
)
;
    }
    sWall
    {
        type            compressible::alphatWallFunction;
        Prt             0.85;
        value           uniform 0.000286333;
    }
    nWall
    {
        type            compressible::alphatWallFunction;
        Prt             0.85;
        value           nonuniform List<scalar> 6(0.000129041 0.000134542 0.000152579 0.000186544 0.000190199 0.000159041);
    }
    sideWalls
    {
        type            empty;
    }
    glass1
    {
        type            compressible::alphatWallFunction;
        Prt             0.85;
        value           nonuniform List<scalar> 9(0.000173145 0.000233318 0.000282078 0.000328005 0.000374134 0.000422384 0.000465732 0.000473917 0.00046198);
    }
    glass2
    {
        type            compressible::alphatWallFunction;
        Prt             0.85;
        value           nonuniform List<scalar> 2(0.000233688 0.000220844);
    }
    sun
    {
        type            compressible::alphatWallFunction;
        Prt             0.85;
        value           nonuniform List<scalar> 
14
(
0.000177436
0.000193444
0.00019695
0.000206035
0.000214401
0.000222196
0.000229804
0.000237232
0.000242481
0.00024473
0.000243211
0.000237432
0.000227327
0.000213696
)
;
    }
    heatsource1
    {
        type            compressible::alphatWallFunction;
        Prt             0.85;
        value           nonuniform List<scalar> 3(9.44622e-05 0.000115169 0.000129341);
    }
    heatsource2
    {
        type            compressible::alphatWallFunction;
        Prt             0.85;
        value           nonuniform List<scalar> 4(0.000202536 0.000120825 0.000120824 0.000201189);
    }
    Table_master
    {
        type            compressible::alphatWallFunction;
        Prt             0.85;
        value           nonuniform List<scalar> 9(0.000132831 0.000117228 0.000104518 9.41312e-05 8.55694e-05 7.84443e-05 7.2474e-05 6.74814e-05 6.34014e-05);
    }
    Table_slave
    {
        type            compressible::alphatWallFunction;
        Prt             0.85;
        value           nonuniform List<scalar> 9(0.000149636 0.000136299 0.000126607 0.000119132 0.000112739 0.000106895 0.000101257 9.53247e-05 8.84215e-05);
    }
    inlet
    {
        type            fixedValue;
        value           uniform 1.94e-05;
    }
    outlet
    {
        type            zeroGradient;
    }
}


// ************************************************************************* //
