/*--------------------------------*- C++ -*----------------------------------*\
  =========                 |
  \\      /  F ield         | OpenFOAM: The Open Source CFD Toolbox
   \\    /   O peration     | Website:  https://openfoam.org
    \\  /    A nd           | Version:  6
     \\/     M anipulation  |
\*---------------------------------------------------------------------------*/
FoamFile
{
    version     2.0;
    format      ascii;
    class       volScalarField;
    location    "1000";
    object      nut;
}
// * * * * * * * * * * * * * * * * * * * * * * * * * * * * * * * * * * * * * //

dimensions      [0 2 -1 0 0 0 0];

internalField   nonuniform List<scalar> 
459
(
0.000969985
0.00104795
0.00105884
0.00110513
0.00114699
0.00118503
0.00122086
0.00125642
0.00128798
0.00130771
0.00131074
0.00129295
0.00125352
0.00119844
0.00113888
0.00042111
0.000514687
0.000549197
0.00052889
0.000502863
0.000475488
0.000447351
0.000421041
0.000397231
0.000375841
0.000356776
0.000339742
0.000324375
0.000310339
0.000297239
0.00028446
0.000271016
0.000265487
0.000246886
0.0013536
0.00299678
0.00277466
0.00321369
0.00361203
0.00402134
0.00441049
0.00472923
0.00498284
0.00520157
0.00534675
0.00536391
0.00517097
0.00460098
0.00324567
0.00114272
0.000798309
0.000550193
0.000881896
0.00109922
0.00123759
0.00129063
0.00127066
0.00110199
0.000986434
0.000897522
0.000826004
0.000764978
0.000710671
0.000661718
0.00061657
0.00057525
0.000541753
0.000507623
0.000619352
0.000346538
0.00168017
0.00410761
0.00332397
0.00431592
0.00473642
0.00503834
0.00526597
0.00544549
0.00561652
0.0058078
0.0059941
0.00613666
0.0061862
0.00607471
0.00568948
0.00461381
0.0011274
0.000936381
0.00122667
0.00143242
0.0015842
0.00166894
0.0016087
0.000620278
0.000558016
0.000507349
0.000465919
0.000431753
0.000403328
0.000379516
0.000359539
0.000342928
0.000366545
0.000413207
0.000693176
0.000410171
0.00200092
0.00543089
0.00325287
0.00457723
0.00500541
0.00512563
0.00515704
0.00519929
0.0053003
0.00547268
0.00568761
0.00591177
0.00610281
0.00619649
0.00615742
0.0058036
0.00455562
0.00123085
0.00153109
0.00186082
0.0020935
0.00223784
0.00231854
0.0021942
0.000691326
0.00064597
0.000616112
0.00059469
0.000575846
0.000555475
0.000535301
0.000512961
0.000485275
0.000454392
0.000449034
0.000808317
0.000458773
0.00233041
0.00718054
0.0036051
0.00430614
0.00496893
0.0050224
0.00491817
0.00486114
0.00494058
0.00512011
0.00535474
0.00561978
0.00586738
0.00600002
0.00597999
0.00575776
0.00523616
0.00425142
0.0037783
0.00350164
0.00332063
0.00321894
0.00318047
0.00313898
0.00283539
0.0027241
0.00267594
0.00263271
0.00256306
0.00243731
0.00220656
0.00189894
0.00154003
0.00116023
0.000848801
0.000818303
0.000603796
0.000587011
0.000707616
0.000790273
0.00267903
0.00909273
0.00524054
0.00404612
0.00458497
0.00485237
0.004885
0.00469292
0.00479879
0.00497597
0.00520938
0.00548344
0.00573504
0.00587582
0.00583032
0.00557204
0.00513835
0.00463102
0.0042485
0.00397741
0.00378661
0.00367353
0.00361498
0.00357911
0.00352552
0.00348844
0.00344901
0.00339157
0.00330773
0.00319157
0.00299795
0.0027044
0.00231008
0.00183617
0.00138458
0.00099105
0.000791948
0.000701162
0.00102443
0.000821269
0.0030114
0.0105271
0.00792643
0.00538255
0.00470761
0.00470269
0.00487227
0.00487218
0.00490806
0.00501861
0.00522781
0.00550491
0.0057643
0.00589543
0.00580718
0.00548024
0.00498969
0.00450996
0.00419402
0.00400588
0.00385089
0.00369904
0.0035723
0.00349963
0.00346987
0.00345618
0.00343302
0.00339128
0.00333114
0.00325831
0.0031743
0.00298166
0.00265274
0.00222752
0.00180548
0.00139905
0.00113573
0.00106337
0.00110909
0.000910659
0.0030855
0.00975736
0.0084278
0.00741588
0.00653587
0.00598154
0.00561739
0.0052691
0.00510295
0.00515387
0.00537674
0.00567985
0.00593749
0.00601932
0.00583145
0.00538167
0.00478157
0.00428042
0.00403036
0.00379441
0.00352284
0.00330349
0.00317737
0.00312658
0.00311413
0.00310969
0.00309816
0.00307875
0.00305889
0.00305086
0.0030685
0.00309035
0.00287375
0.00256601
0.00228894
0.00214716
0.00224953
0.00266058
0.00338626
0.00145787
0.00301346
0.00360659
0.00406171
0.00426779
0.004372
0.00437626
0.00439676
0.00454257
0.00483592
0.00523548
0.00566867
0.00604305
0.00624011
0.00615391
0.00572113
0.00504197
0.00433988
0.00387806
0.00352488
0.00316544
0.00288606
0.00272738
0.00265395
0.00262328
0.00260705
0.00258917
0.00256212
0.00252335
0.00247177
0.00240602
0.00232471
0.00222933
0.00214567
0.00208553
0.0020736
0.0021038
0.00211585
0.0020501
0.00192542
0.00137164
0.0017872
0.00337737
0.00424705
0.00479732
0.00530248
0.00575688
0.00614121
0.00643624
0.00663454
0.00668511
0.00645876
0.00590664
0.00501373
0.00408674
0.00344765
0.00300613
0.00261096
0.00233339
0.0021822
0.00210961
0.00207549
0.00205761
0.00204484
0.00203202
0.00201754
0.00200196
0.00198742
0.00197744
0.00197693
0.00199521
0.00201977
0.00205216
0.00208854
0.00210591
0.00206393
0.00194531
0.00176331
0.00113496
0.00208991
0.00435823
0.00551626
0.00593834
0.00632865
0.00667688
0.00668924
0.00656963
0.00642824
0.00613087
0.00532866
0.00432716
0.00342465
0.00276935
0.00229957
0.00196797
0.00178021
0.00167676
0.00162161
0.00159561
0.00158686
0.00159015
0.00160341
0.00162599
0.00165782
0.00169882
0.00174812
0.00180324
0.00186508
0.00193931
0.00202445
0.0021162
0.00220201
0.00226432
0.00226154
0.00230192
0.00229775
0.00115358
0.00181285
0.00191839
0.00199633
0.00210799
0.00198604
0.0018403
0.00168447
0.00153122
0.00142568
0.00132501
0.00120712
0.00106841
0.00092505
0.000770066
0.000640046
0.00055789
0.000518264
0.000504811
0.000505869
0.000515107
0.000528643
0.000544838
0.000563385
0.000584195
0.000607285
0.000632759
0.000660816
0.000691806
0.000726328
0.000765442
0.000809941
0.000858848
0.000912896
0.000972901
0.00103916
0.00111876
0.00114795
0.0011221
0.00105245
0.000979197
)
;

boundaryField
{
    floor
    {
        type            nutkWallFunction;
        Cmu             0.09;
        kappa           0.41;
        E               9.8;
        value           nonuniform List<scalar> 
29
(
0.000136942
4.95178e-05
6.15814e-05
6.59583e-05
6.33863e-05
6.00722e-05
5.65634e-05
5.29305e-05
4.95077e-05
4.63866e-05
4.35624e-05
4.10278e-05
3.87484e-05
3.66796e-05
3.47787e-05
3.29945e-05
3.1244e-05
2.9391e-05
2.86258e-05
2.6034e-05
2.60339e-05
3.96619e-05
4.80884e-05
5.44114e-05
0.000136942
4.95178e-05
6.60867e-05
0.000113208
0.000147556
)
;
    }
    ceiling
    {
        type            nutkWallFunction;
        Cmu             0.09;
        kappa           0.41;
        E               9.8;
        value           nonuniform List<scalar> 
43
(
0.000212798
0.000224369
0.000232872
0.000245076
0.000231859
0.000215923
0.000198722
0.000181631
0.00016975
0.000158325
0.00014482
0.000128736
0.00011186
9.3266e-05
7.73248e-05
6.70541e-05
6.20359e-05
6.03224e-05
6.04581e-05
6.16363e-05
6.33576e-05
6.54097e-05
6.77506e-05
7.03658e-05
7.32545e-05
7.64259e-05
7.99011e-05
8.37189e-05
8.79481e-05
9.27109e-05
9.80948e-05
0.000103972
0.000110422
0.000117531
0.000125323
0.000134609
0.000137997
0.000134999
0.000126879
0.000118275
0.000341538
0.000402893
0.000242934
)
;
    }
    sWall
    {
        type            nutkWallFunction;
        Cmu             0.09;
        kappa           0.41;
        E               9.8;
        value           uniform 0.000212857;
    }
    nWall
    {
        type            nutkWallFunction;
        Cmu             0.09;
        kappa           0.41;
        E               9.8;
        value           nonuniform List<scalar> 6(9.57203e-05 9.94612e-05 0.000110159 0.0001365 0.000138657 0.000118281);
    }
    sideWalls
    {
        type            empty;
    }
    glass1
    {
        type            nutkWallFunction;
        Cmu             0.09;
        kappa           0.41;
        E               9.8;
        value           nonuniform List<scalar> 9(0.000117253 0.000161778 0.000198546 0.000233896 0.000269575 0.000306746 0.000341716 0.000349466 0.000341956);
    }
    glass2
    {
        type            nutkWallFunction;
        Cmu             0.09;
        kappa           0.41;
        E               9.8;
        value           nonuniform List<scalar> 2(0.00017347 0.000163706);
    }
    sun
    {
        type            nutkWallFunction;
        Cmu             0.09;
        kappa           0.41;
        E               9.8;
        value           nonuniform List<scalar> 
14
(
0.000117188
0.000126351
0.000127625
0.000133023
0.000137883
0.000142281
0.00014641
0.000150494
0.000154107
0.00015636
0.000156707
0.000154674
0.00015016
0.000143826
)
;
    }
    heatsource1
    {
        type            nutkWallFunction;
        Cmu             0.09;
        kappa           0.41;
        E               9.8;
        value           nonuniform List<scalar> 3(7.07217e-05 8.56598e-05 9.572e-05);
    }
    heatsource2
    {
        type            nutkWallFunction;
        Cmu             0.09;
        kappa           0.41;
        E               9.8;
        value           nonuniform List<scalar> 4(0.000137383 9.66902e-05 9.66902e-05 0.000135607);
    }
    Table_master
    {
        type            nutkWallFunction;
        Cmu             0.09;
        kappa           0.41;
        E               9.8;
        value           nonuniform List<scalar> 9(7.48725e-05 6.7074e-05 6.06494e-05 5.53372e-05 5.0912e-05 4.71968e-05 4.4059e-05 4.14072e-05 3.91877e-05);
    }
    Table_slave
    {
        type            nutkWallFunction;
        Cmu             0.09;
        kappa           0.41;
        E               9.8;
        value           nonuniform List<scalar> 9(8.36572e-05 7.80628e-05 7.43545e-05 7.16805e-05 6.93187e-05 6.67547e-05 6.42042e-05 6.1366e-05 5.78271e-05);
    }
    inlet
    {
        type            calculated;
        value           uniform 0.000100623;
    }
    outlet
    {
        type            calculated;
        value           nonuniform List<scalar> 2(0.00181285 0.00191839);
    }
}


// ************************************************************************* //
