/*--------------------------------*- C++ -*----------------------------------*\
  =========                 |
  \\      /  F ield         | OpenFOAM: The Open Source CFD Toolbox
   \\    /   O peration     | Website:  https://openfoam.org
    \\  /    A nd           | Version:  6
     \\/     M anipulation  |
\*---------------------------------------------------------------------------*/
FoamFile
{
    version     2.0;
    format      ascii;
    class       volScalarField;
    location    "200";
    object      alphat;
}
// * * * * * * * * * * * * * * * * * * * * * * * * * * * * * * * * * * * * * //

dimensions      [1 -1 -1 0 0 0 0];

internalField   nonuniform List<scalar> 
459
(
0.00153384
0.00174536
0.00182832
0.00148621
0.0012967
0.00115174
0.000997264
0.000884127
0.000787624
0.000727245
0.000692462
0.000672222
0.000660655
0.000654971
0.000649303
0.000363234
0.000406194
0.00042247
0.000351149
0.000258338
0.000219733
0.00020488
0.000204507
0.000205943
0.000191672
0.000187459
0.000222957
0.000239538
0.000265234
0.000310155
0.000370812
0.000415101
0.000424071
0.000390694
0.0016166
0.00277952
0.00358905
0.00445594
0.00458366
0.00448229
0.00402668
0.00299448
0.00267997
0.00296055
0.00298348
0.00276231
0.00246909
0.00206666
0.00147222
0.00071999
0.00051715
0.000510811
0.00111958
0.00132583
0.0014166
0.00132714
0.00101202
0.000730921
0.000572118
0.000430322
0.000286991
0.000232182
0.000287568
0.00036308
0.000567424
0.000946563
0.00145667
0.00155111
0.00148107
0.000517778
0.00308233
0.00361305
0.0037496
0.00391115
0.00421303
0.0045172
0.0046958
0.00445224
0.0035567
0.00358669
0.00393526
0.00369529
0.00325718
0.00271752
0.00206574
0.00140274
0.000823455
0.000880165
0.00269465
0.00269405
0.00251686
0.0020687
0.00143473
0.000524876
0.000416481
0.000353155
0.000298016
0.000254716
0.000348256
0.000419735
0.000499073
0.000606103
0.00154171
0.00163647
0.00140604
0.000561815
0.00390134
0.00455682
0.00440617
0.00418749
0.00418277
0.00443046
0.00478705
0.00497277
0.00438729
0.0041643
0.00476168
0.00470318
0.0042537
0.00365058
0.00289187
0.00207398
0.00141355
0.00109862
0.00310748
0.00334864
0.00330141
0.00281028
0.0021139
0.00133844
0.000757682
0.000750792
0.000748884
0.000748501
0.000750386
0.00075757
0.000772177
0.00079146
0.00081808
0.0016965
0.00247852
0.00282906
0.000973701
0.00420343
0.00538605
0.00502496
0.00446952
0.00425585
0.00442284
0.0048551
0.00526822
0.00497756
0.00487711
0.00561065
0.00590948
0.00579761
0.0056184
0.005398
0.00512826
0.00486187
0.00472475
0.00503449
0.00505089
0.00485227
0.00458228
0.0043142
0.00406749
0.00387018
0.00377964
0.00367383
0.00355455
0.00344524
0.00337759
0.00336915
0.00341756
0.00351256
0.00364309
0.00371676
0.00364029
0.0029977
0.00138219
0.00127098
0.00112561
0.00446241
0.00576275
0.00530667
0.004496
0.00421302
0.0043933
0.00492973
0.00547772
0.00532901
0.00528042
0.00610703
0.00658777
0.00664468
0.00665133
0.00665326
0.00662402
0.00654462
0.00642127
0.00627323
0.00605984
0.00582631
0.00562027
0.00545146
0.00530289
0.00514746
0.00496018
0.00472378
0.0044556
0.00420678
0.00403802
0.00397786
0.00401366
0.00411557
0.00424494
0.00439144
0.00451051
0.00431842
0.00399401
0.0031264
0.00128438
0.00474981
0.00553789
0.00441668
0.00434011
0.0041778
0.00443643
0.00501585
0.00555583
0.00548411
0.00547428
0.00627608
0.00680247
0.00692008
0.0069834
0.00704028
0.00705968
0.00700961
0.0068787
0.00668136
0.00644848
0.00622329
0.00604025
0.00590661
0.00580521
0.00570156
0.00555479
0.00532744
0.00501247
0.00466593
0.0043814
0.00421047
0.00414112
0.0041371
0.00414801
0.00411883
0.00398482
0.00367015
0.00326475
0.00278344
0.00128506
0.00513362
0.00549082
0.00431313
0.00395552
0.00430826
0.00464062
0.00515121
0.00559588
0.00555762
0.0055698
0.00624509
0.00672239
0.00686254
0.00693721
0.0069974
0.00702199
0.00698388
0.00686844
0.00668491
0.00646332
0.00624431
0.00606472
0.0059459
0.00589348
0.00589678
0.00592155
0.00589531
0.00572983
0.00540755
0.00502678
0.00466982
0.00430152
0.00391412
0.00352582
0.00316228
0.00285155
0.00256832
0.00229467
0.00201502
0.00142366
0.00576859
0.00679148
0.00901237
0.00402118
0.00444802
0.00515983
0.00545425
0.00574712
0.00571645
0.00563298
0.00598404
0.00637557
0.00653442
0.00659718
0.00662388
0.00662204
0.0065811
0.00648777
0.00634043
0.00615399
0.00595584
0.00577701
0.00564548
0.00558954
0.00563764
0.00580841
0.00608165
0.00635742
0.00647887
0.00635269
0.00605886
0.00575813
0.00550966
0.00530244
0.00506004
0.00464251
0.00412092
0.0037487
0.00356537
0.00168804
0.0154752
0.00807334
0.00368748
0.00578066
0.00601722
0.00612925
0.0059173
0.00564759
0.0056854
0.00585764
0.00592229
0.00591956
0.00588763
0.00584423
0.00579106
0.00572062
0.00562542
0.00550502
0.00536815
0.00523053
0.00511173
0.00503566
0.00503397
0.0051497
0.00543163
0.00589312
0.00642313
0.00671798
0.00667358
0.00644472
0.0061953
0.00600092
0.00587767
0.00583325
0.00570719
0.00509963
0.00479636
0.0016898
0.00641617
0.00400011
0.00521745
0.0059304
0.00601511
0.0058094
0.00536373
0.00500823
0.00484614
0.0048102
0.00477118
0.00473937
0.0047166
0.00470024
0.00468615
0.00466963
0.0046465
0.00461476
0.00457581
0.00453459
0.00449874
0.00447818
0.00448554
0.00453775
0.00465749
0.00486958
0.00518002
0.00550199
0.00567265
0.00566818
0.00555438
0.00540014
0.00523145
0.00503798
0.00460304
0.00391481
0.0038621
0.00149457
0.00220823
0.00322409
0.00467528
0.00216072
0.00186116
0.00201174
0.00196529
0.00185436
0.00173415
0.00163062
0.00154391
0.00146951
0.00140889
0.00135836
0.00131553
0.00127867
0.00124646
0.00121785
0.00119193
0.001168
0.00114557
0.00112442
0.00110457
0.00108625
0.00106993
0.00105623
0.00104596
0.00104008
0.00103992
0.00105476
0.00108718
0.00112661
0.00116411
0.00119108
0.00119853
0.00117643
0.00114065
0.00109795
0.00111702
0.00108125
)
;

boundaryField
{
    floor
    {
        type            compressible::alphatWallFunction;
        Prt             0.85;
        value           nonuniform List<scalar> 
29
(
9.17277e-05
4.7875e-05
5.46691e-05
5.72167e-05
4.59223e-05
3.0762e-05
2.42529e-05
2.17115e-05
2.16507e-05
2.18974e-05
1.9429e-05
1.86933e-05
2.48199e-05
2.76293e-05
3.1932e-05
3.93255e-05
4.90912e-05
5.60839e-05
5.74856e-05
5.22379e-05
5.22372e-05
7.19425e-05
7.86205e-05
0.000138592
9.17266e-05
4.78743e-05
7.08626e-05
0.000125284
0.00015612
)
;
    }
    ceiling
    {
        type            compressible::alphatWallFunction;
        Prt             0.85;
        value           nonuniform List<scalar> 
43
(
0.000304382
0.000432532
0.000608649
0.000298163
0.000259175
0.000278866
0.000272807
0.000258275
0.000242421
0.00022867
0.000217079
0.000207077
0.000198883
0.000192024
0.000186186
0.000181144
0.000176725
0.000172787
0.000169211
0.000165901
0.000162793
0.000159854
0.000157089
0.000154534
0.000152252
0.000150333
0.000148892
0.000148065
0.000148042
0.000150119
0.000154648
0.000160138
0.000165339
0.000169067
0.000170095
0.000167042
0.000162087
0.000156151
0.000158807
0.000153832
0.000737727
0.000856244
0.000812933
)
;
    }
    sWall
    {
        type            compressible::alphatWallFunction;
        Prt             0.85;
        value           uniform 0.000303356;
    }
    nWall
    {
        type            compressible::alphatWallFunction;
        Prt             0.85;
        value           nonuniform List<scalar> 6(0.000159679 0.000181539 0.000181624 0.000236152 0.000210073 0.000153512);
    }
    sideWalls
    {
        type            empty;
    }
    glass1
    {
        type            compressible::alphatWallFunction;
        Prt             0.85;
        value           nonuniform List<scalar> 9(0.000211314 0.0002224 0.000408935 0.000508896 0.000545161 0.000576044 0.000610115 0.00065533 0.000729503);
    }
    glass2
    {
        type            compressible::alphatWallFunction;
        Prt             0.85;
        value           nonuniform List<scalar> 2(0.000199359 0.00023466);
    }
    sun
    {
        type            compressible::alphatWallFunction;
        Prt             0.85;
        value           nonuniform List<scalar> 
14
(
0.000215652
0.000243806
0.000254741
0.000209203
0.000183473
0.000163512
0.000141926
0.000125874
0.000111993
0.000103206
9.81032e-05
9.51198e-05
9.34096e-05
9.25677e-05
)
;
    }
    heatsource1
    {
        type            compressible::alphatWallFunction;
        Prt             0.85;
        value           nonuniform List<scalar> 3(0.000195222 0.000180052 0.000159998);
    }
    heatsource2
    {
        type            compressible::alphatWallFunction;
        Prt             0.85;
        value           nonuniform List<scalar> 4(0.000102253 7.19674e-05 7.19665e-05 0.00011728);
    }
    Table_master
    {
        type            compressible::alphatWallFunction;
        Prt             0.85;
        value           nonuniform List<scalar> 9(7.31303e-05 5.63929e-05 4.63602e-05 3.74303e-05 3.02671e-05 4.55998e-05 5.69312e-05 6.92191e-05 8.5414e-05);
    }
    Table_slave
    {
        type            compressible::alphatWallFunction;
        Prt             0.85;
        value           nonuniform List<scalar> 9(0.000107757 0.000106753 0.000106474 0.000106417 0.00010669 0.000107734 0.000109856 0.000112652 0.000116502);
    }
    inlet
    {
        type            fixedValue;
        value           uniform 1.94e-05;
    }
    outlet
    {
        type            zeroGradient;
    }
}


// ************************************************************************* //
