// -*- C++ -*-
// File generated by PyFoam - sorry for the ugliness

FoamFile
{
 version 2.0;
 format ascii;
 class volScalarField;
 location "600";
 object T;
}

dimensions [ 0 0 0 1 0 0 0 ];

internalField nonuniform List<scalar> 459
(
  306.098
  305.869
  305.866
  305.872
  305.877
  305.881
  305.883
  305.885
  305.886
  305.886
  305.883
  305.877
  305.867
  305.854
  305.835
  304.768
  304.699
  304.645
  304.615
  304.618
  304.634
  304.654
  304.668
  304.675
  304.68
  304.684
  304.682
  304.678
  304.681
  304.7
  304.749
  304.79
  304.81
  304.856
  306.281
  305.946
  305.93
  305.941
  305.953
  305.964
  305.972
  305.977
  305.98
  305.979
  305.972
  305.957
  305.933
  305.899
  305.852
  305.806
  305.682
  304.912
  304.898
  304.882
  304.886
  304.892
  304.893
  304.891
  304.888
  304.888
  304.894
  304.908
  304.935
  304.969
  305.012
  305.073
  305.148
  305.154
  305.162
  305.236
  306.449
  306.019
  305.983
  305.999
  306.02
  306.038
  306.055
  306.067
  306.075
  306.078
  306.072
  306.054
  306.021
  305.97
  305.9
  305.818
  305.746
  305.223
  305.215
  305.246
  305.272
  305.28
  305.241
  305.11
  305.141
  305.18
  305.221
  305.265
  305.312
  305.369
  305.441
  305.536
  305.636
  305.626
  305.599
  305.57
  306.602
  306.099
  306.036
  306.051
  306.079
  306.107
  306.134
  306.157
  306.175
  306.185
  306.184
  306.168
  306.133
  306.076
  305.995
  305.887
  305.754
  305.628
  305.541
  305.621
  305.693
  305.751
  305.788
  305.813
  305.834
  305.836
  305.839
  305.842
  305.846
  305.85
  305.855
  305.857
  305.856
  305.842
  305.845
  305.846
  305.823
  306.742
  306.19
  306.1
  306.1
  306.13
  306.166
  306.202
  306.236
  306.267
  306.288
  306.296
  306.288
  306.262
  306.216
  306.152
  306.074
  305.992
  305.92
  305.87
  305.861
  305.873
  305.885
  305.891
  305.892
  305.891
  305.889
  305.889
  305.89
  305.893
  305.899
  305.906
  305.914
  305.923
  305.93
  305.942
  305.952
  305.961
  305.975
  305.963
  305.956
  306.864
  306.298
  306.2
  306.172
  306.185
  306.218
  306.258
  306.299
  306.34
  306.371
  306.39
  306.392
  306.377
  306.342
  306.29
  306.225
  306.156
  306.092
  306.042
  306.011
  305.993
  305.981
  305.97
  305.96
  305.951
  305.944
  305.938
  305.934
  305.933
  305.935
  305.94
  305.948
  305.959
  305.972
  305.984
  305.995
  306.001
  306.003
  305.984
  305.956
  306.973
  306.452
  306.381
  306.331
  306.301
  306.302
  306.327
  306.363
  306.404
  306.438
  306.461
  306.47
  306.466
  306.445
  306.406
  306.355
  306.296
  306.237
  306.185
  306.142
  306.109
  306.083
  306.062
  306.043
  306.026
  306.011
  305.999
  305.988
  305.98
  305.974
  305.973
  305.976
  305.983
  305.994
  306.006
  306.016
  306.023
  306.022
  306.009
  305.965
  307.139
  306.752
  306.696
  306.624
  306.544
  306.498
  306.482
  306.484
  306.496
  306.512
  306.524
  306.529
  306.526
  306.514
  306.491
  306.457
  306.413
  306.363
  306.313
  306.268
  306.228
  306.194
  306.165
  306.139
  306.116
  306.095
  306.076
  306.058
  306.042
  306.028
  306.017
  306.009
  306.008
  306.012
  306.021
  306.032
  306.045
  306.057
  306.069
  306.088
  307.367
  307.201
  307.031
  306.925
  306.818
  306.739
  306.687
  306.653
  306.63
  306.612
  306.597
  306.585
  306.573
  306.559
  306.542
  306.519
  306.489
  306.454
  306.415
  306.376
  306.338
  306.302
  306.27
  306.241
  306.214
  306.189
  306.165
  306.142
  306.12
  306.099
  306.08
  306.063
  306.051
  306.043
  306.039
  306.04
  306.042
  306.045
  306.049
  306.073
  305.831
  306.618
  306.692
  306.691
  306.676
  306.659
  306.644
  306.631
  306.618
  306.604
  306.591
  306.578
  306.563
  306.547
  306.527
  306.504
  306.477
  306.448
  306.418
  306.387
  306.357
  306.329
  306.301
  306.275
  306.249
  306.224
  306.2
  306.176
  306.152
  306.13
  306.11
  306.093
  306.08
  306.071
  306.065
  306.059
  306.053
  306.051
  305.968
  306.405
  306.528
  306.584
  306.605
  306.609
  306.607
  306.602
  306.595
  306.587
  306.579
  306.569
  306.559
  306.547
  306.533
  306.517
  306.499
  306.479
  306.457
  306.433
  306.409
  306.385
  306.36
  306.335
  306.31
  306.285
  306.26
  306.235
  306.211
  306.187
  306.164
  306.143
  306.124
  306.108
  306.093
  306.077
  306.059
  306.052
  307.787
  307.267
  306.106
  306.238
  306.418
  306.509
  306.537
  306.547
  306.549
  306.548
  306.544
  306.54
  306.535
  306.529
  306.522
  306.515
  306.506
  306.496
  306.485
  306.472
  306.458
  306.442
  306.424
  306.406
  306.386
  306.365
  306.344
  306.321
  306.299
  306.275
  306.251
  306.227
  306.203
  306.178
  306.155
  306.131
  306.107
  306.081
  306.042
  305.979
)
;

boundaryField
{
  floor
  {
    type wallHeatTransfer;
    Tinf uniform 305.2;
    alphaWall uniform 0.24;
    value nonuniform List<scalar> 29
(
  305.755
  304.879
  304.831
  304.802
  304.79
  304.797
  304.812
  304.825
  304.83
  304.829
  304.829
  304.828
  304.827
  304.825
  304.827
  304.837
  304.867
  304.897
  304.917
  304.954
  304.954
  305.228
  305.504
  305.735
  305.755
  304.879
  304.975
  305.219
  305.576
)
;
  }
  ceiling
  {
    type wallHeatTransfer;
    Tinf uniform 303.2;
    alphaWall uniform 0.24;
    value nonuniform List<scalar> 43
(
  307.443
  307.03
  305.995
  306.103
  306.251
  306.326
  306.336
  306.328
  306.314
  306.299
  306.284
  306.272
  306.264
  306.257
  306.252
  306.246
  306.24
  306.232
  306.222
  306.21
  306.196
  306.181
  306.165
  306.147
  306.128
  306.109
  306.089
  306.068
  306.047
  306.025
  306.002
  305.979
  305.956
  305.932
  305.909
  305.885
  305.859
  305.827
  305.786
  305.722
  307.168
  307.032
  305.888
)
;
  }
  sWall
  {
    type wallHeatTransfer;
    Tinf uniform 315.2;
    alphaWall uniform 0.36;
    value uniform 308.595;
  }
  nWall
  {
    type wallHeatTransfer;
    Tinf uniform 307.2;
    alphaWall uniform 0.36;
    value nonuniform List<scalar> 6
(
  306.212
  306.208
  306.2
  306.181
  306.172
  306.141
)
;
  }
  sideWalls
  {
    type empty;
  }
  glass1
  {
    type wallHeatTransfer;
    Tinf uniform 315.2;
    alphaWall uniform 4.3;
    value nonuniform List<scalar> 9
(
  313.048
  312.308
  311.819
  311.456
  311.185
  310.975
  310.831
  310.899
  311.09
)
;
  }
  glass2
  {
    type wallHeatTransfer;
    Tinf uniform 307.2;
    alphaWall uniform 4.3;
    value nonuniform List<scalar> 2
(
  306.786
  306.764
)
;
  }
  sun
  {
    type wallHeatTransfer;
    Tinf uniform 305.2;
    alphaWall uniform 0.24;
    value nonuniform List<scalar> 14
(
  305.963
  305.771
  305.763
  305.77
  305.777
  305.782
  305.787
  305.79
  305.793
  305.795
  305.794
  305.79
  305.782
  305.771
)
;
  }
  heatsource1
  {
    type fixedGradient;
    gradient uniform 0;
  }
  heatsource2
  {
    type fixedGradient;
    gradient uniform 0;
  }
  Table_master
  {
    type zeroGradient;
  }
  Table_slave
  {
    type zeroGradient;
  }
  inlet
  {
    type fixedValue;
    value uniform 299.15;
  }
  outlet
  {
    type zeroGradient;
  }
} 	// ************************************************************************* //

