/*--------------------------------*- C++ -*----------------------------------*\
  =========                 |
  \\      /  F ield         | OpenFOAM: The Open Source CFD Toolbox
   \\    /   O peration     | Website:  https://openfoam.org
    \\  /    A nd           | Version:  6
     \\/     M anipulation  |
\*---------------------------------------------------------------------------*/
FoamFile
{
    version     2.0;
    format      ascii;
    class       surfaceScalarField;
    location    "300";
    object      phi;
}
// * * * * * * * * * * * * * * * * * * * * * * * * * * * * * * * * * * * * * //

dimensions      [1 0 -1 0 0 0 0];

internalField   nonuniform List<scalar> 
852
(
-0.00278097
0.00284454
-0.00342612
0.000645178
-0.00409981
0.000673714
-0.00471773
0.000617956
-0.00524481
0.0005271
-0.00566473
0.000419952
-0.00596117
0.000296463
-0.00611361
0.000152472
-0.00609722
-1.63656e-05
-0.00588
-0.000217192
-0.00543704
-0.000442932
-0.00475626
-0.000680759
-0.00380158
-0.000954654
-0.00238034
-0.00142121
-0.00237808
0.000968166
-0.00096528
0.0015105
-0.000542307
0.00177546
-0.000264923
0.00193285
-0.000157364
0.00204
-0.000107114
0.00209979
-5.97526e-05
0.00210778
-7.96331e-06
0.00208844
1.93729e-05
0.00206049
2.79846e-05
0.00202975
3.0775e-05
0.00199692
3.28601e-05
0.00196084
3.61161e-05
0.00191715
4.37238e-05
0.00185446
6.27263e-05
0.0017466
0.000107896
0.00155039
0.000196244
0.00124716
0.000303265
0.000866691
0.000380501
0.000871322
-0.00201327
0.0050279
-0.00282092
0.00145285
-0.00359362
0.00144645
-0.00423261
0.00125697
-0.00476552
0.00106004
-0.00519273
0.000847195
-0.00550293
0.000606694
-0.00567792
0.000327487
-0.00569522
9.60933e-07
-0.00553996
-0.000372427
-0.00520348
-0.000779386
-0.00468437
-0.00119984
-0.00399319
-0.00164581
-0.00328191
-0.00213246
-0.00327515
-0.00238481
-0.00139463
-0.00188055
-0.00139465
0.000761786
-0.00171923
0.00107256
-0.000853051
0.00126556
-0.000457884
0.00141855
-0.00031032
0.00153753
-0.000226062
0.00161982
-0.000142015
0.00163768
-2.5784e-05
0.00164538
1.17009e-05
0.00165192
2.14846e-05
0.00165768
2.5048e-05
0.00166253
2.80464e-05
0.00166637
3.23023e-05
0.00166832
4.18099e-05
0.00166416
6.69216e-05
0.00162279
0.0001493
0.00143574
0.000383328
0.00110999
0.000629059
0.000707718
0.000782805
0.00159122
-0.00146161
0.00674673
-0.00226667
0.00225794
-0.00298478
0.00216459
-0.00354836
0.00182057
-0.00402431
0.00153601
-0.00441472
0.00123764
-0.00470748
0.000899479
-0.00488363
0.000503668
-0.00492135
3.87085e-05
-0.00479941
-0.000494336
-0.00451282
-0.00106595
-0.00407998
-0.00163266
-0.00355757
-0.00216819
-0.00306581
-0.0026242
-0.00259807
-0.00285253
-0.00160653
-0.00287206
-0.00300116
0.0002478
-0.00195489
0.000529663
-0.00113488
0.000768695
-0.000696883
0.00096115
-0.000502741
0.00111765
-0.000382528
0.00124854
-0.000272868
0.00122294
0.00123483
0.0012565
0.00128174
0.00130997
0.00134247
0.00138446
0.00145158
0.00160107
0.0013313
0.000653131
0.00099499
0.000965404
0.000575589
0.00120224
0.00218539
-0.00107592
0.00815091
-0.00182536
0.0030074
-0.00233118
0.00267044
-0.00274586
0.00223528
-0.00311907
0.00190925
-0.00344189
0.0015605
-0.00369899
0.0011566
-0.00386914
0.000673847
-0.00392268
9.2283e-05
-0.00382684
-0.000590154
-0.00358521
-0.00130755
-0.00324303
-0.00197481
-0.00286964
-0.00254155
-0.00252327
-0.00297054
-0.0021536
-0.00322219
-0.00172803
-0.0032976
-0.00180129
-0.00292787
0.000151062
-0.00193929
7.78979e-05
-0.0018817
0.00025201
-0.00130896
0.000463558
-0.000908398
0.000650375
-0.000689523
0.000817011
-0.00054913
0.000963605
-0.000419428
0.00125131
-0.000287822
0.00150093
-0.000249736
0.00172257
-0.000221765
0.00190477
-0.000182317
0.00202459
-0.000119942
0.00205281
-2.83336e-05
0.00196519
8.75034e-05
0.00173839
0.000226676
0.00132532
0.000412955
0.00116509
0.000813399
0.000837587
0.00129294
0.000353038
0.00168683
0.00256275
-0.000785695
0.00932306
-0.00146178
0.00368352
-0.00164027
0.00284895
-0.00187146
0.0024665
-0.0021124
0.00215022
-0.00233355
0.00178168
-0.00251844
0.00134152
-0.00264961
0.000805042
-0.00269527
0.000137973
-0.00260124
-0.000684152
-0.00238917
-0.00151959
-0.00212607
-0.00223789
-0.00187036
-0.00279724
-0.00164671
-0.00319417
-0.00143172
-0.00343716
-0.00121027
-0.00351903
-0.000848416
-0.0032897
-0.0001518
-0.00263587
-7.78239e-06
-0.00202568
0.000100151
-0.00141686
0.000238618
-0.00104683
0.000385761
-0.000836632
0.000538903
-0.000702238
0.000713424
-0.000593915
0.00093755
-0.000511913
0.00114992
-0.000462069
0.00134606
-0.000417877
0.00151785
-0.000354072
0.00164794
-0.000249989
0.00170943
-8.97899e-05
0.00167797
0.000118995
0.00155091
0.000353773
0.00134359
0.000620302
0.00115746
0.000999568
0.000954249
0.00149619
0.000520933
0.00212018
0.000323752
0.00275996
-0.00122163
0.00154521
-0.00165962
0.000437832
-0.0016065
-0.000685019
0.0104428
-0.0012478
0.00424633
-0.000947421
0.0025486
-0.000939972
0.00245908
-0.00105001
0.00226029
-0.0011579
0.0018896
-0.00123595
0.00141959
-0.00128182
0.000850947
-0.00126647
0.000122653
-0.00113594
-0.000814651
-0.00095568
-0.00169982
-0.000788931
-0.00240461
-0.000668997
-0.00291716
-0.000600797
-0.00326235
-0.000564019
-0.00347392
-0.000509236
-0.0035738
-0.000332978
-0.00346593
-9.40937e-05
-0.00287473
-4.2211e-05
-0.00207754
-2.18346e-05
-0.0014372
3.02735e-05
-0.0010989
0.00010945
-0.000915774
0.000211322
-0.000804075
0.000341296
-0.000723854
0.000495586
-0.000666168
0.00065749
-0.000623938
0.000819526
-0.000579877
0.00097761
-0.000512122
0.00112316
-0.000395502
0.00123761
-0.000204207
0.00128953
6.71126e-05
0.00127989
0.000363444
0.00123368
0.000666547
0.00121315
0.00102013
0.00127795
0.00143143
0.00142837
0.0019698
0.00191351
0.00227486
0.00215861
0.00130014
0.00177771
0.000818767
0.000235169
-0.000951175
0.0118695
-0.00098583
0.00428101
-6.94783e-05
0.00163228
0.000192623
0.00219701
0.000157039
0.00229591
0.000118563
0.00192811
0.000151933
0.00138626
0.000235298
0.000767612
0.000397035
-3.90524e-05
0.000586784
-0.00100437
0.000698368
-0.00181138
0.000716991
-0.00242321
0.000650997
-0.00285114
0.000519974
-0.00313131
0.000353814
-0.00330775
0.000203665
-0.00342364
0.000131327
-0.00339357
8.31728e-05
-0.00282654
-3.47367e-05
-0.00195959
-0.000142682
-0.00132922
-0.000194104
-0.00104745
-0.000204445
-0.000905398
-0.00018467
-0.000823815
-0.000137004
-0.000771486
-6.60685e-05
-0.000737069
2.1742e-05
-0.000711714
0.000122319
-0.00068042
0.000236494
-0.000626262
0.000369271
-0.000528245
0.00052345
-0.000358352
0.000675214
-8.46163e-05
0.000807278
0.000231415
0.000931993
0.000541867
0.00110367
0.000848488
0.00138919
0.00114594
0.0018559
0.00150312
0.0025981
0.00153271
0.003175
0.00072328
0.00329224
0.000701562
0.00359918
0.00228415
0.0101132
0.00274369
0.00382149
0.00262656
0.00174944
0.00245912
0.00236448
0.00221164
0.00254341
0.00208202
0.00205776
0.00211145
0.00135686
0.00229515
0.000583942
0.00254734
-0.000291208
0.00263851
-0.00109551
0.0025567
-0.00172954
0.00232839
-0.00219488
0.00199779
-0.00252052
0.00160851
-0.00274202
0.0012039
-0.00290313
0.000836385
-0.00305612
0.000547129
-0.00310429
0.000258258
-0.00253764
-6.05357e-05
-0.00164076
-0.000303134
-0.00108659
-0.000460217
-0.00089033
-0.000565519
-0.000800061
-0.000638191
-0.000751109
-0.000686577
-0.000723064
-0.000716498
-0.000707114
-0.000732825
-0.000695351
-0.000736149
-0.000677062
-0.000722312
-0.000640065
-0.000679348
-0.000571175
-0.000580755
-0.000456911
-0.000383153
-0.000282184
-0.000138194
-1.35092e-05
0.000116709
0.000286999
0.000419505
0.000545727
0.000788121
0.000777364
0.00129158
0.000999694
0.00185601
0.000968311
0.00202881
0.000550514
0.00112168
0.00160873
0.00500758
0.0106908
0.0145058
0.0121494
0.00410585
0.0100962
0.00441775
0.00845393
0.00418569
0.00735112
0.00316059
0.00665252
0.0020555
0.00618241
0.00105407
0.00570306
0.000188178
0.00513675
-0.000529178
0.0045091
-0.00110187
0.00384352
-0.00152927
0.00315645
-0.00183344
0.00246778
-0.00205334
0.00180998
-0.00224532
0.00124658
-0.00249272
0.000821143
-0.00267883
0.000335024
-0.00205149
-0.000182199
-0.0011235
-0.000530496
-0.000738258
-0.000771163
-0.000649627
-0.000959692
-0.000611497
-0.00112196
-0.000588806
-0.00126953
-0.000575462
-0.00140993
-0.000566669
-0.00154929
-0.00055596
-0.00169218
-0.000534143
-0.00184299
-0.000489215
-0.00200748
-0.000406652
-0.00219363
-0.000270723
-0.00240932
-6.64589e-05
-0.00263408
0.000211287
-0.0029132
0.000566154
-0.00337532
0.00100787
-0.00412831
0.00153039
-0.00522584
0.00209726
-0.00676958
0.00251209
-0.00862753
0.0024085
-0.00803385
0.00101508
-0.00270742
0.00507879
0.00495732
0.00485796
0.00463859
0.00577837
0.00326529
0.00618867
0.0027503
0.00624706
0.00199712
0.00615251
0.00114864
0.00591966
0.000421045
0.00551898
-0.000128476
0.00496049
-0.000543374
0.00428742
-0.000856184
0.00354203
-0.00108804
0.00275853
-0.00126984
0.00197606
-0.00146284
0.00129027
-0.00180692
0.000795373
-0.0021839
0.000171336
-0.00142742
-0.000467383
-0.000484746
-0.000837005
-0.0003686
-0.00110075
-0.000385842
-0.0013313
-0.000380911
-0.00154941
-0.00037066
-0.00176313
-0.000361707
-0.001978
-0.000351767
-0.00219731
-0.000336619
-0.00242088
-0.000310534
-0.00264405
-0.00026601
-0.00285684
-0.000193826
-0.00304303
-8.44973e-05
-0.00318099
7.15319e-05
-0.00327378
0.000304109
-0.00334113
0.000633541
-0.00340616
0.00107294
-0.00348036
0.00160462
-0.00350768
0.00212461
-0.00340498
0.00240943
-0.00298931
0.00199287
-0.00167705
-0.000297151
-0.00430031
-0.000525729
0.00552678
0.00162606
0.0024868
0.00281698
0.00207438
0.00370232
0.00186497
0.0043833
0.00131616
0.00475444
0.000777503
0.00482735
0.000348154
0.00466125
3.76317e-05
0.00431559
-0.0001977
0.00382727
-0.000367847
0.00323155
-0.000492315
0.00255245
-0.000590722
0.00180537
-0.000715747
0.00101938
-0.00102091
0.000204874
-0.00136934
-0.000538783
-0.000683714
-0.000977513
-4.59788e-05
-0.00124239
-0.000103687
-0.0014582
-0.000169994
-0.00166091
-0.000178168
-0.00185783
-0.000173706
-0.00205069
-0.000168812
-0.00223971
-0.000162715
-0.0024234
-0.000152885
-0.00259779
-0.000136111
-0.00275538
-0.000108383
-0.00288445
-6.47221e-05
-0.00297087
1.95497e-06
-0.00299182
9.2515e-05
-0.00291427
0.000226593
-0.00270572
0.000425029
-0.00234184
0.000709093
-0.00182703
0.00108985
-0.00114587
0.00144349
-9.69973e-05
0.00136058
0.00125838
0.00063753
0.00160761
-0.000646351
-0.00260003
-0.00835892
-0.0107658
-0.00520228
-0.00269529
-0.000605845
0.00127074
0.00259737
0.00338505
0.00374352
0.00379187
0.00360531
0.00324905
0.00276882
0.00219078
0.00148845
0.00048177
-0.000874629
-0.00154761
-0.00158331
-0.00167692
-0.00183703
-0.00200556
-0.0021699
-0.00232963
-0.00248357
-0.00262798
-0.00275592
-0.00285644
-0.0029136
-0.0029044
-0.00280496
-0.00257177
-0.00214049
-0.00142551
-0.000330161
0.00111829
0.00248355
0.00312572
0.00248421
)
;

boundaryField
{
    floor
    {
        type            calculated;
        value           nonuniform List<scalar> 
29
(
0
0
0
0
0
0
0
0
0
0
0
0
0
0
0
0
0
0
0
0
-4.59501e-06
-1.2141e-05
-1.85489e-05
-2.42791e-05
-2.23629e-06
-2.85542e-06
-7.80166e-06
-1.21097e-05
-1.30338e-05
)
;
    }
    ceiling
    {
        type            calculated;
        value           nonuniform List<scalar> 
43
(
-3.90764e-05
-3.79378e-05
-3.66909e-05
-2.01797e-05
-1.50529e-05
-1.1601e-05
-1.04666e-05
-1.01619e-05
-1.02963e-05
-1.07087e-05
-1.11294e-05
-1.15699e-05
-1.20695e-05
-1.26648e-05
-1.33984e-05
-1.42171e-05
-1.28451e-05
-1.07e-05
-1.02406e-05
-1.00393e-05
-9.84882e-06
-9.60819e-06
-9.33472e-06
-9.0434e-06
-8.74282e-06
-8.43849e-06
-8.13367e-06
-7.8295e-06
-7.52472e-06
-7.21518e-06
-6.89152e-06
-6.5596e-06
-6.21516e-06
-5.8529e-06
-5.46386e-06
-4.92931e-06
-4.641e-06
-4.60353e-06
-4.80966e-06
-4.36205e-06
9.77301e-06
6.49851e-06
-4.37407e-05
)
;
    }
    sWall
    {
        type            calculated;
        value           uniform -0.000248887;
    }
    nWall
    {
        type            calculated;
        value           nonuniform List<scalar> 6(-5.32889e-05 -6.39206e-05 -7.1738e-05 -8.41235e-05 -9.26317e-05 -0.000111424);
    }
    sideWalls
    {
        type            empty;
        value           nonuniform 0();
    }
    glass1
    {
        type            calculated;
        value           nonuniform List<scalar> 9(-6.35456e-05 -0.00017006 -0.000257198 -0.00032824 -0.000386436 -0.000434658 -0.000475517 -0.000527835 -0.000587363);
    }
    glass2
    {
        type            calculated;
        value           nonuniform List<scalar> 2(-0.000286686 -0.000318813);
    }
    sun
    {
        type            calculated;
        value           uniform 0;
    }
    heatsource1
    {
        type            calculated;
        value           nonuniform List<scalar> 3(2.04775e-07 2.04664e-07 2.04675e-07);
    }
    heatsource2
    {
        type            calculated;
        value           nonuniform List<scalar> 4(5.09933e-08 5.12205e-08 0 0);
    }
    Table_master
    {
        type            calculated;
        value           nonuniform List<scalar> 9(-1.53681e-07 -1.53725e-07 -1.53732e-07 -1.53736e-07 -1.53738e-07 -1.53738e-07 -1.53733e-07 -1.5372e-07 -1.53677e-07);
    }
    Table_slave
    {
        type            calculated;
        value           nonuniform List<scalar> 9(1.5364e-07 1.5359e-07 1.53521e-07 1.53464e-07 1.5343e-07 1.53427e-07 1.53437e-07 1.53477e-07 1.53567e-07);
    }
    inlet
    {
        type            calculated;
        value           uniform -0.00593026;
    }
    outlet
    {
        type            calculated;
        value           nonuniform List<scalar> 2(0.00864689 0.00244479);
    }
}


// ************************************************************************* //
