// -*- C++ -*-
// File generated by PyFoam - sorry for the ugliness

FoamFile
{
 version 2.0;
 format ascii;
 class volVectorField;
 location "420";
 object U;
}

dimensions [ 0 1 -1 0 0 0 0 ];

internalField nonuniform List<vector> 459
(
  (0.00336728 0.0584178 0)
  (-0.116132 0.0204677 0)
  (-0.14064 0.0110917 0)
  (-0.161316 0.00379555 0)
  (-0.170985 -0.00390369 0)
  (-0.167504 -0.0122105 0)
  (-0.15005 -0.0214479 0)
  (-0.119711 -0.0304357 0)
  (-0.0805745 -0.0372222 0)
  (-0.0392683 -0.0396539 0)
  (0.00656996 -0.0318916 0)
  (0.0340661 -0.0199211 0)
  (0.0490802 -0.00834196 0)
  (0.0488217 0.00573629 0)
  (0.0573079 0.0304106 0)
  (-0.0769662 0.00756283 0)
  (0.0108501 -0.000310216 0)
  (0.00829237 -0.0142591 0)
  (0.0253921 -0.0168513 0)
  (0.0428797 -0.0147507 0)
  (0.0581504 -0.011025 0)
  (0.0684134 -0.00641671 0)
  (0.073687 -0.00379594 0)
  (0.0756375 -0.00280136 0)
  (0.0762444 -0.00240959 0)
  (0.076456 -0.00214293 0)
  (0.0763652 -0.00186216 0)
  (0.0757898 -0.00145204 0)
  (0.074346 -0.000670215 0)
  (0.0711567 0.00103043 0)
  (0.0644359 0.00456138 0)
  (0.0522008 0.00975847 0)
  (0.0201891 0.0185711 0)
  (0.0603011 0.00902623 0)
  (0.103868 0.119985 0)
  (-0.104216 0.0554809 0)
  (-0.114372 0.039217 0)
  (-0.135618 0.0245539 0)
  (-0.145896 0.00771585 0)
  (-0.143676 -0.0117317 0)
  (-0.128251 -0.0326347 0)
  (-0.101491 -0.0511787 0)
  (-0.0677722 -0.062892 0)
  (-0.0330838 -0.0645524 0)
  (0.000279563 -0.0526496 0)
  (0.0253348 -0.0331576 0)
  (0.0418645 -0.0129271 0)
  (0.051812 0.00857389 0)
  (0.0617637 0.0329913 0)
  (0.0596409 0.0346366 0)
  (0.0397688 0.0367146 0)
  (-0.0971963 0.0061431 0)
  (0.0249409 -0.0200841 0)
  (0.0299579 -0.027484 0)
  (0.0423748 -0.0284596 0)
  (0.0551374 -0.0244811 0)
  (0.0656661 -0.0178605 0)
  (0.0712404 -0.00742132 0)
  (0.0725003 -0.00123456 0)
  (0.0723451 0.00113016 0)
  (0.0724029 0.00202417 0)
  (0.0726834 0.00255805 0)
  (0.0728961 0.0030416 0)
  (0.0729209 0.00372476 0)
  (0.0727083 0.00513401 0)
  (0.0716422 0.00846013 0)
  (0.0668827 0.0170542 0)
  (0.0563437 0.0262828 0)
  (0.021824 0.0376645 0)
  (0.101972 0.028252 0)
  (0.19802 0.179598 0)
  (-0.107558 0.0857052 0)
  (-0.0879318 0.0619974 0)
  (-0.108466 0.0376472 0)
  (-0.118665 0.0101611 0)
  (-0.116765 -0.0210729 0)
  (-0.101774 -0.0537718 0)
  (-0.0772759 -0.0810023 0)
  (-0.0483217 -0.0957487 0)
  (-0.0201947 -0.0947346 0)
  (0.00557862 -0.0772742 0)
  (0.0255744 -0.0523793 0)
  (0.0404671 -0.0261516 0)
  (0.0504749 -5.4854e-05 0)
  (0.0572336 0.0247156 0)
  (0.055501 0.0395093 0)
  (0.0455013 0.0662237 0)
  (-0.0438385 -0.0202658 0)
  (0.0400818 -0.0382452 0)
  (0.0524864 -0.0431476 0)
  (0.0590807 -0.0404122 0)
  (0.0657653 -0.034362 0)
  (0.0719057 -0.0282763 0)
  (0.0742925 -0.0206707 0)
  (0.0682242 -0.0132841 0)
  (0.0633477 -0.00943369 0)
  (0.0616076 -0.00734164 0)
  (0.0613216 -0.0060072 0)
  (0.0614708 -0.00501594 0)
  (0.062096 -0.00402192 0)
  (0.0639525 -0.0024836 0)
  (0.068858 0.00209997 0)
  (0.069142 0.0226877 0)
  (0.0608377 0.0386297 0)
  (0.022953 0.0560807 0)
  (0.127974 0.0578695 0)
  (0.286815 0.227794 0)
  (-0.122313 0.110976 0)
  (-0.0598384 0.0822027 0)
  (-0.0787146 0.0504952 0)
  (-0.0872272 0.0142889 0)
  (-0.0831094 -0.0287143 0)
  (-0.0667478 -0.0733205 0)
  (-0.0446925 -0.107716 0)
  (-0.021619 -0.123704 0)
  (-0.000765209 -0.119298 0)
  (0.017036 -0.0979046 0)
  (0.0315278 -0.0688427 0)
  (0.0430245 -0.0380448 0)
  (0.0518704 -0.0085748 0)
  (0.0599859 0.0185299 0)
  (0.069406 0.0405043 0)
  (0.0832357 0.065115 0)
  (0.10928 0.0127642 0)
  (0.101212 -0.0132988 0)
  (0.0904408 -0.0333837 0)
  (0.0804643 -0.0415125 0)
  (0.0737588 -0.0404132 0)
  (0.0697179 -0.0349238 0)
  (0.0663125 -0.0270734 0)
  (0.0675197 -0.0162816 0)
  (0.0758485 -0.0109179 0)
  (0.082302 -0.00802112 0)
  (0.0859524 -0.00628215 0)
  (0.0881041 -0.00491519 0)
  (0.0891312 -0.00345338 0)
  (0.0878939 -0.00143701 0)
  (0.0829987 0.00161191 0)
  (0.0716691 0.0063964 0)
  (0.0621097 0.0289897 0)
  (0.0609903 0.0480882 0)
  (0.0289623 0.0701374 0)
  (0.1463 0.0997579 0)
  (0.368721 0.264601 0)
  (-0.145022 0.129596 0)
  (-0.031006 0.0947648 0)
  (-0.0462055 0.0588167 0)
  (-0.0508806 0.0165913 0)
  (-0.0388431 -0.0375946 0)
  (-0.0206662 -0.0917372 0)
  (-0.00305853 -0.129101 0)
  (0.0119497 -0.143029 0)
  (0.0231187 -0.134883 0)
  (0.0321546 -0.111219 0)
  (0.0394838 -0.0794857 0)
  (0.0453533 -0.0463362 0)
  (0.0506767 -0.0158591 0)
  (0.0574164 0.0102157 0)
  (0.0669727 0.0290449 0)
  (0.0817263 0.0365079 0)
  (0.0940332 0.00813124 0)
  (0.0928111 -0.013289 0)
  (0.0843268 -0.0269328 0)
  (0.0747763 -0.0329544 0)
  (0.0661184 -0.0329863 0)
  (0.0590754 -0.0290952 0)
  (0.0539192 -0.0222184 0)
  (0.0526055 -0.0121168 0)
  (0.05495 -0.00643178 0)
  (0.057584 -0.00411195 0)
  (0.059762 -0.00299467 0)
  (0.0618331 -0.00176793 0)
  (0.0637507 0.000452059 0)
  (0.0651117 0.00421414 0)
  (0.0648782 0.00996146 0)
  (0.062585 0.0183885 0)
  (0.0605567 0.0334718 0)
  (0.0662536 0.0496589 0)
  (0.0572478 0.0667219 0)
  (0.118814 0.098656 0)
  (0.113247 0.0772071 0)
  (0.114519 0.0542675 0)
  (-0.192854 0.0505427 0)
  (0.434933 0.293969 0)
  (-0.171644 0.139852 0)
  (-0.00634444 0.0942015 0)
  (-0.0114741 0.0615672 0)
  (-0.00889727 0.0162448 0)
  (0.0186001 -0.0539746 0)
  (0.0349317 -0.108772 0)
  (0.0449589 -0.141775 0)
  (0.049422 -0.151561 0)
  (0.0498947 -0.140731 0)
  (0.0482816 -0.115103 0)
  (0.0458497 -0.0820194 0)
  (0.0436647 -0.0484237 0)
  (0.0429292 -0.01906 0)
  (0.0452362 0.00379556 0)
  (0.0512813 0.0180742 0)
  (0.0615421 0.0204676 0)
  (0.0684146 0.00614329 0)
  (0.0676637 -0.00878802 0)
  (0.0614328 -0.0189804 0)
  (0.0531456 -0.0240988 0)
  (0.0447111 -0.0248738 0)
  (0.0372505 -0.0224483 0)
  (0.031637 -0.0177114 0)
  (0.0289619 -0.0117073 0)
  (0.0291674 -0.00814974 0)
  (0.0307327 -0.00680284 0)
  (0.0329385 -0.00622209 0)
  (0.0356778 -0.00531311 0)
  (0.0388803 -0.00316102 0)
  (0.0427459 0.00120986 0)
  (0.046467 0.00817939 0)
  (0.0496236 0.017653 0)
  (0.0534329 0.0299578 0)
  (0.0617858 0.0425083 0)
  (0.0640213 0.0507087 0)
  (0.0883048 0.0657613 0)
  (0.0867981 0.0508089 0)
  (0.114898 0.0483762 0)
  (-0.168729 0.0780556 0)
  (0.48251 0.318883 0)
  (-0.18852 0.127167 0)
  (0.0182276 0.0612011 0)
  (0.0345624 0.0406995 0)
  (0.0602769 -0.00955248 0)
  (0.085163 -0.0731558 0)
  (0.0968419 -0.120321 0)
  (0.097172 -0.145397 0)
  (0.0890216 -0.148968 0)
  (0.0757189 -0.134316 0)
  (0.0605774 -0.107106 0)
  (0.0460731 -0.0741372 0)
  (0.03423 -0.0421469 0)
  (0.0264607 -0.0159341 0)
  (0.0236687 0.00242912 0)
  (0.0264856 0.0123494 0)
  (0.0327445 0.0132133 0)
  (0.0366223 0.0048261 0)
  (0.0358149 -0.00514919 0)
  (0.0309258 -0.0125213 0)
  (0.0238009 -0.0164466 0)
  (0.016094 -0.0173466 0)
  (0.00905766 -0.0160695 0)
  (0.00373326 -0.0134622 0)
  (0.00099786 -0.0105448 0)
  (0.000764458 -0.00903936 0)
  (0.00201804 -0.0088287 0)
  (0.00409169 -0.00901004 0)
  (0.00680955 -0.00880602 0)
  (0.0102746 -0.00747994 0)
  (0.0148254 -0.00402328 0)
  (0.0218921 0.0027329 0)
  (0.0293145 0.0119005 0)
  (0.0374342 0.0222671 0)
  (0.0477733 0.0322264 0)
  (0.0554239 0.038793 0)
  (0.0699267 0.0495165 0)
  (0.0759349 0.0524749 0)
  (0.127756 0.0693465 0)
  (-0.118754 0.135283 0)
  (0.563645 0.317269 0)
  (-0.0457188 0.0999354 0)
  (0.0750084 -0.00749618 0)
  (0.123227 -0.0458837 0)
  (0.157352 -0.073844 0)
  (0.17092 -0.102384 0)
  (0.167582 -0.1249 0)
  (0.150221 -0.134724 0)
  (0.123277 -0.129861 0)
  (0.0919542 -0.111764 0)
  (0.0609699 -0.0846882 0)
  (0.0336499 -0.0543769 0)
  (0.0130185 -0.0270853 0)
  (0.000230318 -0.00699907 0)
  (-0.00490978 0.00470495 0)
  (-0.00356124 0.00970295 0)
  (0.00020319 0.00934333 0)
  (0.00225638 0.00404376 0)
  (0.00113276 -0.00219566 0)
  (-0.00320563 -0.00696226 0)
  (-0.0094385 -0.00959007 0)
  (-0.0160931 -0.0105129 0)
  (-0.0220141 -0.0104359 0)
  (-0.0263479 -0.00997947 0)
  (-0.028663 -0.0096916 0)
  (-0.0292495 -0.0100541 0)
  (-0.0288281 -0.0109013 0)
  (-0.0279185 -0.0118041 0)
  (-0.0267202 -0.0123895 0)
  (-0.0251359 -0.0123272 0)
  (-0.0227129 -0.0111874 0)
  (-0.0183508 -0.00825714 0)
  (-0.00898194 -0.00263015 0)
  (0.00277564 0.00458288 0)
  (0.0144705 0.0104095 0)
  (0.0238995 0.0130892 0)
  (0.0358622 0.0166303 0)
  (0.0452088 0.0165422 0)
  (0.128138 0.0710372 0)
  (-0.376814 0.208034 0)
  (0.672373 0.307601 0)
  (0.322973 0.213146 0)
  (0.333888 0.150402 0)
  (0.349987 0.0834662 0)
  (0.327491 0.0194343 0)
  (0.286607 -0.0348852 0)
  (0.238742 -0.0711275 0)
  (0.186226 -0.0868822 0)
  (0.132223 -0.084985 0)
  (0.080897 -0.0699752 0)
  (0.0361178 -0.0475027 0)
  (0.000262397 -0.0236258 0)
  (-0.0219648 -0.006053 0)
  (-0.0329102 0.00336408 0)
  (-0.0361795 0.0076041 0)
  (-0.0355315 0.00895661 0)
  (-0.0337349 0.00808963 0)
  (-0.0331839 0.00523618 0)
  (-0.0348546 0.00192103 0)
  (-0.0381831 -0.000802369 0)
  (-0.0429854 -0.0026084 0)
  (-0.0480424 -0.00384191 0)
  (-0.0525718 -0.00484944 0)
  (-0.0560958 -0.00584464 0)
  (-0.0585452 -0.00696285 0)
  (-0.0602365 -0.00828325 0)
  (-0.0616421 -0.00969138 0)
  (-0.0631968 -0.0109718 0)
  (-0.065336 -0.0118985 0)
  (-0.0685562 -0.0121281 0)
  (-0.0733961 -0.0109823 0)
  (-0.0802797 -0.00724121 0)
  (-0.0896319 0.000652737 0)
  (-0.0999046 0.0120929 0)
  (-0.114819 0.027486 0)
  (-0.139354 0.0482407 0)
  (-0.172872 0.0753318 0)
  (-0.214452 0.105822 0)
  (-0.279682 0.1337 0)
  (-0.547728 0.14933 0)
  (0.204473 -0.0144112 0)
  (0.2201 -0.0128231 0)
  (0.214122 -0.0354931 0)
  (0.183964 -0.0481903 0)
  (0.142841 -0.05039 0)
  (0.0966323 -0.0457354 0)
  (0.049705 -0.0357104 0)
  (0.00462383 -0.0199896 0)
  (-0.0315174 -0.00351358 0)
  (-0.0523984 0.0060884 0)
  (-0.063036 0.0109058 0)
  (-0.0667103 0.0128145 0)
  (-0.0673166 0.0135815 0)
  (-0.0665799 0.0137796 0)
  (-0.0657008 0.0134366 0)
  (-0.065706 0.0125072 0)
  (-0.0669885 0.0114432 0)
  (-0.0692406 0.0106459 0)
  (-0.071905 0.0101229 0)
  (-0.0747726 0.0096772 0)
  (-0.077749 0.00900522 0)
  (-0.080814 0.00836693 0)
  (-0.0840334 0.00804156 0)
  (-0.0875236 0.00822516 0)
  (-0.0913591 0.00914844 0)
  (-0.0955466 0.0110883 0)
  (-0.100076 0.0141337 0)
  (-0.105002 0.0180404 0)
  (-0.110517 0.0219656 0)
  (-0.116528 0.0251471 0)
  (-0.121751 0.0291677 0)
  (-0.126344 0.0362978 0)
  (-0.130202 0.0479468 0)
  (-0.133016 0.0647119 0)
  (-0.132024 0.084223 0)
  (-0.121691 0.0919762 0)
  (-0.105973 0.0468499 0)
  (-0.195734 -0.171998 0)
  (0.0601494 0.106694 0)
  (0.00805408 0.0308885 0)
  (-0.00337892 -0.010283 0)
  (-0.00620471 -0.0299775 0)
  (-0.0209379 -0.0371036 0)
  (-0.0424696 -0.0398554 0)
  (-0.0632022 -0.0408868 0)
  (-0.0789968 -0.042018 0)
  (-0.0879133 -0.0444449 0)
  (-0.0917056 -0.0477228 0)
  (-0.0929227 -0.0507536 0)
  (-0.0924873 -0.0530522 0)
  (-0.0912164 -0.0544964 0)
  (-0.08951 -0.0556721 0)
  (-0.0877725 -0.0572829 0)
  (-0.0864308 -0.0597473 0)
  (-0.0857162 -0.0628999 0)
  (-0.0856007 -0.0663273 0)
  (-0.0859638 -0.0697293 0)
  (-0.0867394 -0.0729885 0)
  (-0.0880033 -0.0760268 0)
  (-0.0899626 -0.0791378 0)
  (-0.0927335 -0.0825285 0)
  (-0.0963866 -0.0862319 0)
  (-0.100922 -0.0902636 0)
  (-0.106161 -0.0939865 0)
  (-0.111654 -0.0966353 0)
  (-0.116723 -0.0969426 0)
  (-0.120637 -0.0931627 0)
  (-0.122823 -0.0836782 0)
  (-0.122454 -0.0689185 0)
  (-0.117907 -0.0489529 0)
  (-0.107153 -0.0246692 0)
  (-0.0883284 0.00210058 0)
  (-0.0613013 0.0263423 0)
  (-0.0286991 0.0342911 0)
  (0.0983794 -0.0541996 0)
  (-0.149917 -0.113865 0)
  (-0.129602 -0.245337 0)
  (-0.291945 -0.0481561 0)
  (-0.224255 0.142182 0)
  (-0.194822 0.130447 0)
  (-0.160321 0.135163 0)
  (-0.149052 0.144959 0)
  (-0.146518 0.152008 0)
  (-0.145413 0.158988 0)
  (-0.142911 0.16779 0)
  (-0.138333 0.178073 0)
  (-0.132338 0.18809 0)
  (-0.126174 0.196235 0)
  (-0.120696 0.202203 0)
  (-0.116078 0.206281 0)
  (-0.112121 0.209138 0)
  (-0.108535 0.211666 0)
  (-0.105245 0.214521 0)
  (-0.102392 0.217925 0)
  (-0.100166 0.22166 0)
  (-0.0986739 0.22538 0)
  (-0.0979412 0.228866 0)
  (-0.0979377 0.23206 0)
  (-0.098557 0.23503 0)
  (-0.0996683 0.238246 0)
  (-0.101137 0.242099 0)
  (-0.102797 0.24677 0)
  (-0.104466 0.252451 0)
  (-0.105921 0.258413 0)
  (-0.106912 0.263883 0)
  (-0.107145 0.267546 0)
  (-0.106141 0.267844 0)
  (-0.102992 0.263799 0)
  (-0.096295 0.256578 0)
  (-0.084272 0.247476 0)
  (-0.0655191 0.23889 0)
  (-0.0404773 0.23374 0)
  (-0.00783084 0.233719 0)
  (0.0273533 0.238301 0)
  (0.135456 0.273621 0)
  (-0.290846 0.266734 0)
)
;

boundaryField
{
  floor
  {
    type noSlip;
  }
  ceiling
  {
    type noSlip;
  }
  sWall
  {
    type noSlip;
  }
  nWall
  {
    type noSlip;
  }
  sideWalls
  {
    type empty;
  }
  glass1
  {
    type noSlip;
  }
  glass2
  {
    type noSlip;
  }
  sun
  {
    type noSlip;
  }
  heatsource1
  {
    type noSlip;
  }
  heatsource2
  {
    type noSlip;
  }
  Table_master
  {
    type noSlip;
  }
  Table_slave
  {
    type noSlip;
  }
  inlet
  {
    type fixedValue;
    value uniform (0.277164 -0.114805 0);
  }
  outlet
  {
    type zeroGradient;
  }
} 	// ************************************************************************* //

