/*--------------------------------*- C++ -*----------------------------------*\
  =========                 |
  \\      /  F ield         | OpenFOAM: The Open Source CFD Toolbox
   \\    /   O peration     | Website:  https://openfoam.org
    \\  /    A nd           | Version:  6
     \\/     M anipulation  |
\*---------------------------------------------------------------------------*/
FoamFile
{
    version     2.0;
    format      ascii;
    class       surfaceScalarField;
    location    "90";
    object      phi;
}
// * * * * * * * * * * * * * * * * * * * * * * * * * * * * * * * * * * * * * //

dimensions      [1 0 -1 0 0 0 0];

internalField   nonuniform List<scalar> 
852
(
0.00324441
-0.00326602
0.00410739
-0.000862946
0.00500914
-0.000901718
0.00559298
-0.000583822
0.00580277
-0.000209776
0.00580328
-4.92427e-07
0.00569963
0.000103661
0.00552673
0.000172904
0.00529562
0.000231111
0.00500448
0.000291129
0.00463486
0.000369605
0.00414358
0.000491263
0.00344064
0.000702906
0.00229285
0.00114774
0.00228791
-0.000204414
0.000196884
-0.000340543
0.000135935
0.000219169
-0.000559886
0.000970976
-0.00075197
0.00160604
-0.000635218
0.00206655
-0.000460669
0.00233328
-0.000266872
0.00246381
-0.000130662
0.00253853
-7.48515e-05
0.00258676
-4.83494e-05
0.00261567
-2.90203e-05
0.00262841
-1.28387e-05
0.00262154
6.76344e-06
0.00257646
4.4967e-05
0.00244458
0.000131767
0.00214002
0.000304432
0.0015819
0.000557961
0.00064898
0.000932723
0.00063949
0.0015799
-0.004907
0.00286981
-0.00215283
0.00373971
-0.0017716
0.00409709
-0.000941194
0.00421986
-0.000332545
0.00422486
-5.491e-06
0.00415244
0.000176064
0.00403139
0.000293928
0.00387726
0.000385213
0.00369281
0.000475551
0.0034718
0.000590566
0.00320429
0.000758726
0.00289428
0.00101286
0.00266778
0.00137418
0.0031069
0.00184871
0.00150566
0.0016011
0.00150548
-8.93686e-05
0.000269253
0.000661059
-0.000614681
0.00122639
-0.00112539
0.00169644
-0.00122218
0.00209341
-0.00103236
0.00236974
-0.000737165
0.00243129
-0.000328584
0.00244839
-0.000147915
0.00246601
-9.26031e-05
0.00248157
-6.40326e-05
0.00249328
-4.08358e-05
0.00250194
-2.16041e-05
0.00250608
2.52687e-06
0.00249675
5.41936e-05
0.00242281
0.000205595
0.00212045
0.000606651
0.00160087
0.00107737
0.000883037
0.00165034
0.00149612
0.000735018
-0.00574156
0.00189466
-0.00331245
0.00246683
-0.00234376
0.00255448
-0.00102886
0.0025569
-0.000334987
0.00253499
1.63829e-05
0.00249296
0.000218048
0.00244658
0.000340254
0.00240193
0.000429804
0.00235681
0.000520597
0.0023087
0.000638602
0.00226023
0.00080712
0.00222735
0.00104565
0.00223366
0.00136778
0.00224623
0.00183605
0.00166336
0.00218386
0.00316872
0.000625554
-0.000384233
0.00153758
-0.00152688
0.00207275
-0.00166073
0.00235085
-0.00150045
0.00254009
-0.00122177
0.00273361
-0.000930877
0.002405
0.00225707
0.00216447
0.00210046
0.00205967
0.00203812
0.0020407
0.00209493
0.00230053
0.00195185
0.000955142
0.00157814
0.00145086
0.00105108
0.00217714
0.00250498
0.000164361
-0.00604528
0.000888507
-0.00403657
0.00104798
-0.00250324
0.000928219
-0.000909137
0.000856109
-0.000262939
0.000842158
3.02565e-05
0.000879311
0.00018081
0.00094955
0.000269926
0.00103775
0.000341516
0.00113632
0.000421933
0.0012449
0.000529919
0.00136867
0.000683253
0.00151866
0.000895571
0.00170908
0.00117725
0.00199368
0.00155135
0.00240183
0.0017756
0.00372777
0.00184265
0.00320146
0.000493831
0.00352669
-0.000709602
0.00320913
-0.00120947
0.00298624
-0.00143798
0.00283747
-0.00135184
0.0027231
-0.00110758
0.00255646
-0.000764429
0.00284272
-0.000286603
0.00292831
-8.59346e-05
0.0029249
3.08424e-06
0.00286153
6.30627e-05
0.00274454
0.000116706
0.00257294
0.000171335
0.00233576
0.00023694
0.00200516
0.000330387
0.00151607
0.000488884
0.00151692
0.000954153
0.00143445
0.00153311
0.00132107
0.00229025
0.00377036
-0.000394317
-0.00583019
-0.000351776
-0.00407909
-0.000342153
-0.00251287
-0.000431179
-0.000820165
-0.000484266
-0.000209934
-0.000455596
1.48749e-06
-0.000356078
8.11929e-05
-0.000208805
0.000122555
-3.01963e-05
0.000162811
0.000168527
0.000223115
0.000383961
0.000314391
0.000623223
0.000443894
0.000902374
0.00061632
0.00125593
0.000823585
0.00175537
0.00105181
0.00238282
0.00114804
0.00316899
0.00105637
0.00347078
0.000191919
0.00335303
-0.00059197
0.00313686
-0.000993412
0.00284575
-0.001147
0.00257513
-0.00108135
0.00234362
-0.000876224
0.00216923
-0.000590206
0.00215178
-0.000269322
0.00211166
-4.59825e-05
0.00203243
8.21629e-05
0.0019332
0.000162153
0.00182136
0.000228418
0.00169435
0.000298221
0.0015468
0.000384376
0.00137652
0.000500552
0.00120592
0.000659385
0.00119735
0.000962574
0.00139591
0.00133432
0.00210562
0.00158026
0.00347392
0.0024017
0.00173302
0.00174031
-4.59539e-05
0.00177818
-0.00010834
-0.000991084
-0.00505841
-0.00120296
-0.00386719
-0.00117886
-0.00253697
-0.00126593
-0.000733137
-0.0013083
-0.000167635
-0.00127143
-3.54645e-05
-0.0011574
-3.29229e-05
-0.000981261
-5.36607e-05
-0.000762693
-5.58328e-05
-0.000517117
-2.25309e-05
-0.000249017
4.62259e-05
5.04683e-05
0.000144344
0.000392015
0.000274706
0.000793752
0.000421775
0.00129132
0.000554161
0.00185279
0.000586492
0.0024641
0.000444977
0.00270395
-4.8011e-05
0.00261536
-0.00050345
0.00239798
-0.000776109
0.00210942
-0.000858538
0.00181443
-0.00078648
0.00155224
-0.000614153
0.00135084
-0.000388952
0.00123304
-0.000151669
0.00115218
3.47265e-05
0.00108135
0.000152855
0.0010144
0.000228946
0.000948332
0.000294335
0.000881162
0.000365231
0.000814245
0.000451124
0.000756029
0.000558594
0.000725415
0.000689818
0.000804591
0.000883196
0.00101826
0.00112041
0.00130342
0.00129481
0.00150801
0.00219676
0.000874845
0.00237304
-0.000133232
0.00278577
-0.000304866
-0.00152502
-0.00379215
-0.00192528
-0.0034669
-0.00180277
-0.00265946
-0.00182051
-0.0007154
-0.00182539
-0.000162792
-0.00177161
-8.92738e-05
-0.00164312
-0.00016145
-0.00144891
-0.000247887
-0.00121361
-0.000291148
-0.000956401
-0.000279747
-0.000683652
-0.000226529
-0.000391085
-0.000148227
-6.25214e-05
-5.38628e-05
0.000308307
5.09332e-05
0.000721609
0.000140842
0.00114744
0.000160638
0.00152381
6.85897e-05
0.00164956
-0.00017379
0.00156389
-0.000417812
0.00135031
-0.000562577
0.00107502
-0.000583322
0.000790784
-0.000502335
0.00053939
-0.000362869
0.000348426
-0.000198116
0.000229533
-3.29147e-05
0.000166865
9.72441e-05
0.000134937
0.00018462
0.000113167
0.000250536
9.57358e-05
0.000311568
8.34803e-05
0.000377267
8.14367e-05
0.000452927
9.86015e-05
0.000541171
0.000146087
0.000642062
0.000258112
0.000770891
0.000426977
0.000951247
0.000560155
0.0011613
0.000663929
0.0020926
0.000379359
0.00265716
-0.00015657
0.00332121
-0.000520011
-0.00204554
-0.002043
-0.00286382
-0.00264856
-0.00254984
-0.00297339
-0.00220624
-0.00105898
-0.00209704
-0.000271971
-0.00202158
-0.000164723
-0.0018805
-0.000302514
-0.00168198
-0.000446374
-0.00145768
-0.000515416
-0.00123037
-0.000507011
-0.0010088
-0.000448065
-0.000788892
-0.000368089
-0.000558534
-0.000284177
-0.000304217
-0.000203338
-2.75962e-05
-0.000135735
0.000233679
-0.000100601
0.000426127
-0.000123835
0.000469491
-0.000217151
0.000366354
-0.00031469
0.000160994
-0.000357254
-9.07579e-05
-0.000331628
-0.000336197
-0.000256977
-0.000538149
-0.00016102
-0.000680309
-5.60773e-05
-0.000757248
4.38857e-05
-0.000783325
0.000123152
-0.000782619
0.000183719
-0.000768274
0.000235969
-0.000743237
0.000286281
-0.000705007
0.00033876
-0.000648422
0.000396039
-0.000567093
0.000459517
-0.000455654
0.000530284
-0.000305588
0.000620477
-0.000116388
0.000761691
9.86576e-05
0.000945869
0.000509995
0.00168084
0.000796213
0.00237045
0.0018357
0.00228121
0.000979585
-0.00242411
-0.00511547
-0.0029747
-0.0051141
-0.00197314
-0.00206047
-0.00198429
-0.000260773
-0.00198695
-0.000161999
-0.00188483
-0.000404568
-0.00174153
-0.000589606
-0.00159164
-0.000665245
-0.00144758
-0.000651014
-0.00131847
-0.000577111
-0.00120231
-0.000484192
-0.00109301
-0.000393416
-0.000984155
-0.000312137
-0.000875582
-0.000244257
-0.000779585
-0.000196557
-0.000724618
-0.000178775
-0.000751058
-0.000190702
-0.000864886
-0.000200873
-0.00103751
-0.00018466
-0.00122844
-0.000140759
-0.00140269
-8.28013e-05
-0.00154015
-2.36518e-05
-0.00162987
3.35171e-05
-0.00166997
8.38248e-05
-0.00167347
0.00012647
-0.00165391
0.000163943
-0.00161635
0.000198161
-0.00156065
0.000230311
-0.00148374
0.000261543
-0.00138113
0.000293109
-0.00124862
0.000326658
-0.0010846
0.000365888
-0.000886885
0.000422385
-0.000640269
0.000514682
-0.000334958
0.000640149
0.000325119
0.00102032
0.00101262
0.00168245
0.00183632
0.00145696
0.00246179
0.000491304
-0.00116132
-0.00121991
-0.000349173
-0.00156609
8.55124e-05
-0.00161387
-0.000114107
-0.00160004
-0.000418282
-0.00158535
-0.000604187
-0.00157762
-0.000672891
-0.00157696
-0.00065161
-0.00158837
-0.00056563
-0.00160648
-0.000466019
-0.00162666
-0.000373172
-0.00164692
-0.000291812
-0.00166836
-0.000222766
-0.00169691
-0.00016797
-0.00174473
-0.000130921
-0.00182539
-0.000110031
-0.00193815
-8.81234e-05
-0.00206493
-5.79152e-05
-0.00218462
-2.11213e-05
-0.00228362
1.6131e-05
-0.00235523
4.78541e-05
-0.00239658
7.47466e-05
-0.00241099
9.80756e-05
-0.00240482
0.000120125
-0.00238165
0.00014056
-0.00234239
0.000158666
-0.00228599
0.000173644
-0.00220962
0.000184885
-0.00210912
0.000192295
-0.00198012
0.000197319
-0.00181915
0.000204562
-0.00161976
0.000222613
-0.00137181
0.000266346
-0.00111758
0.000385519
-0.000853002
0.000755307
-0.000571413
0.00140037
-9.80768e-05
0.000983091
0.00230166
-0.00118265
-3.80648e-05
-0.00152085
-1.08016e-05
-0.00122312
-0.000212047
-0.00101217
-0.000324864
-0.00102317
-0.000407084
-0.00112223
-0.00050495
-0.00123709
-0.000557933
-0.001426
-0.000462624
-0.00162189
-0.000369671
-0.00179992
-0.000287925
-0.00195427
-0.00021876
-0.00208566
-0.000160359
-0.00219784
-0.000110535
-0.00229742
-6.83469e-05
-0.00239417
-3.41448e-05
-0.00249615
-8.03504e-06
-0.00259764
1.3356e-05
-0.0026882
3.26152e-05
-0.00275882
4.9447e-05
-0.00280723
6.44661e-05
-0.00283761
7.81344e-05
-0.00285187
8.88846e-05
-0.00285198
9.80415e-05
-0.00283894
0.000106914
-0.00281441
0.000115833
-0.00278079
0.000124823
-0.00274133
0.000133941
-0.00270006
0.000143344
-0.00266135
0.000153289
-0.00262853
0.000164172
-0.00260012
0.000175814
-0.00256299
0.000185133
-0.00248694
0.000189916
-0.00232701
0.000225191
-0.00198493
0.000412804
-0.00133056
0.000745531
-0.000999147
0.000651177
0.00122434
-0.00216357
0.00212779
0.00192842
0.00180932
0.00150085
0.00108311
0.000585187
-8.40271e-06
-0.000652919
-0.00120126
-0.00165616
-0.00202903
-0.00233256
-0.00257759
-0.00277277
-0.00292583
-0.00304488
-0.00313815
-0.00321037
-0.00326374
-0.00330069
-0.00332301
-0.00333198
-0.00333046
-0.00332
-0.00330084
-0.00327292
-0.00323621
-0.00319067
-0.00313617
-0.0030724
-0.00299872
-0.00291464
-0.0028225
-0.00272618
-0.0025934
-0.00226933
-0.00160727
-0.00103676
)
;

boundaryField
{
    floor
    {
        type            calculated;
        value           nonuniform List<scalar> 
29
(
0
0
0
0
0
0
0
0
0
0
0
0
0
0
0
0
0
0
0
0
9.18525e-06
2.60897e-05
4.18768e-05
5.53333e-05
4.87187e-06
7.28262e-06
1.67401e-05
2.77212e-05
3.23454e-05
)
;
    }
    ceiling
    {
        type            calculated;
        value           nonuniform List<scalar> 
43
(
0.000190177
0.00021856
0.000161853
0.00010873
9.67952e-05
9.32193e-05
9.11743e-05
8.89964e-05
8.66955e-05
8.57808e-05
8.52986e-05
8.50175e-05
8.48425e-05
8.47362e-05
8.46989e-05
8.47544e-05
8.49321e-05
8.52338e-05
8.55734e-05
8.59491e-05
8.63447e-05
8.6707e-05
8.70068e-05
8.72482e-05
8.74369e-05
8.75882e-05
8.7731e-05
8.79061e-05
8.81689e-05
8.85905e-05
8.92489e-05
9.0202e-05
9.14236e-05
9.26703e-05
9.32604e-05
9.20523e-05
8.83499e-05
8.30731e-05
8.02351e-05
8.7572e-05
4.64497e-05
4.2862e-05
5.95426e-05
)
;
    }
    sWall
    {
        type            calculated;
        value           uniform 0.000248574;
    }
    nWall
    {
        type            calculated;
        value           nonuniform List<scalar> 6(6.19056e-05 6.28933e-05 5.80399e-05 6.14579e-05 7.76119e-05 9.95453e-05);
    }
    sideWalls
    {
        type            empty;
        value           nonuniform 0();
    }
    glass1
    {
        type            calculated;
        value           nonuniform List<scalar> 9(2.16524e-05 6.11125e-05 9.95792e-05 0.0001394 0.000179269 0.000219351 0.000258801 0.000296444 0.000334726);
    }
    glass2
    {
        type            calculated;
        value           nonuniform List<scalar> 2(0.000335498 0.000353498);
    }
    sun
    {
        type            calculated;
        value           uniform 0;
    }
    heatsource1
    {
        type            calculated;
        value           nonuniform List<scalar> 3(2.01563e-07 2.02054e-07 2.01747e-07);
    }
    heatsource2
    {
        type            calculated;
        value           nonuniform List<scalar> 4(5.07539e-08 5.09387e-08 0 0);
    }
    Table_master
    {
        type            calculated;
        value           nonuniform List<scalar> 9(-1.51609e-07 -1.51769e-07 -1.51815e-07 -1.51841e-07 -1.51858e-07 -1.51867e-07 -1.51868e-07 -1.51843e-07 -1.51765e-07);
    }
    Table_slave
    {
        type            calculated;
        value           nonuniform List<scalar> 9(1.51318e-07 1.51324e-07 1.51296e-07 1.51272e-07 1.51272e-07 1.51293e-07 1.51338e-07 1.51411e-07 1.51524e-07);
    }
    inlet
    {
        type            calculated;
        value           uniform -0.00444402;
    }
    outlet
    {
        type            calculated;
        value           nonuniform List<scalar> 2(0.00172545 -0.00450931);
    }
}


// ************************************************************************* //
