// -*- C++ -*-
// File generated by PyFoam - sorry for the ugliness

FoamFile
{
 version 2.0;
 format ascii;
 class volScalarField;
 location "200";
 object T;
}

dimensions [ 0 0 0 1 0 0 0 ];

internalField nonuniform List<scalar> 459
(
  303.503
  303.265
  303.25
  303.244
  303.238
  303.232
  303.224
  303.214
  303.206
  303.202
  303.202
  303.208
  303.222
  303.248
  303.284
  303.502
  303.47
  303.449
  303.449
  303.46
  303.471
  303.483
  303.494
  303.505
  303.516
  303.527
  303.537
  303.547
  303.557
  303.568
  303.578
  303.589
  303.602
  303.627
  303.647
  303.299
  303.271
  303.266
  303.261
  303.254
  303.237
  303.215
  303.195
  303.181
  303.176
  303.18
  303.193
  303.211
  303.235
  303.244
  303.264
  303.508
  303.428
  303.411
  303.416
  303.43
  303.445
  303.457
  303.468
  303.479
  303.489
  303.498
  303.507
  303.516
  303.525
  303.535
  303.546
  303.56
  303.579
  303.615
  303.802
  303.346
  303.304
  303.304
  303.306
  303.297
  303.267
  303.227
  303.191
  303.167
  303.156
  303.159
  303.17
  303.186
  303.205
  303.221
  303.239
  303.425
  303.384
  303.379
  303.395
  303.421
  303.445
  303.454
  303.463
  303.473
  303.483
  303.492
  303.501
  303.51
  303.519
  303.528
  303.54
  303.554
  303.573
  303.61
  303.963
  303.409
  303.35
  303.358
  303.373
  303.356
  303.302
  303.237
  303.182
  303.15
  303.135
  303.137
  303.149
  303.166
  303.186
  303.205
  303.225
  303.238
  303.264
  303.3
  303.344
  303.392
  303.439
  303.477
  303.509
  303.536
  303.56
  303.581
  303.601
  303.619
  303.635
  303.649
  303.659
  303.626
  303.6
  303.59
  303.614
  304.12
  303.496
  303.421
  303.432
  303.456
  303.404
  303.317
  303.23
  303.163
  303.123
  303.108
  303.112
  303.13
  303.153
  303.179
  303.204
  303.229
  303.257
  303.294
  303.342
  303.397
  303.454
  303.507
  303.553
  303.594
  303.628
  303.656
  303.68
  303.699
  303.712
  303.719
  303.721
  303.714
  303.686
  303.646
  303.616
  303.619
  303.73
  303.795
  303.794
  304.283
  303.634
  303.558
  303.572
  303.527
  303.415
  303.287
  303.179
  303.107
  303.072
  303.069
  303.087
  303.118
  303.155
  303.194
  303.233
  303.272
  303.317
  303.369
  303.427
  303.489
  303.549
  303.603
  303.649
  303.688
  303.72
  303.746
  303.767
  303.78
  303.787
  303.787
  303.78
  303.765
  303.736
  303.694
  303.653
  303.636
  303.681
  303.71
  303.748
  304.499
  303.975
  303.873
  303.743
  303.537
  303.323
  303.151
  303.043
  302.995
  302.994
  303.025
  303.074
  303.131
  303.193
  303.255
  303.311
  303.365
  303.424
  303.487
  303.549
  303.61
  303.666
  303.714
  303.753
  303.785
  303.811
  303.831
  303.845
  303.853
  303.853
  303.846
  303.832
  303.812
  303.782
  303.743
  303.702
  303.677
  303.687
  303.702
  303.732
  304.536
  304.286
  304.051
  303.603
  303.173
  302.903
  302.787
  302.781
  302.839
  302.927
  303.024
  303.124
  303.219
  303.304
  303.376
  303.439
  303.499
  303.563
  303.628
  303.689
  303.741
  303.786
  303.822
  303.851
  303.872
  303.888
  303.9
  303.906
  303.907
  303.902
  303.892
  303.876
  303.855
  303.827
  303.796
  303.765
  303.75
  303.763
  303.778
  303.874
  303.423
  301.006
  299.059
  299.846
  300.8
  301.597
  302.178
  302.581
  302.864
  303.069
  303.217
  303.312
  303.392
  303.465
  303.53
  303.59
  303.649
  303.708
  303.764
  303.815
  303.856
  303.889
  303.913
  303.93
  303.942
  303.948
  303.949
  303.946
  303.939
  303.93
  303.92
  303.911
  303.903
  303.899
  303.903
  303.917
  303.941
  303.967
  303.985
  304.034
  297.392
  299.881
  301.787
  302.518
  302.859
  303.08
  303.227
  303.338
  303.429
  303.503
  303.569
  303.63
  303.687
  303.741
  303.792
  303.84
  303.884
  303.921
  303.949
  303.969
  303.981
  303.988
  303.991
  303.989
  303.984
  303.977
  303.969
  303.961
  303.953
  303.946
  303.942
  303.942
  303.948
  303.961
  303.981
  304.006
  304.038
  304.09
  302.322
  302.573
  302.952
  303.193
  303.336
  303.429
  303.505
  303.571
  303.631
  303.687
  303.74
  303.788
  303.834
  303.876
  303.915
  303.95
  303.978
  304
  304.015
  304.023
  304.026
  304.026
  304.022
  304.017
  304.01
  304.003
  303.995
  303.988
  303.981
  303.975
  303.971
  303.969
  303.971
  303.978
  303.991
  304.014
  304.03
  304.072
  303.272
  303.203
  303.192
  303.46
  303.572
  303.635
  303.684
  303.726
  303.767
  303.807
  303.845
  303.882
  303.917
  303.948
  303.976
  303.999
  304.019
  304.033
  304.044
  304.049
  304.051
  304.05
  304.047
  304.042
  304.037
  304.031
  304.024
  304.018
  304.012
  304.006
  304.001
  303.996
  303.991
  303.988
  303.986
  303.99
  303.997
  304.007
  304.018
  304.071
)
;

boundaryField
{
  floor
  {
    type wallHeatTransfer;
    Tinf uniform 305.2;
    alphaWall uniform 0.24;
    value nonuniform List<scalar> 29
(
  303.502
  303.813
  303.75
  303.703
  303.692
  303.702
  303.718
  303.741
  303.767
  303.792
  303.817
  303.841
  303.864
  303.886
  303.907
  303.928
  303.949
  303.972
  303.995
  304.038
  304.038
  303.98
  303.948
  303.93
  303.502
  303.813
  303.819
  303.651
  303.397
)
;
  }
  ceiling
  {
    type wallHeatTransfer;
    Tinf uniform 303.2;
    alphaWall uniform 0.24;
    value nonuniform List<scalar> 43
(
  303.267
  303.203
  303.192
  303.442
  303.546
  303.604
  303.648
  303.687
  303.723
  303.757
  303.791
  303.822
  303.851
  303.876
  303.899
  303.918
  303.933
  303.944
  303.951
  303.954
  303.953
  303.951
  303.946
  303.941
  303.935
  303.928
  303.922
  303.915
  303.91
  303.905
  303.902
  303.899
  303.898
  303.898
  303.901
  303.908
  303.915
  303.921
  303.928
  303.97
  303.41
  301.111
  302.371
)
;
  }
  sWall
  {
    type wallHeatTransfer;
    Tinf uniform 315.2;
    alphaWall uniform 0.36;
    value uniform 304.551;
  }
  nWall
  {
    type wallHeatTransfer;
    Tinf uniform 307.2;
    alphaWall uniform 0.36;
    value nonuniform List<scalar> 6
(
  304.445
  304.387
  304.301
  304.532
  304.507
  304.585
)
;
  }
  sideWalls
  {
    type empty;
  }
  glass1
  {
    type wallHeatTransfer;
    Tinf uniform 315.2;
    alphaWall uniform 4.3;
    value nonuniform List<scalar> 9
(
  311.016
  310.467
  310.128
  309.874
  309.664
  309.541
  309.637
  309.703
  309.15
)
;
  }
  glass2
  {
    type wallHeatTransfer;
    Tinf uniform 307.2;
    alphaWall uniform 4.3;
    value nonuniform List<scalar> 2
(
  305.955
  306.052
)
;
  }
  sun
  {
    type wallHeatTransfer;
    Tinf uniform 305.2;
    alphaWall uniform 0.24;
    value nonuniform List<scalar> 14
(
  303.655
  303.424
  303.405
  303.393
  303.382
  303.371
  303.36
  303.351
  303.345
  303.344
  303.351
  303.365
  303.394
  303.44
)
;
  }
  heatsource1
  {
    type fixedGradient;
    gradient uniform 0;
  }
  heatsource2
  {
    type fixedGradient;
    gradient uniform 0;
  }
  Table_master
  {
    type zeroGradient;
  }
  Table_slave
  {
    type zeroGradient;
  }
  inlet
  {
    type fixedValue;
    value uniform 293.15;
  }
  outlet
  {
    type zeroGradient;
  }
} 	// ************************************************************************* //

