/*--------------------------------*- C++ -*----------------------------------*\
  =========                 |
  \\      /  F ield         | OpenFOAM: The Open Source CFD Toolbox
   \\    /   O peration     | Website:  https://openfoam.org
    \\  /    A nd           | Version:  6
     \\/     M anipulation  |
\*---------------------------------------------------------------------------*/
FoamFile
{
    version     2.0;
    format      ascii;
    class       volVectorField;
    location    "1600";
    object      U;
}
// * * * * * * * * * * * * * * * * * * * * * * * * * * * * * * * * * * * * * //

dimensions      [0 1 -1 0 0 0 0];

internalField   nonuniform List<vector> 
459
(
(0.0331083 0.0854126 0)
(-0.166022 0.025624 0)
(-0.190537 0.0178379 0)
(-0.221129 0.0123414 0)
(-0.243471 0.00633327 0)
(-0.256726 3.25643e-05 0)
(-0.259569 -0.00661729 0)
(-0.25077 -0.0136202 0)
(-0.230986 -0.0205124 0)
(-0.201648 -0.0262442 0)
(-0.165728 -0.0299733 0)
(-0.126637 -0.0314332 0)
(-0.0876157 -0.0311551 0)
(-0.0534289 -0.030801 0)
(-0.0377888 -0.032114 0)
(-0.00252627 0.00739992 0)
(-0.0222786 -0.0174994 0)
(0.00143156 -0.0261792 0)
(0.0222524 -0.0193815 0)
(0.0378936 -0.0129956 0)
(0.0494318 -0.00828688 0)
(0.0562355 -0.0049687 0)
(0.059626 -0.0032339 0)
(0.0611646 -0.0024801 0)
(0.0619699 -0.00212066 0)
(0.0624844 -0.0018932 0)
(0.0627588 -0.00169991 0)
(0.0627228 -0.00146555 0)
(0.0621662 -0.00101003 0)
(0.0605233 3.76952e-05 0)
(0.0565987 0.00222449 0)
(0.0490767 0.00459603 0)
(0.0413253 0.00665447 0)
(-0.0105355 0.0203418 0)
(0.205509 0.174518 0)
(-0.154286 0.067057 0)
(-0.15253 0.0521183 0)
(-0.18377 0.0406755 0)
(-0.205582 0.0278757 0)
(-0.218794 0.0137113 0)
(-0.222065 -0.00208058 0)
(-0.213969 -0.01907 0)
(-0.195685 -0.0351496 0)
(-0.169022 -0.0478154 0)
(-0.137178 -0.0552785 0)
(-0.103567 -0.0570698 0)
(-0.0714118 -0.0538717 0)
(-0.0444728 -0.0472781 0)
(-0.0273739 -0.0384586 0)
(-0.0138094 -0.0188774 0)
(-0.00721333 0.0131172 0)
(0.0602093 0.0312311 0)
(0.0315859 -0.0198188 0)
(0.0385637 -0.0304912 0)
(0.049293 -0.0258039 0)
(0.0576789 -0.0177167 0)
(0.0632038 -0.0103511 0)
(0.0653663 -0.00426626 0)
(0.0656684 -0.000893524 0)
(0.0655813 0.000556502 0)
(0.0656624 0.0012245 0)
(0.0658236 0.0016356 0)
(0.0659403 0.0020086 0)
(0.06597 0.00248951 0)
(0.0658574 0.00342819 0)
(0.0650715 0.00570945 0)
(0.0611949 0.012012 0)
(0.051448 0.017381 0)
(0.0451757 0.0212179 0)
(-0.0440461 0.0439537 0)
(0.36346 0.260778 0)
(-0.170078 0.106351 0)
(-0.113935 0.0838704 0)
(-0.143734 0.0635127 0)
(-0.162702 0.0425113 0)
(-0.174537 0.0195982 0)
(-0.177083 -0.00600946 0)
(-0.168081 -0.0331432 0)
(-0.149779 -0.0580489 0)
(-0.124743 -0.0766691 0)
(-0.096459 -0.0866042 0)
(-0.0678934 -0.0877342 0)
(-0.0413426 -0.0812162 0)
(-0.0190181 -0.0686206 0)
(-0.00276085 -0.0509915 0)
(0.0097017 -0.0253817 0)
(0.0164495 0.00890821 0)
(0.105528 -0.0393072 0)
(0.0728714 -0.0431466 0)
(0.06893 -0.0393492 0)
(0.071104 -0.0314751 0)
(0.0726333 -0.0223191 0)
(0.0734336 -0.0146498 0)
(0.0716866 -0.011954 0)
(0.0677153 -0.00856212 0)
(0.0649881 -0.00672336 0)
(0.0637586 -0.00568035 0)
(0.0632153 -0.0050271 0)
(0.0629442 -0.00456528 0)
(0.0629875 -0.00411755 0)
(0.0638186 -0.00331445 0)
(0.0666411 -0.000196885 0)
(0.0645917 0.0169881 0)
(0.051328 0.0291615 0)
(0.0508412 0.0377893 0)
(-0.0735569 0.0690224 0)
(0.505549 0.329959 0)
(-0.203505 0.140994 0)
(-0.0737174 0.11042 0)
(-0.101281 0.0824069 0)
(-0.11441 0.0554768 0)
(-0.122279 0.0255216 0)
(-0.121146 -0.00955399 0)
(-0.108818 -0.0472071 0)
(-0.0896928 -0.0801592 0)
(-0.0670381 -0.10317 0)
(-0.0440731 -0.114035 0)
(-0.0225985 -0.11376 0)
(-0.00339708 -0.104144 0)
(0.0129853 -0.0869339 0)
(0.0263907 -0.0650339 0)
(0.0407199 -0.0390715 0)
(0.0628052 -0.0125092 0)
(0.0933071 -4.53062e-05 0)
(0.100985 -0.033014 0)
(0.0874546 -0.0382514 0)
(0.0789211 -0.0339965 0)
(0.0747816 -0.0276952 0)
(0.0720895 -0.0203005 0)
(0.0708342 -0.0117347 0)
(0.0725953 -0.00688753 0)
(0.0766924 -0.00545483 0)
(0.0800812 -0.00464951 0)
(0.0823804 -0.00401993 0)
(0.0837809 -0.00319974 0)
(0.0837166 -0.0019389 0)
(0.0811369 -2.19983e-05 0)
(0.0748063 0.00284113 0)
(0.0619386 0.00717649 0)
(0.0510048 0.0273873 0)
(0.0403411 0.044142 0)
(0.0537589 0.0576431 0)
(-0.104076 0.0918057 0)
(0.627557 0.38346 0)
(-0.244308 0.169223 0)
(-0.0346719 0.125074 0)
(-0.0572119 0.0925882 0)
(-0.0619678 0.0623516 0)
(-0.0627284 0.0275134 0)
(-0.051837 -0.0161943 0)
(-0.0339344 -0.0631176 0)
(-0.0150105 -0.10066 0)
(0.00269456 -0.124451 0)
(0.0171945 -0.133175 0)
(0.0285677 -0.129882 0)
(0.0373375 -0.117617 0)
(0.0442171 -0.0989181 0)
(0.0503406 -0.0764561 0)
(0.0576796 -0.0528754 0)
(0.0688227 -0.0336079 0)
(0.0792674 -0.0289393 0)
(0.0808506 -0.0347241 0)
(0.0743289 -0.0334674 0)
(0.0663394 -0.0284811 0)
(0.0602523 -0.0229009 0)
(0.0559778 -0.0171648 0)
(0.0537263 -0.0112913 0)
(0.0538497 -0.00619611 0)
(0.0559933 -0.00386797 0)
(0.0583819 -0.00302758 0)
(0.0607054 -0.00231844 0)
(0.0628627 -0.000804574 0)
(0.0644695 0.00205584 0)
(0.0643567 0.00637653 0)
(0.061943 0.0123305 0)
(0.056539 0.0205568 0)
(0.0499863 0.0359354 0)
(0.0409734 0.0544007 0)
(0.0620176 0.0748443 0)
(-0.017219 0.104023 0)
(0.0455663 0.0340509 0)
(-0.0610967 -0.0342607 0)
(-0.268983 -0.0565628 0)
(0.715238 0.428006 0)
(-0.283624 0.188048 0)
(-0.00561118 0.119907 0)
(-0.0118035 0.091692 0)
(-0.00498341 0.0623665 0)
(0.00522549 0.0208206 0)
(0.0338904 -0.033488 0)
(0.0549757 -0.0817093 0)
(0.0698218 -0.116107 0)
(0.0783836 -0.13529 0)
(0.0814318 -0.14045 0)
(0.0804536 -0.134307 0)
(0.0768182 -0.119894 0)
(0.0719308 -0.100204 0)
(0.0672677 -0.0781375 0)
(0.0641898 -0.0563804 0)
(0.0635861 -0.0386426 0)
(0.0631021 -0.0294898 0)
(0.0590673 -0.0271164 0)
(0.0514643 -0.0249137 0)
(0.0432456 -0.0212652 0)
(0.0366777 -0.0172733 0)
(0.0321834 -0.0134075 0)
(0.0299253 -0.00972815 0)
(0.0298715 -0.00691182 0)
(0.0315517 -0.00599589 0)
(0.0340468 -0.00598561 0)
(0.037016 -0.00570658 0)
(0.0402983 -0.00419033 0)
(0.0436759 -0.000587678 0)
(0.0466479 0.00536553 0)
(0.0482011 0.0133708 0)
(0.0485466 0.0236204 0)
(0.0490977 0.0378816 0)
(0.0484114 0.0557634 0)
(0.0704161 0.0785507 0)
(0.0523075 0.0970302 0)
(0.0915869 0.0681765 0)
(0.114545 0.0445934 0)
(-0.127936 -0.00713131 0)
(0.76804 0.468626 0)
(-0.302194 0.173432 0)
(0.0220534 0.0677219 0)
(0.049453 0.0629943 0)
(0.0701292 0.0440666 0)
(0.102972 -0.00348869 0)
(0.134762 -0.0571616 0)
(0.153125 -0.0982258 0)
(0.159189 -0.124026 0)
(0.155032 -0.135533 0)
(0.143278 -0.134888 0)
(0.126786 -0.124937 0)
(0.108098 -0.108582 0)
(0.0893658 -0.088747 0)
(0.0723428 -0.0680253 0)
(0.0581356 -0.0484791 0)
(0.0472565 -0.0327488 0)
(0.0385982 -0.0232035 0)
(0.0301762 -0.0188817 0)
(0.0216318 -0.0164781 0)
(0.0139725 -0.0141662 0)
(0.00816855 -0.0120159 0)
(0.00441247 -0.0101804 0)
(0.00269254 -0.00867638 0)
(0.00283634 -0.00789199 0)
(0.00434289 -0.00818837 0)
(0.00660616 -0.00891544 0)
(0.0094107 -0.0092327 0)
(0.0128073 -0.0082779 0)
(0.0169245 -0.00505438 0)
(0.0226914 0.00139388 0)
(0.0284085 0.0101668 0)
(0.0338526 0.02051 0)
(0.0408452 0.0330988 0)
(0.0486631 0.0476912 0)
(0.0704432 0.0660248 0)
(0.0840858 0.0742923 0)
(0.115986 0.0523116 0)
(0.155455 0.0439955 0)
(-0.0359189 0.0926418 0)
(0.872809 0.469997 0)
(-0.0644798 0.152105 0)
(0.109938 -0.0138949 0)
(0.181682 -0.0410449 0)
(0.212216 -0.0526891 0)
(0.243718 -0.0752117 0)
(0.261543 -0.0975114 0)
(0.262378 -0.113399 0)
(0.247805 -0.120902 0)
(0.221899 -0.120067 0)
(0.189155 -0.11212 0)
(0.153608 -0.0988733 0)
(0.118406 -0.0820853 0)
(0.0859419 -0.0639498 0)
(0.0578294 -0.0463929 0)
(0.0346886 -0.0306164 0)
(0.0173122 -0.0187546 0)
(0.00478083 -0.0121116 0)
(-0.00482909 -0.00950527 0)
(-0.0121636 -0.00871678 0)
(-0.0179718 -0.00829575 0)
(-0.0221911 -0.00807733 0)
(-0.0249341 -0.00806505 0)
(-0.026353 -0.00830073 0)
(-0.0266856 -0.0089502 0)
(-0.0263432 -0.0100651 0)
(-0.0257046 -0.0113273 0)
(-0.0248725 -0.0122888 0)
(-0.0236885 -0.0124415 0)
(-0.0217587 -0.0112046 0)
(-0.0181114 -0.00784756 0)
(-0.00948078 -0.00167233 0)
(-0.00120219 0.0062909 0)
(0.00930088 0.0144184 0)
(0.0209463 0.02142 0)
(0.0406389 0.0286731 0)
(0.0595631 0.0221642 0)
(0.0794718 -0.00482771 0)
(0.13803 0.0392548 0)
(-0.405001 0.202663 0)
(1.01969 0.423087 0)
(0.4851 0.279611 0)
(0.499955 0.183094 0)
(0.526357 0.11182 0)
(0.507372 0.0605164 0)
(0.465496 0.0133527 0)
(0.416768 -0.025971 0)
(0.363229 -0.0529083 0)
(0.305171 -0.0666681 0)
(0.245497 -0.0692565 0)
(0.187672 -0.0640471 0)
(0.134295 -0.0542035 0)
(0.0869363 -0.0416083 0)
(0.0471561 -0.0284824 0)
(0.0150415 -0.0166394 0)
(-0.0104401 -0.00715091 0)
(-0.0254369 -0.00290219 0)
(-0.0346831 -0.00186099 0)
(-0.0408936 -0.00235858 0)
(-0.0456984 -0.00334892 0)
(-0.0496179 -0.00436272 0)
(-0.0527967 -0.00536591 0)
(-0.0553478 -0.00636599 0)
(-0.0574363 -0.00740405 0)
(-0.0593111 -0.00853628 0)
(-0.0613252 -0.00974455 0)
(-0.0638238 -0.0108233 0)
(-0.0670972 -0.0113993 0)
(-0.0714559 -0.0109348 0)
(-0.0773244 -0.0087348 0)
(-0.0852457 -0.00398358 0)
(-0.0951751 0.00387406 0)
(-0.105308 0.0143178 0)
(-0.120099 0.0275863 0)
(-0.143315 0.0438038 0)
(-0.17746 0.0619176 0)
(-0.225865 0.0780794 0)
(-0.281514 0.0897349 0)
(-0.349486 0.0968248 0)
(-0.609157 0.0999151 0)
(-0.150921 0.00202052 0)
(0.121412 0.00181028 0)
(0.200606 -0.0315264 0)
(0.18759 -0.0416837 0)
(0.171517 -0.0398575 0)
(0.149447 -0.0350863 0)
(0.120007 -0.0289623 0)
(0.0862707 -0.0216345 0)
(0.0517496 -0.0135726 0)
(0.0169049 -0.00539009 0)
(-0.0165984 0.00222698 0)
(-0.03902 0.00655014 0)
(-0.0544906 0.00889678 0)
(-0.0637439 0.00939951 0)
(-0.0688613 0.00857014 0)
(-0.0724123 0.00763843 0)
(-0.0752144 0.0068796 0)
(-0.0776873 0.00629547 0)
(-0.0801589 0.0057982 0)
(-0.0827622 0.00513106 0)
(-0.0854758 0.00437218 0)
(-0.0883823 0.00353178 0)
(-0.0916082 0.00265807 0)
(-0.0952959 0.00186749 0)
(-0.0995219 0.00140413 0)
(-0.104281 0.00159392 0)
(-0.109498 0.00277652 0)
(-0.114996 0.00525306 0)
(-0.120165 0.00954373 0)
(-0.124281 0.0165451 0)
(-0.1277 0.0273662 0)
(-0.130635 0.0423916 0)
(-0.133753 0.06081 0)
(-0.137487 0.079216 0)
(-0.13879 0.0881102 0)
(-0.121381 0.0670342 0)
(-0.0785149 -0.023094 0)
(-0.27402 -0.198318 0)
(0.0153725 0.194651 0)
(0.0413143 0.0704106 0)
(0.000374322 0.00595388 0)
(-0.0125921 -0.00214123 0)
(-0.0259056 -0.000186367 0)
(-0.0408028 8.94117e-05 0)
(-0.0570714 0.00117267 0)
(-0.072578 0.00342493 0)
(-0.0848238 0.00555918 0)
(-0.0915759 0.00593301 0)
(-0.0958942 0.00404381 0)
(-0.0976796 6.39881e-05 0)
(-0.09797 -0.00445482 0)
(-0.0974123 -0.00931399 0)
(-0.0969126 -0.0145097 0)
(-0.0970084 -0.0195803 0)
(-0.0977286 -0.0242411 0)
(-0.0989784 -0.0282363 0)
(-0.100634 -0.0313707 0)
(-0.102618 -0.0335328 0)
(-0.104986 -0.0348626 0)
(-0.107639 -0.035319 0)
(-0.110476 -0.0348541 0)
(-0.113416 -0.0336622 0)
(-0.116346 -0.0317841 0)
(-0.119037 -0.0289966 0)
(-0.121115 -0.0248838 0)
(-0.122104 -0.0188384 0)
(-0.121576 -0.0109383 0)
(-0.118652 -0.000870251 0)
(-0.111967 0.0120923 0)
(-0.100245 0.0285962 0)
(-0.0830446 0.0481539 0)
(-0.0611191 0.0668507 0)
(-0.0373306 0.0777674 0)
(0.0024875 0.0619161 0)
(0.142719 -0.00822922 0)
(-0.204924 -0.108512 0)
(-0.0435402 -0.31987 0)
(-0.413216 -0.123199 0)
(-0.301256 0.064379 0)
(-0.24978 -0.0172785 0)
(-0.209957 -0.0227114 0)
(-0.198674 -0.0117344 0)
(-0.194207 -0.00208566 0)
(-0.190742 0.00590501 0)
(-0.186234 0.0134056 0)
(-0.179775 0.0208645 0)
(-0.171189 0.0283616 0)
(-0.160789 0.0357988 0)
(-0.149712 0.0430127 0)
(-0.139119 0.0499866 0)
(-0.129805 0.0569943 0)
(-0.122045 0.0639949 0)
(-0.115882 0.0709469 0)
(-0.111145 0.077621 0)
(-0.107598 0.0836133 0)
(-0.105038 0.0885314 0)
(-0.103286 0.0921265 0)
(-0.102186 0.0942847 0)
(-0.101645 0.0950605 0)
(-0.10162 0.0944 0)
(-0.102065 0.0922721 0)
(-0.102902 0.0890741 0)
(-0.104006 0.0851044 0)
(-0.105163 0.0804741 0)
(-0.105989 0.0752374 0)
(-0.105811 0.0694949 0)
(-0.103367 0.0645065 0)
(-0.096827 0.0611804 0)
(-0.0838266 0.060393 0)
(-0.0625748 0.06309 0)
(-0.0335307 0.0697943 0)
(0.0121602 0.0795954 0)
(0.0551205 0.0805515 0)
(0.0958907 0.0678273 0)
(0.160934 0.0421581 0)
(-0.231874 -0.00793248 0)
)
;

boundaryField
{
    floor
    {
        type            noSlip;
    }
    ceiling
    {
        type            noSlip;
    }
    sWall
    {
        type            noSlip;
    }
    nWall
    {
        type            noSlip;
    }
    sideWalls
    {
        type            empty;
    }
    glass1
    {
        type            noSlip;
    }
    glass2
    {
        type            noSlip;
    }
    sun
    {
        type            noSlip;
    }
    heatsource1
    {
        type            noSlip;
    }
    heatsource2
    {
        type            noSlip;
    }
    Table_master
    {
        type            noSlip;
    }
    Table_slave
    {
        type            noSlip;
    }
    inlet
    {
        type            fixedValue;
        value           uniform (0.277164 -0.114805 0);
    }
    outlet
    {
        type            zeroGradient;
    }
}


// ************************************************************************* //
