/*--------------------------------*- C++ -*----------------------------------*\
  =========                 |
  \\      /  F ield         | OpenFOAM: The Open Source CFD Toolbox
   \\    /   O peration     | Website:  https://openfoam.org
    \\  /    A nd           | Version:  6
     \\/     M anipulation  |
\*---------------------------------------------------------------------------*/
FoamFile
{
    version     2.0;
    format      ascii;
    class       volScalarField;
    location    "1600";
    object      epsilon;
}
// * * * * * * * * * * * * * * * * * * * * * * * * * * * * * * * * * * * * * //

dimensions      [0 2 -3 0 0 0 0];

internalField   nonuniform List<scalar> 
459
(
0.00403741
0.00325639
0.00266355
0.00223218
0.00190497
0.00164173
0.0014155
0.0012101
0.00101341
0.000814904
0.000575728
0.000279602
0.000183505
0.000180311
0.000182526
2.06333e-06
2.71315e-06
2.08585e-06
1.77574e-06
1.626e-06
1.41093e-06
1.18784e-06
1.26071e-06
1.6181e-06
2.18001e-06
2.88987e-06
3.57323e-06
3.70363e-06
3.55733e-06
4.14044e-06
5.18476e-06
4.97671e-06
5.71532e-06
5.58617e-06
0.0066594
0.00420701
0.00285204
0.0020295
0.00154045
0.00123754
0.00104245
0.000919565
0.000847595
0.000808195
0.000710383
0.000379555
0.000220131
0.000186789
0.00015308
0.000175721
9.22275e-05
1.08624e-05
1.57629e-05
9.48357e-06
6.98206e-06
5.29161e-06
4.66221e-06
4.56327e-06
5.97986e-06
8.05563e-06
1.04891e-05
1.28394e-05
1.49136e-05
1.77204e-05
2.25959e-05
3.01953e-05
3.7699e-05
4.18277e-05
6.25566e-05
2.60799e-05
0.00949396
0.00555555
0.00322319
0.00198543
0.00135503
0.00100385
0.000805431
0.000707054
0.000683994
0.000721293
0.0006805
0.00043742
0.000316778
0.00024212
0.000168753
0.000161075
0.000199256
6.60763e-05
5.95799e-05
4.03764e-05
3.11395e-05
2.43563e-05
1.88034e-05
9.52633e-06
1.23625e-05
1.63548e-05
2.16538e-05
2.88518e-05
3.89586e-05
5.38578e-05
7.77457e-05
0.000118656
8.10678e-05
0.000100735
0.000174325
7.36361e-05
0.0127843
0.00734891
0.00346758
0.00171525
0.000990893
0.000685948
0.00055996
0.000522998
0.000550895
0.000631921
0.000620552
0.000487949
0.000413691
0.00028178
0.000191174
0.000168414
0.000167369
0.000192403
8.70845e-05
7.75489e-05
6.9411e-05
7.25893e-05
8.23753e-05
9.86901e-05
0.000126311
0.000125254
0.00012429
0.000124121
0.000125645
0.000129693
0.000137426
0.000151141
0.000175646
8.85924e-05
9.78183e-05
0.000116309
0.000126915
0.0169421
0.0101047
0.00362586
0.00128508
0.000573808
0.000393818
0.000362946
0.000385119
0.000454091
0.000547714
0.000556749
0.000504952
0.000441229
0.00029109
0.000218263
0.000202737
0.000186544
0.000156571
0.000120958
0.000106467
0.000103958
0.000106873
0.00011147
0.000113426
0.000112822
0.000109705
0.000106345
0.000103528
0.000101738
0.000101308
0.000102524
0.000105701
0.000110642
0.000113987
0.000120531
0.000128562
0.00014272
0.000172723
0.000159459
0.000155507
0.0226033
0.0149948
0.0036718
0.000675555
0.00032873
0.000250692
0.000255247
0.000303929
0.000386708
0.000473509
0.000491601
0.000481658
0.000421248
0.000298496
0.000277687
0.000311052
0.000332778
0.000323778
0.000298177
0.000273525
0.00025973
0.000251114
0.00024194
0.000231826
0.000220132
0.000207518
0.000195601
0.000185296
0.00017704
0.000171045
0.000167479
0.000166735
0.00016948
0.000175483
0.000182447
0.000187476
0.000190037
0.0001912
0.000204022
0.000266773
0.0309484
0.0250965
0.004028
0.000755193
0.000357614
0.000238597
0.000227609
0.000274295
0.000352073
0.000422155
0.00043135
0.000432238
0.00038029
0.000296007
0.000334667
0.000431173
0.000518493
0.000565791
0.000576863
0.000567767
0.00054886
0.000523146
0.000492667
0.000459443
0.00042527
0.000392247
0.000362414
0.000336858
0.000315886
0.000299457
0.000287567
0.000280627
0.000279359
0.000283287
0.000289119
0.000292485
0.000290519
0.000287736
0.000308567
0.000407965
0.0449259
0.0509087
0.0166532
0.00162739
0.000675536
0.000412397
0.000325449
0.000328437
0.000378534
0.000417158
0.000394823
0.000379991
0.000336044
0.000276945
0.000371707
0.000534506
0.000700629
0.000836865
0.000927244
0.000973628
0.000980921
0.000954856
0.000904664
0.000840849
0.000772404
0.000706128
0.000646409
0.000595246
0.000552992
0.00051923
0.000493484
0.000475802
0.000466681
0.000465506
0.000468845
0.000471174
0.000466541
0.000456918
0.000473112
0.000597175
0.0740791
0.138779
0.172035
0.0181864
0.00325277
0.00164702
0.000990986
0.000685692
0.000600406
0.000534961
0.00042339
0.000370302
0.00031654
0.000279956
0.000351827
0.00055354
0.000816792
0.00108091
0.00130744
0.00147244
0.00156223
0.00157702
0.00153103
0.00144538
0.0013406
0.00123264
0.00113184
0.00104357
0.000969666
0.000910037
0.000863856
0.000830404
0.000809226
0.000799202
0.000797206
0.000797436
0.000791359
0.000773873
0.000770227
0.000887917
0.512638
0.18466
0.0188241
0.00515619
0.00318241
0.00228678
0.00182752
0.00122725
0.000745475
0.000568213
0.00046576
0.000414905
0.000451434
0.000601894
0.000875887
0.00127303
0.00172473
0.00213452
0.00242666
0.00257179
0.00258374
0.00249992
0.00236164
0.00220265
0.00204582
0.0019043
0.00178416
0.00168705
0.00161222
0.00155789
0.00152195
0.00150181
0.00149323
0.00148854
0.00147473
0.00143577
0.00138923
0.00134719
0.210744
0.0597284
0.0276706
0.0109871
0.0067792
0.00456872
0.00314342
0.00170105
0.000934036
0.0006813
0.000584711
0.000588153
0.000706034
0.000972939
0.00145362
0.0021783
0.00305266
0.00389015
0.00451392
0.00484336
0.00490064
0.00476408
0.00452027
0.00423832
0.00396396
0.00372311
0.00352782
0.00338121
0.00328094
0.00322131
0.00319436
0.0031899
0.0031945
0.00319026
0.00315616
0.00306714
0.00298713
0.00198607
0.00140286
0.00351391
0.0394918
0.0267389
0.0169364
0.00993617
0.00579437
0.00332907
0.00203904
0.00175521
0.00144463
0.00122944
0.00110301
0.00103457
0.00100779
0.00101401
0.00105132
0.00113823
0.00130052
0.00153237
0.00180477
0.00207325
0.00229523
0.00244426
0.00251385
0.00251302
0.002459
0.00237102
0.00226643
0.00215876
0.00205717
0.00196657
0.00188807
0.00181942
0.00175536
0.00168756
0.00160427
0.00148796
0.00131125
0.000856204
)
;

boundaryField
{
    floor
    {
        Cmu             0.09;
        kappa           0.41;
        E               9.8;
        type            epsilonWallFunction;
        value           nonuniform List<scalar> 
29
(
0.000182526
2.06333e-06
2.71315e-06
2.08585e-06
1.77574e-06
1.626e-06
1.41093e-06
1.18784e-06
1.26071e-06
1.6181e-06
2.18001e-06
2.88987e-06
3.57323e-06
3.70363e-06
3.55733e-06
4.14044e-06
5.18476e-06
4.97671e-06
5.71532e-06
5.58617e-06
5.58617e-06
2.60799e-05
7.36361e-05
0.000126915
0.000182526
2.06333e-06
1.08624e-05
6.60763e-05
0.000192403
)
;
    }
    ceiling
    {
        Cmu             0.09;
        kappa           0.41;
        E               9.8;
        type            epsilonWallFunction;
        value           nonuniform List<scalar> 
43
(
0.00140286
0.00351391
0.0394918
0.0267389
0.0169364
0.00993617
0.00579437
0.00332907
0.00203904
0.00175521
0.00144463
0.00122944
0.00110301
0.00103457
0.00100779
0.00101401
0.00105132
0.00113823
0.00130052
0.00153237
0.00180477
0.00207325
0.00229523
0.00244426
0.00251385
0.00251302
0.002459
0.00237102
0.00226643
0.00215876
0.00205717
0.00196657
0.00188807
0.00181942
0.00175536
0.00168756
0.00160427
0.00148796
0.00131125
0.000856204
0.0740791
0.138779
0.210744
)
;
    }
    sWall
    {
        Cmu             0.09;
        kappa           0.41;
        E               9.8;
        type            epsilonWallFunction;
        value           uniform 0.00140286;
    }
    nWall
    {
        Cmu             0.09;
        kappa           0.41;
        E               9.8;
        type            epsilonWallFunction;
        value           nonuniform List<scalar> 6(0.000155507 0.000266773 0.000407965 0.00134719 0.00198607 0.000856204);
    }
    sideWalls
    {
        type            empty;
    }
    glass1
    {
        Cmu             0.09;
        kappa           0.41;
        E               9.8;
        type            epsilonWallFunction;
        value           nonuniform List<scalar> 9(0.00403741 0.0066594 0.00949396 0.0127843 0.0169421 0.0226033 0.0309484 0.0449259 0.0740791);
    }
    glass2
    {
        Cmu             0.09;
        kappa           0.41;
        E               9.8;
        type            epsilonWallFunction;
        value           nonuniform List<scalar> 2(0.000597175 0.000887917);
    }
    sun
    {
        Cmu             0.09;
        kappa           0.41;
        E               9.8;
        type            epsilonWallFunction;
        value           nonuniform List<scalar> 
14
(
0.00403741
0.00325639
0.00266355
0.00223218
0.00190497
0.00164173
0.0014155
0.0012101
0.00101341
0.000814904
0.000575728
0.000279602
0.000183505
0.000180311
)
;
    }
    heatsource1
    {
        Cmu             0.09;
        kappa           0.41;
        E               9.8;
        type            epsilonWallFunction;
        value           nonuniform List<scalar> 3(0.000172723 0.000159459 0.000155507);
    }
    heatsource2
    {
        Cmu             0.09;
        kappa           0.41;
        E               9.8;
        type            epsilonWallFunction;
        value           nonuniform List<scalar> 4(0.000175721 9.22275e-05 9.22275e-05 0.000199256);
    }
    Table_master
    {
        Cmu             0.09;
        kappa           0.41;
        E               9.8;
        type            epsilonWallFunction;
        value           nonuniform List<scalar> 9(9.52633e-06 1.23625e-05 1.63548e-05 2.16538e-05 2.88518e-05 3.89586e-05 5.38578e-05 7.77457e-05 0.000118656);
    }
    Table_slave
    {
        Cmu             0.09;
        kappa           0.41;
        E               9.8;
        type            epsilonWallFunction;
        value           nonuniform List<scalar> 9(0.000126311 0.000125254 0.00012429 0.000124121 0.000125645 0.000129693 0.000137426 0.000151141 0.000175646);
    }
    inlet
    {
        type            turbulentMixingLengthDissipationRateInlet;
        mixingLength    0.01;
        phi             phi;
        k               k;
        value           uniform 0.512638;
    }
    outlet
    {
        type            zeroGradient;
    }
}


// ************************************************************************* //
