/*--------------------------------*- C++ -*----------------------------------*\
  =========                 |
  \\      /  F ield         | OpenFOAM: The Open Source CFD Toolbox
   \\    /   O peration     | Website:  https://openfoam.org
    \\  /    A nd           | Version:  6
     \\/     M anipulation  |
\*---------------------------------------------------------------------------*/
FoamFile
{
    version     2.0;
    format      ascii;
    class       surfaceScalarField;
    location    "500";
    object      phi;
}
// * * * * * * * * * * * * * * * * * * * * * * * * * * * * * * * * * * * * * //

dimensions      [1 0 -1 0 0 0 0];

internalField   nonuniform List<scalar> 
852
(
-0.00288867
0.00294602
-0.00383717
0.000948508
-0.00459531
0.000758149
-0.00521889
0.000623598
-0.00567956
0.000460675
-0.0059581
0.000278551
-0.00603218
7.40999e-05
-0.00587646
-0.000155712
-0.00547498
-0.000401466
-0.00484392
-0.00063105
-0.00403513
-0.000808784
-0.00312231
-0.000912807
-0.00217194
-0.000950355
-0.00118143
-0.000990504
-0.00117993
-0.000571861
0.000574814
-0.00014568
-0.000426168
0.000462148
-0.000607814
0.000878301
-0.000416139
0.00113062
-0.000252304
0.00127409
-0.000143454
0.00134532
-7.12206e-05
0.00137906
-3.37239e-05
0.00139615
-1.70702e-05
0.00140418
-8.02123e-06
0.00140591
-1.71406e-06
0.00140205
3.87568e-06
0.0013903
1.17697e-05
0.00136226
2.80519e-05
0.00129624
6.60371e-05
0.00115658
0.000139676
0.000933439
0.000223157
0.000680719
0.000252737
0.000684726
-0.00206052
0.0051606
-0.00301288
0.00190088
-0.00380262
0.00154789
-0.00441599
0.00123698
-0.00486524
0.000909935
-0.005144
0.00055733
-0.00522996
0.000160066
-0.00509531
-0.000290345
-0.00472935
-0.000767415
-0.00415957
-0.00120082
-0.00344825
-0.00152009
-0.00267269
-0.00168835
-0.00191348
-0.00170955
-0.00128718
-0.0016168
-0.00110289
-0.00136421
-0.000322102
-0.000780825
-0.000322141
0.000607193
-2.43495e-05
0.000967189
-0.00078615
0.00114858
-0.00078919
0.00131831
-0.000585853
0.00143856
-0.000372547
0.00149836
-0.000203236
0.00150223
-7.50808e-05
0.00150316
-3.46416e-05
0.00150489
-1.87788e-05
0.0015064
-9.52126e-06
0.00150728
-2.57466e-06
0.00150724
3.93357e-06
0.00150533
1.3693e-05
0.00149798
3.54178e-05
0.00145672
0.00010731
0.00128358
0.000312828
0.000985335
0.000521421
0.00061529
0.000622798
0.00131007
-0.0014496
0.00684521
-0.00228872
0.00274001
-0.00299106
0.00225025
-0.00351314
0.00175907
-0.00390342
0.00130023
-0.0041571
0.000811023
-0.00424159
0.000244568
-0.00411056
-0.000421369
-0.00375286
-0.00112511
-0.0032145
-0.00173917
-0.00256975
-0.00216483
-0.00189419
-0.00236391
-0.00126025
-0.00234349
-0.000740639
-0.0021364
-0.0003762
-0.00172864
-1.42702e-05
-0.00114274
-0.000336399
0.00135287
-0.00136878
0.00157124
-0.0010045
0.00156675
-0.00078469
0.00158017
-0.000599259
0.00160664
-0.000398998
0.00159561
-0.000192193
0.00152069
0.00148622
0.00146761
0.00145825
0.00145585
0.00145995
0.00147381
0.0015094
0.00161688
0.00133719
0.000592532
0.000993406
0.000865219
0.000552236
0.00106399
0.00187749
-0.00102377
0.00817234
-0.00171032
0.00342658
-0.0021753
0.00271524
-0.00252092
0.0021047
-0.00278952
0.00156884
-0.00297179
0.000993303
-0.00302169
0.000294481
-0.00286106
-0.000581991
-0.00249267
-0.00149348
-0.00199395
-0.00223788
-0.00144599
-0.00271278
-0.000910231
-0.00289965
-0.000431518
-0.00282219
-2.76516e-05
-0.00254026
0.000325937
-0.00208221
0.000709072
-0.00152587
0.00135389
-0.000981209
0.00210608
-0.000744138
0.00166199
-0.000924679
0.00158158
-0.000924077
0.00153508
-0.000738182
0.00150026
-0.000564425
0.00150461
-0.000403335
0.0015579
-0.00024547
0.00167863
-0.000120864
0.00177755
-9.90565e-05
0.00186731
-8.99061e-05
0.00194264
-7.54615e-05
0.00198675
-4.4255e-05
0.00197527
1.13456e-05
0.0018821
9.30318e-05
0.00167594
0.000206025
0.00130437
0.000371429
0.00116226
0.000734657
0.000855828
0.00117167
0.0003786
0.00154123
0.00227592
-0.000726212
0.00925957
-0.00126957
0.00396995
-0.00137468
0.00282037
-0.0014677
0.00219773
-0.00155342
0.00165457
-0.00160554
0.00104543
-0.00155454
0.000243486
-0.00130663
-0.000829891
-0.000926776
-0.00187332
-0.000509953
-0.00265469
-0.00011815
-0.00310458
0.000214277
-0.00323207
0.000476113
-0.00308402
0.000675795
-0.00273993
0.000856198
-0.00226261
0.00106114
-0.00173079
0.00132532
-0.00124538
0.00152335
-0.00094216
0.00145197
-0.000853282
0.00131131
-0.000783404
0.00121518
-0.000642046
0.00115242
-0.000501653
0.00113059
-0.00038149
0.00116105
-0.000275917
0.00124665
-0.000206447
0.00133327
-0.000185659
0.00142226
-0.000178878
0.00150734
-0.000160529
0.00157553
-0.000112429
0.0016057
-1.88118e-05
0.00157634
0.000122405
0.00147698
0.000305405
0.00131076
0.000537659
0.00116
0.00088543
0.000992856
0.00133883
0.000629256
0.00190485
0.000487365
0.00241782
-0.00102547
0.00151265
-0.00148227
0.000456613
-0.00143383
-0.000640197
0.0103093
-0.00103607
0.00436583
-0.000646171
0.00243048
-0.000375259
0.00192683
-0.000220361
0.00149969
-8.46797e-05
0.000909765
0.000177726
-1.89062e-05
0.000558223
-0.00121038
0.000904629
-0.00221972
0.00116351
-0.00291357
0.00131956
-0.00326062
0.0013809
-0.0032934
0.00137326
-0.00307637
0.00132089
-0.00268755
0.00125841
-0.00220011
0.00121597
-0.00168835
0.00119875
-0.00122815
0.00115695
-0.000900343
0.00103044
-0.000726767
0.00086402
-0.000616967
0.000734455
-0.000512466
0.000655154
-0.000422337
0.000626832
-0.000353153
0.000651499
-0.00030057
0.000717184
-0.000272117
0.000799932
-0.000268392
0.000891676
-0.000270607
0.000988435
-0.000257273
0.00108406
-0.000208036
0.0011664
-0.000101137
0.00121517
7.36509e-05
0.00122599
0.000294599
0.00121091
0.000552748
0.00122038
0.000875977
0.00130297
0.00125626
0.00147068
0.00173715
0.00189787
0.00199064
0.00214577
0.00126477
0.00175536
0.000847039
0.000379856
-0.000742971
0.011505
-0.000669017
0.00429189
0.000383046
0.00137843
0.000991019
0.00131887
0.00137821
0.00111251
0.0018195
0.000468483
0.00230975
-0.000509138
0.00268425
-0.00158487
0.00288283
-0.00241828
0.00289514
-0.00292587
0.0027475
-0.00311297
0.00248314
-0.00302904
0.00215144
-0.00274465
0.00179571
-0.00233181
0.00145339
-0.00185778
0.00115171
-0.00138665
0.000896804
-0.000973235
0.000677441
-0.000680968
0.000467236
-0.000516549
0.000282489
-0.000432205
0.000149017
-0.000378981
7.12058e-05
-0.000344511
4.26854e-05
-0.000324618
5.74273e-05
-0.000315297
0.000103211
-0.000317886
0.000165583
-0.000330749
0.000238082
-0.00034309
0.000321841
-0.000341018
0.000422023
-0.000308203
0.000543579
-0.000222678
0.000673227
-5.59826e-05
0.000798013
0.000169829
0.000928134
0.000422642
0.00110719
0.000696936
0.00138508
0.000978381
0.00182608
0.00129618
0.00249033
0.00132641
0.00302612
0.000728989
0.00305908
0.000814096
0.00350266
0.00250043
0.00951049
0.00313623
0.00365611
0.00336863
0.00114604
0.00367545
0.00101207
0.00400982
0.000778154
0.00449694
-1.86195e-05
0.00495524
-0.000967431
0.00510731
-0.00173693
0.004943
-0.00225396
0.00452756
-0.00251042
0.00394134
-0.00252675
0.00326382
-0.00235151
0.00256479
-0.00204561
0.00189391
-0.00166092
0.00128567
-0.00124953
0.000767175
-0.000868146
0.000343884
-0.000549931
2.42889e-05
-0.000361359
-0.000209849
-0.000282397
-0.000375121
-0.000266919
-0.000486514
-0.000267573
-0.000556233
-0.000274777
-0.000594343
-0.000286492
-0.000608003
-0.000301623
-0.000605396
-0.000320478
-0.000594753
-0.000341377
-0.000579416
-0.000358412
-0.000556849
-0.00036357
-0.000517688
-0.000347348
-0.000441705
-0.000298646
-0.00029507
-0.000202602
-9.93449e-05
-2.58806e-05
0.000123619
0.000199693
0.000399493
0.000421078
0.000743109
0.00063478
0.00119843
0.000840867
0.00169373
0.000831126
0.00189564
0.000527097
0.00112094
0.00158881
0.00488144
0.0100648
0.0137129
0.0123058
0.00255314
0.0112127
0.0021052
0.0104429
0.00154795
0.00975855
0.000665747
0.00888434
-9.32138e-05
0.00782352
-0.00067611
0.00666472
-0.00109517
0.00547478
-0.00132048
0.00430332
-0.00135529
0.00319625
-0.00124444
0.00219312
-0.00104247
0.00131026
-0.000778055
0.000552607
-0.000491863
-5.29049e-05
-0.000262621
-0.000477485
-0.000125337
-0.000740788
-9.80406e-05
-0.000911338
-0.000111832
-0.00103721
-0.000141037
-0.0011354
-0.000169367
-0.00121489
-0.000195264
-0.00128227
-0.000219096
-0.00134301
-0.000240871
-0.00140326
-0.000260212
-0.0014698
-0.00027482
-0.00154879
-0.000279408
-0.00164651
-0.000265835
-0.00177096
-0.000222888
-0.00193301
-0.000136574
-0.00214136
5.76348e-06
-0.00237884
0.000211606
-0.00267157
0.000492446
-0.0031146
0.000864121
-0.00380389
0.00132409
-0.00480427
0.00184126
-0.00622995
0.00225682
-0.00795222
0.00224938
-0.00745745
0.00109405
-0.00229016
0.00478973
0.00385651
0.00430417
0.00259074
0.00506568
0.000786406
0.005234
0.000497393
0.00494171
0.000199058
0.00442276
-0.000157182
0.00373842
-0.000410824
0.00294291
-0.000524974
0.00208988
-0.000502249
0.00124038
-0.00039493
0.000438893
-0.000240973
-0.000270833
-6.83151e-05
-0.000816667
5.39856e-05
-0.00116379
8.45174e-05
-0.00135809
6.89776e-05
-0.00148283
2.67101e-05
-0.0015796
-1.50412e-05
-0.00166927
-5.13526e-05
-0.0017586
-8.00223e-05
-0.00184984
-0.00010401
-0.0019447
-0.000124213
-0.00204521
-0.000140354
-0.00215364
-0.00015176
-0.00227197
-0.000156476
-0.00240074
-0.000150625
-0.00253821
-0.000128347
-0.00267916
-8.19257e-05
-0.00281423
-1.48856e-06
-0.00293048
0.000122029
-0.00302397
0.000305116
-0.00310622
0.000574712
-0.00318625
0.000944158
-0.00326348
0.00140134
-0.00329304
0.00187083
-0.0032192
0.002183
-0.00286798
0.00189819
-0.00159557
-0.000178347
-0.00381056
-0.000580904
0.00449442
0.00062715
0.00138266
0.000784537
0.000629003
0.000887322
0.000394599
0.000880082
0.000206297
0.000683262
3.96429e-05
0.000318607
-4.61591e-05
-0.000170145
-3.6208e-05
-0.000699686
2.7306e-05
-0.00118095
8.63494e-05
-0.00155426
0.000132347
-0.00178294
0.000160383
-0.00189063
0.000161692
-0.00194375
0.000137645
-0.00197705
0.000102301
-0.00201407
6.37399e-05
-0.00206005
3.0957e-05
-0.00211716
5.77469e-06
-0.00218383
-1.33349e-05
-0.00225942
-2.84076e-05
-0.00234306
-4.05617e-05
-0.00243332
-5.0071e-05
-0.00252832
-5.6745e-05
-0.00262511
-5.96784e-05
-0.00271876
-5.69579e-05
-0.00280159
-4.54994e-05
-0.00286236
-2.11435e-05
-0.00288631
2.24768e-05
-0.00286237
9.81075e-05
-0.00276893
0.000211695
-0.00257303
0.000378827
-0.00224811
0.000619253
-0.00177958
0.000932816
-0.00114532
0.00123659
-0.000167692
0.00120538
0.00115524
0.000575271
0.00158341
-0.000606504
-0.00214465
-0.00741702
-0.010229
-0.00569188
-0.00428672
-0.00364257
-0.00323691
-0.00302266
-0.0029776
-0.00302027
-0.00305454
-0.00302657
-0.0029406
-0.00280958
-0.00265141
-0.00249271
-0.0023587
-0.00226048
-0.00220111
-0.00217469
-0.00217356
-0.00219158
-0.0022247
-0.00226998
-0.00232475
-0.00238615
-0.00245044
-0.00251193
-0.00256189
-0.00258739
-0.00256916
-0.00247518
-0.00226748
-0.00189253
-0.00127704
-0.000347894
0.000885061
0.00208672
0.00265811
0.00204748
)
;

boundaryField
{
    floor
    {
        type            calculated;
        value           nonuniform List<scalar> 
29
(
0
0
0
0
0
0
0
0
0
0
0
0
0
0
0
0
0
0
0
0
-3.99066e-06
-1.00373e-05
-1.51676e-05
-1.98094e-05
-1.48344e-06
-2.9377e-06
-8.01532e-06
-8.4282e-06
-8.03927e-06
)
;
    }
    ceiling
    {
        type            calculated;
        value           nonuniform List<scalar> 
43
(
-4.52663e-05
-4.39604e-05
-4.26468e-05
-2.24908e-05
-1.51279e-05
-1.10475e-05
-7.93673e-06
-5.41092e-06
-3.47536e-06
-1.91805e-06
-6.49221e-07
3.91666e-07
1.3391e-06
2.22378e-06
3.01416e-06
3.64722e-06
4.095e-06
4.38209e-06
4.55532e-06
4.65564e-06
4.70687e-06
4.72892e-06
4.72936e-06
4.71071e-06
4.67458e-06
4.62221e-06
4.5546e-06
4.4724e-06
4.37558e-06
4.26266e-06
4.13724e-06
4.01103e-06
3.88895e-06
3.77777e-06
3.69024e-06
3.65274e-06
3.73556e-06
3.90037e-06
4.13593e-06
5.16201e-06
1.11816e-05
8.04068e-06
-5.70293e-05
)
;
    }
    sWall
    {
        type            calculated;
        value           uniform -0.000272639;
    }
    nWall
    {
        type            calculated;
        value           nonuniform List<scalar> 6(-4.86321e-05 -5.83065e-05 -6.37045e-05 -7.51567e-05 -8.2485e-05 -0.000102312);
    }
    sideWalls
    {
        type            empty;
        value           nonuniform 0();
    }
    glass1
    {
        type            calculated;
        value           nonuniform List<scalar> 9(-5.73343e-05 -0.000154054 -0.000234996 -0.000303352 -0.000361013 -0.000409476 -0.000452796 -0.00050588 -0.000565519);
    }
    glass2
    {
        type            calculated;
        value           nonuniform List<scalar> 2(-0.00025782 -0.000285834);
    }
    sun
    {
        type            calculated;
        value           uniform 0;
    }
    heatsource1
    {
        type            calculated;
        value           nonuniform List<scalar> 3(2.04143e-07 2.04085e-07 2.04099e-07);
    }
    heatsource2
    {
        type            calculated;
        value           nonuniform List<scalar> 4(5.10576e-08 5.12024e-08 0 0);
    }
    Table_master
    {
        type            calculated;
        value           nonuniform List<scalar> 9(-1.53106e-07 -1.53165e-07 -1.53187e-07 -1.53203e-07 -1.53214e-07 -1.53221e-07 -1.53224e-07 -1.53218e-07 -1.53188e-07);
    }
    Table_slave
    {
        type            calculated;
        value           nonuniform List<scalar> 9(1.52999e-07 1.53006e-07 1.5298e-07 1.52958e-07 1.52947e-07 1.52953e-07 1.52964e-07 1.53005e-07 1.53086e-07);
    }
    inlet
    {
        type            calculated;
        value           uniform -0.00609312;
    }
    outlet
    {
        type            calculated;
        value           nonuniform List<scalar> 2(0.00773493 0.0028559);
    }
}


// ************************************************************************* //
