/*--------------------------------*- C++ -*----------------------------------*\
  =========                 |
  \\      /  F ield         | OpenFOAM: The Open Source CFD Toolbox
   \\    /   O peration     | Website:  https://openfoam.org
    \\  /    A nd           | Version:  6
     \\/     M anipulation  |
\*---------------------------------------------------------------------------*/
FoamFile
{
    version     2.0;
    format      ascii;
    class       volScalarField;
    location    "110";
    object      epsilon;
}
// * * * * * * * * * * * * * * * * * * * * * * * * * * * * * * * * * * * * * //

dimensions      [0 2 -3 0 0 0 0];

internalField   nonuniform List<scalar> 
459
(
0.00066328
0.000970872
0.00115093
0.00144071
0.00178375
0.00205538
0.00214996
0.00194218
0.00168579
0.00142278
0.00117409
0.00095911
0.000780197
0.000612379
0.000453255
0.000100515
0.000192611
0.000261452
0.000334881
0.000343921
0.000318145
0.000259083
0.000205342
0.00016456
0.000134294
0.000111564
9.41977e-05
8.06041e-05
6.97856e-05
6.08075e-05
5.28364e-05
4.5325e-05
3.56687e-05
3.08577e-05
0.00132239
0.00149815
0.000935754
0.00105429
0.00129567
0.0014716
0.00150975
0.0013572
0.00113838
0.000927782
0.000755827
0.000630985
0.000543541
0.00047251
0.000393153
0.000528542
0.000346386
0.000284793
0.000597779
0.000356557
0.000311537
0.000284517
0.000264741
0.0002683
0.000214631
0.000165611
0.000128273
0.00010074
8.04987e-05
6.54189e-05
5.40325e-05
4.5494e-05
4.05e-05
4.51358e-05
4.95621e-05
5.83268e-05
0.00215133
0.00281812
0.00122446
0.00125431
0.00145076
0.00149563
0.00149592
0.00137869
0.00115448
0.000918371
0.000725695
0.000585022
0.000485813
0.000413063
0.00035053
0.000354798
0.00041413
0.000393797
0.00112767
0.000542877
0.000375786
0.000313888
0.000299837
0.00063043
0.00040924
0.000273954
0.000190411
0.000137394
0.000102716
7.94231e-05
6.40996e-05
5.5113e-05
4.22288e-05
4.51312e-05
7.885e-05
8.77125e-05
0.0032264
0.00511466
0.00192366
0.00171303
0.00172725
0.00160983
0.00159464
0.00148706
0.00123294
0.000949571
0.000720913
0.00056023
0.000450635
0.000375092
0.000320585
0.000300652
0.000321451
0.000446047
0.000495848
0.000392452
0.000339409
0.000321749
0.000312503
0.000328042
0.00091096
0.000713878
0.000578273
0.000480719
0.000401656
0.000332417
0.000269148
0.000210163
0.000153634
7.73082e-05
5.56877e-05
0.000148751
0.000135982
0.00458382
0.008358
0.00331348
0.00255264
0.00211045
0.00185762
0.0018313
0.00170022
0.00137723
0.00100885
0.000719586
0.000529191
0.000412256
0.000342106
0.000300942
0.000285182
0.000308802
0.000339734
0.000317085
0.000331949
0.000358412
0.000375203
0.000372807
0.000358531
0.000371335
0.000356912
0.000337844
0.000316707
0.000289331
0.000255237
0.000215544
0.000172086
0.000125787
7.73072e-05
5.51687e-05
0.000124071
0.000155341
0.00017755
0.000263975
0.000879148
0.00616708
0.0117617
0.00592838
0.00365921
0.00258947
0.00224755
0.00219669
0.00201323
0.0015751
0.00107758
0.000705501
0.000483679
0.000372085
0.000320939
0.000303212
0.000312784
0.00035848
0.000409818
0.000454004
0.000493536
0.00051772
0.000515483
0.000485883
0.000438972
0.00039423
0.000357737
0.000326515
0.000295566
0.000261431
0.000223659
0.000183351
0.000142492
0.00010296
6.87221e-05
5.29864e-05
7.92244e-05
0.000130295
0.00029781
0.00134434
0.00201358
0.00709015
0.0132903
0.00842575
0.00463887
0.00313748
0.0027531
0.00269238
0.00242026
0.00180198
0.00112564
0.000667594
0.000442657
0.000362386
0.000342512
0.000355058
0.000397751
0.000474547
0.000562873
0.000640258
0.00068603
0.000692662
0.000657059
0.000588767
0.000506795
0.000430133
0.000368348
0.000320157
0.000277712
0.000235881
0.000194604
0.000155317
0.000119488
8.85999e-05
6.52356e-05
5.3444e-05
6.21992e-05
0.000136709
0.000686575
0.00416494
0.00500161
0.0069456
0.012058
0.00741958
0.00469631
0.00353421
0.00336337
0.0033267
0.00289318
0.00199318
0.00109947
0.000651281
0.000499155
0.000457429
0.000463798
0.000503211
0.000579923
0.000684606
0.000793948
0.000873178
0.000894617
0.000859645
0.000776526
0.000662313
0.000551631
0.000459642
0.000389344
0.000333934
0.000286267
0.000243052
0.000204197
0.000170902
0.000144409
0.000125621
0.000115237
0.000113173
0.000130221
0.000283434
0.00168838
0.0162031
0.0130816
0.0061617
0.00842803
0.00607351
0.00422112
0.00379059
0.00415693
0.00407697
0.00328289
0.0019388
0.00115456
0.000875658
0.000788705
0.000778646
0.000807945
0.000867735
0.000956408
0.001062
0.00115501
0.00119634
0.00116937
0.00108397
0.000968195
0.000844017
0.000731374
0.00063964
0.000567347
0.000509733
0.000463425
0.00042788
0.000404665
0.00039626
0.000404936
0.00043132
0.000471744
0.000516527
0.00056919
0.000826243
0.00321748
0.0239223
0.018491
0.000745228
0.002182
0.00467145
0.00572731
0.00444905
0.00274
0.00202288
0.00178062
0.00171059
0.00170814
0.00173428
0.00177937
0.00184087
0.00191284
0.00197957
0.00201735
0.00200913
0.0019557
0.00187077
0.00177291
0.00167667
0.00159015
0.00151684
0.0014581
0.0014157
0.00139314
0.00139593
0.00143122
0.00150676
0.00162835
0.00179338
0.00197962
0.00214751
0.00230047
0.00265131
0.00529475
0.0184356
0.0114713
0.0050239
0.00998979
0.0123799
0.0101892
0.00719646
0.00515121
0.00427864
0.0040163
0.00396265
0.00396741
0.00398987
0.00403229
0.00410693
0.00422035
0.00436484
0.00451419
0.00462945
0.00468435
0.00467428
0.0046155
0.00453251
0.00444492
0.00436544
0.00430427
0.00427142
0.00427809
0.00433807
0.00446896
0.00469211
0.00502781
0.00547457
0.005954
0.00624281
0.00610337
0.00586704
0.00669011
0.00972153
0.0067509
0.00139472
0.00197003
0.0030658
0.00431645
0.00480341
0.00449445
0.00399843
0.00367406
0.00345715
0.00334728
0.00330699
0.00331174
0.00334743
0.00340471
0.00347387
0.0035419
0.00359238
0.00361025
0.00358997
0.00353763
0.00346641
0.00338961
0.00331687
0.00325405
0.00320438
0.00316982
0.00315229
0.0031543
0.00317889
0.00322861
0.00330336
0.00339541
0.00348088
0.00351433
0.00346393
0.00342659
0.00363673
0.00425976
0.004871
0.0037707
)
;

boundaryField
{
    floor
    {
        Cmu             0.09;
        kappa           0.41;
        E               9.8;
        type            epsilonWallFunction;
        value           nonuniform List<scalar> 
29
(
0.000453255
0.000100515
0.000192611
0.000261452
0.000334881
0.000343921
0.000318145
0.000259083
0.000205342
0.00016456
0.000134294
0.000111564
9.41977e-05
8.06041e-05
6.97856e-05
6.08075e-05
5.28364e-05
4.5325e-05
3.56687e-05
3.08577e-05
3.08577e-05
5.83268e-05
8.77125e-05
0.000135982
0.000453255
0.000100515
0.000284793
0.000393797
0.000446047
)
;
    }
    ceiling
    {
        Cmu             0.09;
        kappa           0.41;
        E               9.8;
        type            epsilonWallFunction;
        value           nonuniform List<scalar> 
43
(
0.00139472
0.00197003
0.0030658
0.00431645
0.00480341
0.00449445
0.00399843
0.00367406
0.00345715
0.00334728
0.00330699
0.00331174
0.00334743
0.00340471
0.00347387
0.0035419
0.00359238
0.00361025
0.00358997
0.00353763
0.00346641
0.00338961
0.00331687
0.00325405
0.00320438
0.00316982
0.00315229
0.0031543
0.00317889
0.00322861
0.00330336
0.00339541
0.00348088
0.00351433
0.00346393
0.00342659
0.00363673
0.00425976
0.004871
0.0037707
0.0061617
0.00842803
0.0050239
)
;
    }
    sWall
    {
        Cmu             0.09;
        kappa           0.41;
        E               9.8;
        type            epsilonWallFunction;
        value           uniform 0.00139472;
    }
    nWall
    {
        Cmu             0.09;
        kappa           0.41;
        E               9.8;
        type            epsilonWallFunction;
        value           nonuniform List<scalar> 6(0.000879148 0.00201358 0.00500161 0.0114713 0.0067509 0.0037707);
    }
    sideWalls
    {
        type            empty;
    }
    glass1
    {
        Cmu             0.09;
        kappa           0.41;
        E               9.8;
        type            epsilonWallFunction;
        value           nonuniform List<scalar> 9(0.00066328 0.00132239 0.00215133 0.0032264 0.00458382 0.00616708 0.00709015 0.0069456 0.0061617);
    }
    glass2
    {
        Cmu             0.09;
        kappa           0.41;
        E               9.8;
        type            epsilonWallFunction;
        value           nonuniform List<scalar> 2(0.0130816 0.018491);
    }
    sun
    {
        Cmu             0.09;
        kappa           0.41;
        E               9.8;
        type            epsilonWallFunction;
        value           nonuniform List<scalar> 
14
(
0.00066328
0.000970872
0.00115093
0.00144071
0.00178375
0.00205538
0.00214996
0.00194218
0.00168579
0.00142278
0.00117409
0.00095911
0.000780197
0.000612379
)
;
    }
    heatsource1
    {
        Cmu             0.09;
        kappa           0.41;
        E               9.8;
        type            epsilonWallFunction;
        value           nonuniform List<scalar> 3(0.00017755 0.000263975 0.000879148);
    }
    heatsource2
    {
        Cmu             0.09;
        kappa           0.41;
        E               9.8;
        type            epsilonWallFunction;
        value           nonuniform List<scalar> 4(0.000528542 0.000346386 0.000346386 0.00041413);
    }
    Table_master
    {
        Cmu             0.09;
        kappa           0.41;
        E               9.8;
        type            epsilonWallFunction;
        value           nonuniform List<scalar> 9(0.00063043 0.00040924 0.000273954 0.000190411 0.000137394 0.000102716 7.94231e-05 6.40996e-05 5.5113e-05);
    }
    Table_slave
    {
        Cmu             0.09;
        kappa           0.41;
        E               9.8;
        type            epsilonWallFunction;
        value           nonuniform List<scalar> 9(0.00091096 0.000713878 0.000578273 0.000480719 0.000401656 0.000332417 0.000269148 0.000210163 0.000153634);
    }
    inlet
    {
        type            turbulentMixingLengthDissipationRateInlet;
        mixingLength    0.01;
        phi             phi;
        k               k;
        value           uniform 0.000101881;
    }
    outlet
    {
        type            zeroGradient;
    }
}


// ************************************************************************* //
