/*--------------------------------*- C++ -*----------------------------------*\
  =========                 |
  \\      /  F ield         | OpenFOAM: The Open Source CFD Toolbox
   \\    /   O peration     | Website:  https://openfoam.org
    \\  /    A nd           | Version:  6
     \\/     M anipulation  |
\*---------------------------------------------------------------------------*/
FoamFile
{
    version     2.0;
    format      ascii;
    class       volScalarField;
    location    "700";
    object      epsilon;
}
// * * * * * * * * * * * * * * * * * * * * * * * * * * * * * * * * * * * * * //

dimensions      [0 2 -3 0 0 0 0];

internalField   nonuniform List<scalar> 
459
(
0.00174098
0.00456993
0.00414233
0.00374372
0.00343777
0.00319511
0.00299352
0.00281653
0.00265102
0.00248821
0.0023203
0.0021389
0.00193247
0.00167907
0.00137581
1.21487e-05
1.85596e-05
1.97373e-05
1.52161e-05
1.06356e-05
7.41421e-06
4.05575e-06
1.96947e-06
1.15222e-06
9.32383e-07
1.03586e-06
1.28985e-06
1.33759e-06
1.24978e-06
1.25125e-06
2.93483e-06
7.85686e-06
1.50031e-05
8.6172e-06
0.006684
0.00558984
0.00440837
0.00343461
0.00279447
0.00238441
0.00210328
0.00189928
0.00175092
0.00164231
0.00156369
0.00150547
0.00145039
0.00135274
0.0011862
0.00121426
0.000840077
3.40586e-05
3.6574e-05
2.62639e-05
1.85127e-05
1.48787e-05
1.09733e-05
6.12367e-06
3.69399e-06
2.96829e-06
2.99005e-06
3.30849e-06
3.31738e-06
2.65202e-06
1.78665e-06
1.75799e-06
8.68866e-06
2.36931e-05
6.02299e-05
2.77674e-05
0.0082366
0.00686391
0.00464904
0.00311921
0.00233836
0.00193477
0.00171165
0.00156994
0.00145449
0.00135629
0.00127545
0.00121409
0.00116859
0.00110952
0.00103085
0.00103717
0.00086405
9.20485e-05
6.69446e-05
3.75828e-05
3.33835e-05
3.25975e-05
3.28217e-05
1.14171e-05
6.89197e-06
5.25313e-06
4.38933e-06
3.82055e-06
3.35573e-06
2.90665e-06
2.44033e-06
2.87672e-06
2.95078e-05
6.13348e-05
0.000142229
4.5789e-05
0.00927755
0.00821347
0.00435911
0.00221731
0.00139773
0.00107169
0.000946667
0.00092222
0.000938604
0.000956525
0.000962689
0.000959095
0.000951144
0.000926793
0.000897699
0.000913621
0.000834739
0.00038709
0.000155446
4.28546e-05
3.3818e-05
3.6599e-05
4.28978e-05
5.44186e-05
7.79217e-05
8.38259e-05
9.08735e-05
9.85072e-05
0.000106779
0.000115946
0.000124585
0.000131085
0.000134191
8.95757e-05
7.86933e-05
0.000159
0.000157924
0.0101566
0.00968999
0.00369971
0.00130131
0.000733294
0.000593159
0.000580875
0.00060778
0.000653549
0.000699578
0.000736911
0.000763237
0.000779862
0.00077732
0.000774336
0.000800714
0.000792015
0.000371232
8.35797e-05
3.68632e-05
3.38598e-05
3.74115e-05
4.27164e-05
4.89782e-05
5.62493e-05
6.387e-05
7.27646e-05
8.34994e-05
9.65742e-05
0.000112532
0.000131077
0.000152195
0.000175336
0.000190491
0.000202999
0.000201632
0.000227313
0.000356064
0.000259496
0.000275602
0.0110523
0.0110377
0.00344111
0.000713897
0.000530349
0.000454402
0.000456601
0.000476127
0.000509353
0.000549705
0.000589176
0.000622184
0.000646138
0.000654574
0.000667456
0.000698073
0.000703856
0.000340419
8.51752e-05
4.28946e-05
4.13939e-05
4.67178e-05
5.38719e-05
6.15275e-05
6.96301e-05
7.88382e-05
9.0298e-05
0.000105317
0.000125277
0.000151668
0.000186347
0.000232079
0.000292548
0.000372632
0.00048652
0.000644929
0.000687948
0.000611313
0.000390659
0.000447414
0.0121679
0.012128
0.00533316
0.00076921
0.000501605
0.000389052
0.000379066
0.000394955
0.000421973
0.000453364
0.000486554
0.000517045
0.000541663
0.000558372
0.000579502
0.000608317
0.000604404
0.000296062
8.69256e-05
5.33441e-05
5.66546e-05
6.62281e-05
7.70916e-05
8.6915e-05
9.60204e-05
0.000106033
0.000119102
0.000137578
0.000163798
0.000200075
0.000249613
0.000317696
0.000411156
0.000535954
0.000691836
0.000856262
0.000962958
0.00102025
0.000545906
0.00052556
0.0139195
0.0154762
0.0127705
0.00128046
0.0004524
0.000313422
0.000306063
0.000326362
0.000354991
0.000384597
0.000414726
0.000443706
0.000469622
0.000491538
0.000513399
0.000532888
0.000509938
0.000249866
9.19701e-05
7.64519e-05
9.13728e-05
0.000110913
0.000128092
0.000139909
0.00014868
0.000157597
0.000170126
0.000189803
0.00021941
0.000258905
0.000304757
0.000353365
0.000401974
0.000451972
0.00050831
0.000579208
0.000660819
0.000750628
0.000828864
0.00068696
0.0175027
0.0240219
0.040857
0.00475214
0.000487634
0.000284507
0.00027128
0.000288386
0.000314676
0.000345175
0.000376578
0.000407884
0.000437011
0.000460876
0.000476314
0.000477915
0.000433914
0.000218353
0.00011868
0.000135118
0.000174684
0.000215074
0.000237532
0.000248307
0.000252615
0.000255401
0.000260868
0.000273315
0.000298344
0.000342613
0.000411201
0.000497373
0.000597869
0.000707126
0.000817731
0.000917331
0.00104655
0.00126835
0.00167748
0.0010737
0.0925021
0.0107033
0.000845324
0.000353803
0.000308513
0.000317346
0.000343295
0.000374529
0.000409237
0.000445307
0.000478204
0.000500344
0.000502467
0.000482086
0.000440383
0.000249969
0.000218391
0.000288536
0.000372588
0.000428816
0.00045955
0.000469917
0.000467695
0.000459967
0.000451418
0.000444529
0.00044144
0.000445506
0.000461558
0.000490459
0.000533298
0.000588634
0.000653453
0.000727451
0.000754502
0.000693778
0.00113114
0.00111324
0.00708441
0.00147085
0.0010737
0.000537057
0.0004169
0.000367237
0.000355293
0.000370912
0.000400652
0.000438447
0.000477284
0.000505525
0.000507505
0.00048809
0.000402911
0.000305588
0.000344349
0.000477084
0.000637468
0.00077582
0.000869789
0.000919965
0.000938293
0.000937025
0.000922749
0.000895703
0.000854026
0.000801435
0.00073786
0.000669186
0.000610537
0.000568685
0.000538735
0.00051228
0.000474848
0.000458381
0.00123483
0.000866256
0.00141947
0.00131823
0.00168635
0.000492548
0.000524573
0.000545354
0.000569694
0.000590897
0.000610907
0.00063142
0.00065043
0.000668135
0.00068283
0.000691072
0.000686619
0.000651378
0.000569046
0.000495642
0.000454926
0.000433402
0.000436055
0.000454662
0.000479315
0.000502105
0.0005185
0.000527192
0.000528895
0.000525124
0.000517628
0.000508519
0.000505182
0.000509072
0.000512616
0.000508683
0.00048855
0.00044742
0.000403937
0.000355863
0.000371865
0.000322287
)
;

boundaryField
{
    floor
    {
        Cmu             0.09;
        kappa           0.41;
        E               9.8;
        type            epsilonWallFunction;
        value           nonuniform List<scalar> 
29
(
0.00137581
1.21487e-05
1.85596e-05
1.97373e-05
1.52161e-05
1.06356e-05
7.41421e-06
4.05575e-06
1.96947e-06
1.15222e-06
9.32383e-07
1.03586e-06
1.28985e-06
1.33759e-06
1.24978e-06
1.25125e-06
2.93483e-06
7.85686e-06
1.50031e-05
8.6172e-06
8.6172e-06
2.77674e-05
4.5789e-05
0.000157924
0.00137581
1.21487e-05
3.40586e-05
9.20485e-05
0.00038709
)
;
    }
    ceiling
    {
        Cmu             0.09;
        kappa           0.41;
        E               9.8;
        type            epsilonWallFunction;
        value           nonuniform List<scalar> 
43
(
0.00141947
0.00131823
0.00168635
0.000492548
0.000524573
0.000545354
0.000569694
0.000590897
0.000610907
0.00063142
0.00065043
0.000668135
0.00068283
0.000691072
0.000686619
0.000651378
0.000569046
0.000495642
0.000454926
0.000433402
0.000436055
0.000454662
0.000479315
0.000502105
0.0005185
0.000527192
0.000528895
0.000525124
0.000517628
0.000508519
0.000505182
0.000509072
0.000512616
0.000508683
0.00048855
0.00044742
0.000403937
0.000355863
0.000371865
0.000322287
0.0175027
0.0240219
0.00708441
)
;
    }
    sWall
    {
        Cmu             0.09;
        kappa           0.41;
        E               9.8;
        type            epsilonWallFunction;
        value           uniform 0.00141947;
    }
    nWall
    {
        Cmu             0.09;
        kappa           0.41;
        E               9.8;
        type            epsilonWallFunction;
        value           nonuniform List<scalar> 6(0.000275602 0.000447414 0.00052556 0.00111324 0.000866256 0.000322287);
    }
    sideWalls
    {
        type            empty;
    }
    glass1
    {
        Cmu             0.09;
        kappa           0.41;
        E               9.8;
        type            epsilonWallFunction;
        value           nonuniform List<scalar> 9(0.00174098 0.006684 0.0082366 0.00927755 0.0101566 0.0110523 0.0121679 0.0139195 0.0175027);
    }
    glass2
    {
        Cmu             0.09;
        kappa           0.41;
        E               9.8;
        type            epsilonWallFunction;
        value           nonuniform List<scalar> 2(0.00068696 0.0010737);
    }
    sun
    {
        Cmu             0.09;
        kappa           0.41;
        E               9.8;
        type            epsilonWallFunction;
        value           nonuniform List<scalar> 
14
(
0.00174098
0.00456993
0.00414233
0.00374372
0.00343777
0.00319511
0.00299352
0.00281653
0.00265102
0.00248821
0.0023203
0.0021389
0.00193247
0.00167907
)
;
    }
    heatsource1
    {
        Cmu             0.09;
        kappa           0.41;
        E               9.8;
        type            epsilonWallFunction;
        value           nonuniform List<scalar> 3(0.000356064 0.000259496 0.000275602);
    }
    heatsource2
    {
        Cmu             0.09;
        kappa           0.41;
        E               9.8;
        type            epsilonWallFunction;
        value           nonuniform List<scalar> 4(0.00121426 0.000840077 0.000840077 0.00086405);
    }
    Table_master
    {
        Cmu             0.09;
        kappa           0.41;
        E               9.8;
        type            epsilonWallFunction;
        value           nonuniform List<scalar> 9(1.14171e-05 6.89197e-06 5.25313e-06 4.38933e-06 3.82055e-06 3.35573e-06 2.90665e-06 2.44033e-06 2.87672e-06);
    }
    Table_slave
    {
        Cmu             0.09;
        kappa           0.41;
        E               9.8;
        type            epsilonWallFunction;
        value           nonuniform List<scalar> 9(7.79217e-05 8.38259e-05 9.08735e-05 9.85072e-05 0.000106779 0.000115946 0.000124585 0.000131085 0.000134191);
    }
    inlet
    {
        type            turbulentMixingLengthDissipationRateInlet;
        mixingLength    0.01;
        phi             phi;
        k               k;
        value           uniform 3.77336e-06;
    }
    outlet
    {
        type            zeroGradient;
    }
}


// ************************************************************************* //
