/*--------------------------------*- C++ -*----------------------------------*\
  =========                 |
  \\      /  F ield         | OpenFOAM: The Open Source CFD Toolbox
   \\    /   O peration     | Website:  https://openfoam.org
    \\  /    A nd           | Version:  6
     \\/     M anipulation  |
\*---------------------------------------------------------------------------*/
FoamFile
{
    version     2.0;
    format      ascii;
    class       volScalarField;
    location    "300";
    object      alphat;
}
// * * * * * * * * * * * * * * * * * * * * * * * * * * * * * * * * * * * * * //

dimensions      [1 -1 -1 0 0 0 0];

internalField   nonuniform List<scalar> 
459
(
0.00125843
0.00137381
0.00139468
0.0014606
0.00152187
0.00157922
0.00163544
0.00168928
0.0017258
0.00173844
0.00172127
0.00167064
0.00158667
0.0014768
0.00135946
0.00053577
0.000646806
0.000722357
0.000717696
0.000693536
0.000661791
0.000621036
0.000580367
0.000543329
0.000510392
0.000481216
0.000455432
0.000432577
0.000412053
0.000393222
0.000375198
0.000356933
0.000351515
0.000326221
0.00172699
0.00422329
0.0040319
0.00469035
0.00532791
0.00596387
0.00651985
0.00694082
0.00731677
0.00761496
0.00779164
0.0077961
0.00755538
0.00688867
0.0051292
0.00137293
0.000822363
0.000580405
0.0011836
0.00163921
0.00198831
0.00218936
0.00219735
0.00177146
0.00153414
0.00136387
0.00123237
0.00112708
0.00103938
0.000962536
0.000892925
0.000827828
0.000770471
0.000718039
0.000889879
0.000451103
0.00211451
0.00577097
0.00498226
0.00627336
0.00688826
0.00734003
0.00769252
0.00797883
0.00828679
0.008602
0.00888459
0.00907297
0.00910565
0.00890236
0.00824051
0.00630603
0.00137273
0.00113705
0.00162406
0.00207548
0.00250907
0.00282777
0.00276008
0.000890698
0.000786182
0.000703231
0.00063687
0.000583106
0.00053897
0.000502372
0.000471961
0.00044732
0.000488932
0.000571599
0.00101877
0.000535711
0.00248393
0.00738613
0.00499758
0.00663532
0.00717447
0.00735143
0.00747554
0.00763048
0.00788113
0.00820884
0.0085764
0.00889902
0.00911145
0.00915396
0.0089467
0.0082328
0.00602629
0.00162866
0.00202552
0.00261632
0.00319876
0.00368488
0.00400363
0.00374075
0.00101344
0.000927249
0.000869057
0.000826817
0.000791047
0.000754225
0.000718429
0.000679893
0.000633947
0.000597183
0.00061909
0.00123068
0.000594112
0.00285738
0.00944212
0.00550243
0.00639676
0.00711488
0.00715371
0.007106
0.00719398
0.00741638
0.00774822
0.00816772
0.00855289
0.00881755
0.00889587
0.00877603
0.00842772
0.00768014
0.00631161
0.00583968
0.00570775
0.00570345
0.00573855
0.0057425
0.00554839
0.00466897
0.00427825
0.0040586
0.00388514
0.00369778
0.0034571
0.00306075
0.00256959
0.00203123
0.00151736
0.00113245
0.00117752
0.000836793
0.000726252
0.000866248
0.0009766
0.00325029
0.0116642
0.00755361
0.00636421
0.00693241
0.00717637
0.00700687
0.00706795
0.0072357
0.00753923
0.00795432
0.00837596
0.00866983
0.00874062
0.0085773
0.00824957
0.00786292
0.00749417
0.00731204
0.00720942
0.00710709
0.00698576
0.00682124
0.00656172
0.00613968
0.00575995
0.00542532
0.00511272
0.0048085
0.00450399
0.00414732
0.00367292
0.00308725
0.00243629
0.00185804
0.00138008
0.0011359
0.000997056
0.00141461
0.0010304
0.0036068
0.0132147
0.0105755
0.00812891
0.00769322
0.0076235
0.00737013
0.00721068
0.00726431
0.00755289
0.00800362
0.00846646
0.00876986
0.00880127
0.00855903
0.00816905
0.00785697
0.00777559
0.00783349
0.00781973
0.00766563
0.00739398
0.00702353
0.00657488
0.00609242
0.00564195
0.00524343
0.00489703
0.00460067
0.00435481
0.00415454
0.00391557
0.00351174
0.00297071
0.00243842
0.00196081
0.0016696
0.00164662
0.00173123
0.00122865
0.00367246
0.0117658
0.0104248
0.00957951
0.00890871
0.00810392
0.00745226
0.00718102
0.00731305
0.00775467
0.00833789
0.00885191
0.00910215
0.00900228
0.00860385
0.00810749
0.00783192
0.00789553
0.00795579
0.00776108
0.00736173
0.00682719
0.00622502
0.00563265
0.00511564
0.00469985
0.00437824
0.00413961
0.00397589
0.00388231
0.00385633
0.00387613
0.00379261
0.00348544
0.00323827
0.00320161
0.00354034
0.00419591
0.00494509
0.00182777
0.00356961
0.00423543
0.0047167
0.00486079
0.00495069
0.00519452
0.00570485
0.00648783
0.00744593
0.0084071
0.00918713
0.00960625
0.00953955
0.00904894
0.00834747
0.00784632
0.0076127
0.00748505
0.00721893
0.0067362
0.00609442
0.00539481
0.00474534
0.00422182
0.00384173
0.00358023
0.00340257
0.0032804
0.00319226
0.00312194
0.003058
0.00299465
0.00294523
0.00291256
0.00291053
0.0029192
0.00286223
0.00268859
0.00247634
0.00168363
0.00186438
0.00374835
0.00587659
0.00763517
0.00898999
0.0100061
0.0106266
0.0108425
0.0106903
0.0101343
0.00924409
0.00815826
0.0072487
0.00672935
0.00641561
0.00603798
0.00549261
0.00483098
0.00417408
0.00361875
0.0032054
0.00293996
0.00278767
0.00271019
0.00267941
0.00267716
0.00269221
0.00271857
0.0027548
0.00280848
0.0028674
0.00292324
0.002964
0.00295664
0.00285512
0.00265958
0.00237014
0.00137583
0.00244594
0.00608571
0.00910555
0.0100119
0.0104366
0.0104914
0.0101331
0.00943303
0.0085158
0.00749825
0.00653786
0.00569297
0.0050686
0.0046286
0.00419679
0.00368971
0.00315135
0.00267436
0.00232436
0.00210948
0.00200271
0.00196041
0.00197023
0.00201721
0.00209224
0.00218923
0.00230247
0.0024243
0.00255251
0.00269251
0.0028394
0.00298164
0.00309759
0.00317599
0.00313987
0.00313087
0.00296107
0.00139651
0.00215035
0.00227543
0.00236572
0.00251543
0.00240101
0.00225856
0.00216444
0.00205417
0.00191049
0.00173868
0.00154818
0.00134974
0.00115442
0.000983201
0.000850658
0.00075425
0.000685116
0.000636748
0.000605995
0.000591024
0.000589644
0.000599291
0.000617843
0.000643632
0.000674368
0.00070966
0.00074944
0.000793967
0.000843989
0.000901123
0.00096658
0.00103865
0.00111774
0.00120425
0.00129798
0.00141312
0.00143462
0.00138806
0.00129943
0.00119759
)
;

boundaryField
{
    floor
    {
        type            compressible::alphatWallFunction;
        Prt             0.85;
        value           nonuniform List<scalar> 
29
(
0.000191973
7.46884e-05
9.13437e-05
0.000102476
0.000101796
9.82508e-05
9.3569e-05
8.75171e-05
8.14289e-05
7.58382e-05
7.08268e-05
6.63538e-05
6.23721e-05
5.88188e-05
5.56077e-05
5.26433e-05
4.97887e-05
4.68778e-05
4.60101e-05
4.19387e-05
4.19381e-05
6.16952e-05
7.46745e-05
8.34829e-05
0.000191971
7.46875e-05
8.14272e-05
0.000161437
0.000228203
)
;
    }
    ceiling
    {
        type            compressible::alphatWallFunction;
        Prt             0.85;
        value           nonuniform List<scalar> 
43
(
0.000296526
0.000312639
0.000324216
0.000343424
0.000328896
0.000310663
0.000298549
0.000284275
0.000265544
0.000242939
0.00021758
0.00019079
0.000163984
0.000140055
0.000121198
0.000107264
9.71387e-05
8.99802e-05
8.53929e-05
8.31481e-05
8.29387e-05
8.4383e-05
8.71548e-05
9.0992e-05
9.55415e-05
0.000100734
0.000106551
0.000113017
0.000120231
0.000128408
0.000137702
0.00014785
0.000158894
0.000170871
0.000183737
0.000199398
0.000202307
0.000196003
0.000183936
0.000169956
0.000475103
0.000555972
0.000334304
)
;
    }
    sWall
    {
        type            compressible::alphatWallFunction;
        Prt             0.85;
        value           uniform 0.000295308;
    }
    nWall
    {
        type            compressible::alphatWallFunction;
        Prt             0.85;
        value           nonuniform List<scalar> 6(0.000138782 0.000146349 0.000173876 0.000194008 0.000196811 0.000169623);
    }
    sideWalls
    {
        type            empty;
    }
    glass1
    {
        type            compressible::alphatWallFunction;
        Prt             0.85;
        value           nonuniform List<scalar> 9(0.000173792 0.000236013 0.000286196 0.000333205 0.000380045 0.000428686 0.000472341 0.000480468 0.000468179);
    }
    glass2
    {
        type            compressible::alphatWallFunction;
        Prt             0.85;
        value           nonuniform List<scalar> 2(0.000252789 0.000233898);
    }
    sun
    {
        type            compressible::alphatWallFunction;
        Prt             0.85;
        value           nonuniform List<scalar> 
14
(
0.000178209
0.000193938
0.000196771
0.000205684
0.000213929
0.000221613
0.000229115
0.000236273
0.000241113
0.000242784
0.00024051
0.000233791
0.0002226
0.000207856
)
;
    }
    heatsource1
    {
        type            compressible::alphatWallFunction;
        Prt             0.85;
        value           nonuniform List<scalar> 3(0.000103167 0.000123426 0.00013912);
    }
    heatsource2
    {
        type            compressible::alphatWallFunction;
        Prt             0.85;
        value           nonuniform List<scalar> 4(0.000193945 0.000117109 0.000117108 0.000193926);
    }
    Table_master
    {
        type            compressible::alphatWallFunction;
        Prt             0.85;
        value           nonuniform List<scalar> 9(0.000126929 0.000111897 9.97964e-05 8.99914e-05 8.19557e-05 7.52906e-05 6.9712e-05 6.50377e-05 6.12223e-05);
    }
    Table_slave
    {
        type            compressible::alphatWallFunction;
        Prt             0.85;
        value           nonuniform List<scalar> 9(0.000144323 0.000132138 0.000123836 0.000117769 0.000112602 0.000107254 0.000102026 9.63609e-05 8.95557e-05);
    }
    inlet
    {
        type            fixedValue;
        value           uniform 1.94e-05;
    }
    outlet
    {
        type            zeroGradient;
    }
}


// ************************************************************************* //
