// -*- C++ -*-
// File generated by PyFoam - sorry for the ugliness

FoamFile
{
 version 2.0;
 format ascii;
 class volScalarField;
 location "300";
 object T;
}

dimensions [ 0 0 0 1 0 0 0 ];

internalField nonuniform List<scalar> 459
(
  303.248
  302.982
  302.972
  302.97
  302.969
  302.966
  302.963
  302.959
  302.952
  302.942
  302.931
  302.92
  302.911
  302.905
  302.904
  302.934
  302.926
  302.928
  302.931
  302.932
  302.932
  302.931
  302.93
  302.928
  302.927
  302.925
  302.924
  302.922
  302.92
  302.919
  302.918
  302.917
  302.917
  302.932
  303.427
  303.025
  303.003
  303.009
  303.014
  303.018
  303.018
  303.014
  303.002
  302.982
  302.958
  302.936
  302.918
  302.905
  302.894
  302.878
  302.832
  302.933
  302.927
  302.93
  302.934
  302.937
  302.937
  302.933
  302.928
  302.923
  302.918
  302.912
  302.907
  302.902
  302.897
  302.893
  302.891
  302.889
  302.89
  302.916
  303.614
  303.075
  303.037
  303.051
  303.067
  303.08
  303.088
  303.086
  303.067
  303.033
  302.992
  302.956
  302.929
  302.912
  302.903
  302.897
  302.884
  302.933
  302.936
  302.942
  302.95
  302.957
  302.961
  302.954
  302.947
  302.939
  302.932
  302.924
  302.917
  302.91
  302.903
  302.897
  302.894
  302.889
  302.887
  302.911
  303.802
  303.138
  303.072
  303.09
  303.121
  303.15
  303.171
  303.173
  303.144
  303.089
  303.026
  302.972
  302.935
  302.915
  302.909
  302.908
  302.91
  302.92
  302.931
  302.946
  302.962
  302.977
  302.989
  302.999
  303.008
  303.016
  303.025
  303.032
  303.038
  303.042
  303.045
  303.047
  303.046
  302.994
  302.945
  302.91
  302.915
  303.984
  303.217
  303.112
  303.124
  303.165
  303.212
  303.254
  303.259
  303.214
  303.135
  303.048
  302.979
  302.935
  302.913
  302.91
  302.916
  302.926
  302.941
  302.958
  302.978
  302.998
  303.016
  303.032
  303.045
  303.058
  303.07
  303.081
  303.089
  303.095
  303.097
  303.094
  303.088
  303.077
  303.043
  302.991
  302.941
  302.921
  303.015
  303.059
  303.067
  304.148
  303.32
  303.182
  303.171
  303.209
  303.27
  303.329
  303.319
  303.251
  303.151
  303.051
  302.971
  302.923
  302.905
  302.908
  302.924
  302.945
  302.968
  302.993
  303.018
  303.041
  303.061
  303.079
  303.093
  303.106
  303.117
  303.127
  303.133
  303.137
  303.136
  303.13
  303.119
  303.103
  303.075
  303.03
  302.978
  302.944
  302.973
  302.99
  303.026
  304.299
  303.485
  303.346
  303.314
  303.331
  303.384
  303.404
  303.352
  303.246
  303.121
  303.009
  302.931
  302.893
  302.888
  302.907
  302.939
  302.975
  303.009
  303.04
  303.068
  303.091
  303.11
  303.126
  303.139
  303.15
  303.158
  303.164
  303.168
  303.168
  303.164
  303.156
  303.142
  303.124
  303.099
  303.063
  303.019
  302.986
  302.987
  302.994
  303.021
  304.519
  303.909
  303.756
  303.664
  303.621
  303.581
  303.478
  303.323
  303.152
  303.004
  302.9
  302.849
  302.845
  302.872
  302.918
  302.974
  303.025
  303.067
  303.099
  303.122
  303.141
  303.156
  303.168
  303.177
  303.184
  303.188
  303.19
  303.189
  303.185
  303.18
  303.172
  303.16
  303.143
  303.122
  303.096
  303.068
  303.052
  303.062
  303.075
  303.194
  304.834
  304.547
  304.29
  304.058
  303.844
  303.588
  303.281
  303.009
  302.819
  302.721
  302.702
  302.739
  302.811
  302.89
  302.969
  303.05
  303.1
  303.132
  303.154
  303.171
  303.184
  303.194
  303.2
  303.205
  303.206
  303.206
  303.204
  303.201
  303.197
  303.193
  303.189
  303.187
  303.186
  303.19
  303.2
  303.219
  303.248
  303.278
  303.298
  303.352
  296.46
  298.404
  299.584
  300.294
  300.918
  301.46
  301.908
  302.26
  302.528
  302.743
  302.922
  303.023
  303.09
  303.135
  303.165
  303.186
  303.2
  303.21
  303.216
  303.22
  303.222
  303.222
  303.222
  303.22
  303.218
  303.217
  303.215
  303.214
  303.214
  303.215
  303.218
  303.224
  303.235
  303.252
  303.274
  303.296
  303.315
  303.34
  297.133
  298.916
  300.341
  301.179
  301.723
  302.134
  302.451
  302.688
  302.86
  302.981
  303.072
  303.132
  303.171
  303.196
  303.213
  303.224
  303.232
  303.236
  303.238
  303.238
  303.237
  303.236
  303.234
  303.233
  303.232
  303.231
  303.23
  303.23
  303.23
  303.231
  303.233
  303.238
  303.246
  303.258
  303.272
  303.29
  303.29
  303.322
  299.601
  299.528
  299.523
  301.266
  302.074
  302.453
  302.673
  302.832
  302.951
  303.041
  303.108
  303.157
  303.192
  303.216
  303.231
  303.241
  303.247
  303.25
  303.252
  303.252
  303.251
  303.249
  303.248
  303.246
  303.244
  303.243
  303.242
  303.241
  303.24
  303.239
  303.239
  303.239
  303.24
  303.242
  303.246
  303.256
  303.264
  303.269
  303.273
  303.311
)
;

boundaryField
{
  floor
  {
    type wallHeatTransfer;
    Tinf uniform 305.2;
    alphaWall uniform 0.24;
    value nonuniform List<scalar> 29
(
  303.132
  303.371
  303.312
  303.286
  303.29
  303.3
  303.312
  303.328
  303.345
  303.363
  303.379
  303.395
  303.411
  303.426
  303.44
  303.454
  303.468
  303.484
  303.489
  303.526
  303.526
  303.408
  303.353
  303.327
  303.132
  303.371
  303.348
  303.191
  303.117
)
;
  }
  ceiling
  {
    type wallHeatTransfer;
    Tinf uniform 303.2;
    alphaWall uniform 0.24;
    value nonuniform List<scalar> 43
(
  299.851
  299.771
  299.759
  301.384
  302.145
  302.502
  302.709
  302.858
  302.97
  303.054
  303.116
  303.161
  303.193
  303.214
  303.227
  303.235
  303.239
  303.242
  303.243
  303.242
  303.242
  303.241
  303.239
  303.238
  303.237
  303.236
  303.235
  303.235
  303.234
  303.234
  303.234
  303.235
  303.236
  303.238
  303.241
  303.251
  303.258
  303.263
  303.265
  303.299
  304.759
  304.494
  297.512
)
;
  }
  sWall
  {
    type wallHeatTransfer;
    Tinf uniform 315.2;
    alphaWall uniform 0.36;
    value uniform 301.174;
  }
  nWall
  {
    type wallHeatTransfer;
    Tinf uniform 307.2;
    alphaWall uniform 0.36;
    value nonuniform List<scalar> 6
(
  303.809
  303.748
  303.659
  303.883
  303.862
  303.917
)
;
  }
  sideWalls
  {
    type empty;
  }
  glass1
  {
    type wallHeatTransfer;
    Tinf uniform 315.2;
    alphaWall uniform 4.3;
    value nonuniform List<scalar> 9
(
  311.412
  310.746
  310.329
  310.014
  309.755
  309.522
  309.35
  309.425
  309.658
)
;
  }
  glass2
  {
    type wallHeatTransfer;
    Tinf uniform 307.2;
    alphaWall uniform 4.3;
    value nonuniform List<scalar> 2
(
  305.625
  305.751
)
;
  }
  sun
  {
    type wallHeatTransfer;
    Tinf uniform 305.2;
    alphaWall uniform 0.24;
    value nonuniform List<scalar> 14
(
  303.453
  303.201
  303.188
  303.18
  303.172
  303.164
  303.156
  303.147
  303.138
  303.128
  303.118
  303.113
  303.112
  303.118
)
;
  }
  heatsource1
  {
    type fixedGradient;
    gradient uniform 0;
  }
  heatsource2
  {
    type fixedGradient;
    gradient uniform 0;
  }
  Table_master
  {
    type zeroGradient;
  }
  Table_slave
  {
    type zeroGradient;
  }
  inlet
  {
    type fixedValue;
    value uniform 293.15;
  }
  outlet
  {
    type zeroGradient;
  }
} 	// ************************************************************************* //

