// -*- C++ -*-
// File generated by PyFoam - sorry for the ugliness

FoamFile
{
 version 2.0;
 format ascii;
 class volVectorField;
 location "300";
 object U;
}

dimensions [ 0 1 -1 0 0 0 0 ];

internalField nonuniform List<vector> 459
(
  (0.0836173 0.0619628 0)
  (-0.125401 0.0032001 0)
  (-0.110577 0.00500532 0)
  (-0.122278 0.00564515 0)
  (-0.133527 0.00469984 0)
  (-0.143301 0.00310462 0)
  (-0.15078 0.00105942 0)
  (-0.15531 -0.00142181 0)
  (-0.156215 -0.00438865 0)
  (-0.152732 -0.00799266 0)
  (-0.143848 -0.0124484 0)
  (-0.127896 -0.0180247 0)
  (-0.103649 -0.0256463 0)
  (-0.0754648 -0.0370456 0)
  (-0.0624102 -0.0518095 0)
  (0.03887 0.0026201 0)
  (-0.0151943 -0.00131547 0)
  (-0.00758764 -0.00200917 0)
  (-0.00261784 -0.00162269 0)
  (-0.000189072 -0.00129097 0)
  (0.00236671 -0.00188132 0)
  (0.00527016 -0.00364722 0)
  (0.00905215 -0.00338571 0)
  (0.0124983 -0.00296224 0)
  (0.0151545 -0.00272998 0)
  (0.0171313 -0.00262225 0)
  (0.0186519 -0.0023687 0)
  (0.0190288 -0.00177218 0)
  (0.0176565 -0.00032768 0)
  (0.0151617 0.00154286 0)
  (0.0129684 0.00197759 0)
  (0.0127122 -0.000189347 0)
  (0.0187369 -0.000841793 0)
  (-0.0222632 0.00834126 0)
  (0.265879 0.134279 0)
  (-0.143447 0.0188564 0)
  (-0.0975194 0.0176453 0)
  (-0.113392 0.0181343 0)
  (-0.125248 0.0165978 0)
  (-0.135301 0.0138349 0)
  (-0.143108 0.0100968 0)
  (-0.148238 0.00538348 0)
  (-0.150131 -0.000397469 0)
  (-0.148143 -0.00736661 0)
  (-0.14189 -0.0154821 0)
  (-0.130652 -0.0248017 0)
  (-0.114261 -0.0361391 0)
  (-0.0946351 -0.051027 0)
  (-0.0763449 -0.0680018 0)
  (-0.0617382 -0.0748007 0)
  (0.0399386 0.0159347 0)
  (0.0709347 -0.000290088 0)
  (0.0086577 0.00500241 0)
  (-0.010499 0.00518397 0)
  (-0.0113076 0.00232449 0)
  (-0.0128214 -0.000129304 0)
  (-0.0130069 -0.00288429 0)
  (-0.0127228 -0.0052556 0)
  (-0.0121075 -0.00391273 0)
  (-0.0118792 -0.00238517 0)
  (-0.0126367 -0.000873125 0)
  (-0.0140868 0.000938091 0)
  (-0.0165611 0.00299974 0)
  (-0.0187631 0.00499305 0)
  (-0.0207868 0.00665178 0)
  (-0.0221286 0.0065009 0)
  (-0.0206388 0.00327348 0)
  (-0.0174554 0.00293491 0)
  (-0.0244834 0.00397103 0)
  (-0.0626037 0.00490889 0)
  (0.418915 0.204294 0)
  (-0.183037 0.0427524 0)
  (-0.0791387 0.0334019 0)
  (-0.100389 0.0301016 0)
  (-0.111942 0.0265394 0)
  (-0.121625 0.0216593 0)
  (-0.12937 0.0154101 0)
  (-0.134912 0.007725 0)
  (-0.137813 -0.00144205 0)
  (-0.137359 -0.0119946 0)
  (-0.133771 -0.0238259 0)
  (-0.127215 -0.0366796 0)
  (-0.118423 -0.0506004 0)
  (-0.108818 -0.065338 0)
  (-0.100172 -0.0781401 0)
  (-0.0957238 -0.0832014 0)
  (-0.104702 -0.0794604 0)
  (-0.0193733 0.0265921 0)
  (-0.0430025 0.0135692 0)
  (-0.0452609 0.00887776 0)
  (-0.0438514 0.00269487 0)
  (-0.0420097 -0.00259683 0)
  (-0.038794 -0.00677183 0)
  (-0.0333862 -0.00613294 0)
  (-0.0408853 -0.00589177 0)
  (-0.0440865 -0.00491014 0)
  (-0.0459155 -0.00415002 0)
  (-0.0464129 -0.00350988 0)
  (-0.0454543 -0.00298409 0)
  (-0.0437801 -0.00283729 0)
  (-0.0413576 -0.00349185 0)
  (-0.036215 -0.00635663 0)
  (-0.0248376 -0.0107579 0)
  (-0.0116408 -0.00579138 0)
  (0.00160304 -0.00281701 0)
  (-0.0305502 -0.00394156 0)
  (0.54243 0.262046 0)
  (-0.224258 0.0705974 0)
  (-0.0575332 0.0492152 0)
  (-0.0847757 0.0419055 0)
  (-0.0955276 0.0365977 0)
  (-0.10382 0.0301506 0)
  (-0.110558 0.0221784 0)
  (-0.115591 0.0124254 0)
  (-0.118556 0.000767828 0)
  (-0.118845 -0.0125269 0)
  (-0.116961 -0.0266759 0)
  (-0.114033 -0.0409097 0)
  (-0.111503 -0.0547288 0)
  (-0.111019 -0.0671851 0)
  (-0.114683 -0.0756482 0)
  (-0.126615 -0.0751181 0)
  (-0.147713 -0.055992 0)
  (-0.145576 -0.00435031 0)
  (-0.105718 0.0185217 0)
  (-0.0927874 0.0103729 0)
  (-0.0844986 0.00516141 0)
  (-0.0818128 -9.32895e-05 0)
  (-0.0811814 -0.00488478 0)
  (-0.0821554 -0.00825101 0)
  (-0.0805489 -0.00652447 0)
  (-0.0749817 -0.00583804 0)
  (-0.0696026 -0.00608758 0)
  (-0.0641344 -0.0063951 0)
  (-0.0585086 -0.00679538 0)
  (-0.0525647 -0.007379 0)
  (-0.0457066 -0.00833685 0)
  (-0.0369143 -0.010097 0)
  (-0.0264061 -0.0133998 0)
  (-0.0209933 -0.0183374 0)
  (-0.0143476 -0.0166969 0)
  (-0.00320711 -0.0126062 0)
  (-0.00120984 0.00729457 0)
  (0.63859 0.309375 0)
  (-0.258879 0.099742 0)
  (-0.0366062 0.0620232 0)
  (-0.0665464 0.0518542 0)
  (-0.0766202 0.0447399 0)
  (-0.0826004 0.0367215 0)
  (-0.087069 0.0272582 0)
  (-0.0901451 0.0158742 0)
  (-0.0915112 0.00229169 0)
  (-0.0903847 -0.0129673 0)
  (-0.0880755 -0.0281629 0)
  (-0.0860891 -0.0419193 0)
  (-0.0858858 -0.0537437 0)
  (-0.0885939 -0.0631298 0)
  (-0.0950408 -0.0688734 0)
  (-0.105464 -0.0686761 0)
  (-0.115794 -0.0577321 0)
  (-0.116711 -0.031392 0)
  (-0.106436 -0.00956583 0)
  (-0.0936455 -0.00140774 0)
  (-0.0841443 -0.000813491 0)
  (-0.0783316 -0.00278672 0)
  (-0.075146 -0.00545434 0)
  (-0.0735272 -0.00717127 0)
  (-0.0715725 -0.00683345 0)
  (-0.0686489 -0.0069327 0)
  (-0.065516 -0.00713997 0)
  (-0.0623423 -0.00741287 0)
  (-0.0591233 -0.00780679 0)
  (-0.0557889 -0.00848441 0)
  (-0.0520865 -0.00976982 0)
  (-0.0476533 -0.0122556 0)
  (-0.0425983 -0.0167454 0)
  (-0.0374041 -0.0232409 0)
  (-0.0304927 -0.0277118 0)
  (-0.0174056 -0.0309151 0)
  (0.00907501 -0.0296894 0)
  (0.0413272 -0.0377811 0)
  (0.0823881 -0.0186387 0)
  (-0.0460597 0.0272837 0)
  (0.698669 0.35156 0)
  (-0.28553 0.125362 0)
  (-0.0223634 0.0660129 0)
  (-0.0427592 0.0599017 0)
  (-0.053129 0.0514259 0)
  (-0.0570525 0.0407683 0)
  (-0.058322 0.0294764 0)
  (-0.0581333 0.0166621 0)
  (-0.056204 0.0014086 0)
  (-0.0516519 -0.0154024 0)
  (-0.0479395 -0.030583 0)
  (-0.0460018 -0.0426575 0)
  (-0.0468293 -0.0516506 0)
  (-0.0509885 -0.0577329 0)
  (-0.0584565 -0.0603564 0)
  (-0.0682156 -0.0579078 0)
  (-0.0767526 -0.048 0)
  (-0.0794923 -0.0316417 0)
  (-0.075787 -0.0175307 0)
  (-0.069273 -0.0100929 0)
  (-0.0635731 -0.00726435 0)
  (-0.0596784 -0.00704215 0)
  (-0.0574695 -0.00803374 0)
  (-0.0563846 -0.0089192 0)
  (-0.055533 -0.00907026 0)
  (-0.0545228 -0.00922618 0)
  (-0.0535086 -0.00943903 0)
  (-0.0526347 -0.00966503 0)
  (-0.0520263 -0.00995459 0)
  (-0.0518136 -0.010504 0)
  (-0.0520776 -0.01174 0)
  (-0.0528522 -0.0143842 0)
  (-0.0542076 -0.019238 0)
  (-0.0557846 -0.0263856 0)
  (-0.0557388 -0.0348123 0)
  (-0.0510234 -0.0449159 0)
  (-0.0394271 -0.0557351 0)
  (-0.0254619 -0.063436 0)
  (0.0451926 -0.0171553 0)
  (-0.0941531 0.0743927 0)
  (0.716587 0.39013 0)
  (-0.295368 0.123021 0)
  (-0.00605191 0.0366518 0)
  (0.00260524 0.0636221 0)
  (-0.0122969 0.0612763 0)
  (-0.0188195 0.0424362 0)
  (-0.0174313 0.0272074 0)
  (-0.0137231 0.0128899 0)
  (-0.00613466 -0.00411887 0)
  (0.000449467 -0.0213077 0)
  (0.00401525 -0.0346809 0)
  (0.00458379 -0.0436209 0)
  (0.00215712 -0.0491135 0)
  (-0.00354894 -0.0519456 0)
  (-0.0119723 -0.0521705 0)
  (-0.0218688 -0.0490243 0)
  (-0.030647 -0.0413887 0)
  (-0.0356178 -0.0305085 0)
  (-0.0363641 -0.0204987 0)
  (-0.0348219 -0.0139084 0)
  (-0.0330186 -0.0104086 0)
  (-0.0318484 -0.00906268 0)
  (-0.0315262 -0.00895478 0)
  (-0.0318616 -0.00920432 0)
  (-0.032445 -0.00934016 0)
  (-0.0330658 -0.00944427 0)
  (-0.0337813 -0.00947556 0)
  (-0.0347289 -0.00935041 0)
  (-0.0361366 -0.00904421 0)
  (-0.0383772 -0.00868889 0)
  (-0.0419965 -0.00872166 0)
  (-0.0476664 -0.00998771 0)
  (-0.0559873 -0.0134949 0)
  (-0.0669513 -0.0197551 0)
  (-0.0796523 -0.0288293 0)
  (-0.0922157 -0.0409083 0)
  (-0.10074 -0.0539044 0)
  (-0.101043 -0.0565281 0)
  (-0.0984166 -0.015648 0)
  (-0.155015 0.128222 0)
  (0.809321 0.4083 0)
  (-0.113971 0.0974369 0)
  (0.0692391 -0.0359649 0)
  (0.110694 0.0247755 0)
  (0.0815526 0.0434629 0)
  (0.0617549 0.0271982 0)
  (0.0593387 0.0109571 0)
  (0.061333 -0.00280996 0)
  (0.0664037 -0.0163276 0)
  (0.0688186 -0.0279729 0)
  (0.0676162 -0.0366634 0)
  (0.0636238 -0.0420588 0)
  (0.0574429 -0.0445354 0)
  (0.0493612 -0.0446967 0)
  (0.0396956 -0.0429983 0)
  (0.0291461 -0.0394493 0)
  (0.0192267 -0.0337144 0)
  (0.0117424 -0.0262965 0)
  (0.00730897 -0.019131 0)
  (0.00497005 -0.0137664 0)
  (0.00347851 -0.0104085 0)
  (0.00210412 -0.00868313 0)
  (0.000523581 -0.00805527 0)
  (-0.00130271 -0.00795842 0)
  (-0.00320789 -0.0079921 0)
  (-0.00510672 -0.00801336 0)
  (-0.00702418 -0.00787659 0)
  (-0.00902926 -0.00741034 0)
  (-0.0112518 -0.00644637 0)
  (-0.0139581 -0.00489217 0)
  (-0.0176428 -0.00286396 0)
  (-0.0230567 -0.000769306 0)
  (-0.0319332 0.000299437 0)
  (-0.046779 -0.00173592 0)
  (-0.0697625 -0.00950124 0)
  (-0.100456 -0.0244798 0)
  (-0.133343 -0.0451965 0)
  (-0.166739 -0.0697905 0)
  (-0.21669 -0.0934085 0)
  (-0.410196 -0.113086 0)
  (0.937364 0.394675 0)
  (0.443376 0.252717 0)
  (0.394374 0.162689 0)
  (0.386268 0.156429 0)
  (0.293689 0.124982 0)
  (0.234127 0.083678 0)
  (0.206833 0.0502274 0)
  (0.189995 0.0245988 0)
  (0.173566 0.00356505 0)
  (0.156558 -0.0128661 0)
  (0.141091 -0.0238478 0)
  (0.126981 -0.0299765 0)
  (0.11381 -0.0323767 0)
  (0.101299 -0.0321011 0)
  (0.0892701 -0.0299518 0)
  (0.0777362 -0.0264889 0)
  (0.0671437 -0.0220826 0)
  (0.0582272 -0.0171614 0)
  (0.0513693 -0.0125133 0)
  (0.0462474 -0.00882318 0)
  (0.0422379 -0.00630088 0)
  (0.038842 -0.0048294 0)
  (0.0357476 -0.00413854 0)
  (0.0328022 -0.00390955 0)
  (0.0299762 -0.00386751 0)
  (0.0272662 -0.0038348 0)
  (0.0246536 -0.00365908 0)
  (0.0221375 -0.00317592 0)
  (0.0197497 -0.00219632 0)
  (0.0175458 -0.000535726 0)
  (0.0157443 0.00190644 0)
  (0.014482 0.0051825 0)
  (0.013551 0.00894166 0)
  (0.0129692 0.0121277 0)
  (0.0124375 0.0131957 0)
  (0.0125287 0.0108342 0)
  (0.0120969 0.00513908 0)
  (0.0161751 -0.00434236 0)
  (0.0464758 -0.0558845 0)
  (-0.284644 -0.171153 0)
  (-0.980644 0.0540632 0)
  (0.252371 0.150106 0)
  (0.180751 0.119991 0)
  (0.17811 0.0872604 0)
  (0.190181 0.0580184 0)
  (0.194209 0.0343493 0)
  (0.190586 0.0171015 0)
  (0.183071 0.00550711 0)
  (0.173311 -0.00281706 0)
  (0.162135 -0.00822041 0)
  (0.150012 -0.0109528 0)
  (0.137557 -0.0113637 0)
  (0.125355 -0.0099275 0)
  (0.113881 -0.00722212 0)
  (0.103561 -0.00387028 0)
  (0.0947101 -0.000354073 0)
  (0.0874174 0.00275894 0)
  (0.081534 0.00503257 0)
  (0.0767494 0.00633918 0)
  (0.072733 0.00678342 0)
  (0.0692091 0.00659225 0)
  (0.0659818 0.00603447 0)
  (0.062939 0.00535638 0)
  (0.0600304 0.00474385 0)
  (0.0572481 0.00434454 0)
  (0.0546368 0.00429389 0)
  (0.0523106 0.00472583 0)
  (0.0504534 0.00573266 0)
  (0.0494144 0.00709554 0)
  (0.0492963 0.00887593 0)
  (0.0506778 0.0105987 0)
  (0.0539334 0.0108403 0)
  (0.0588326 0.00759544 0)
  (0.0654082 -0.00147837 0)
  (0.0713747 -0.0141534 0)
  (0.0764152 -0.028718 0)
  (0.0913437 -0.0583583 0)
  (-0.0317712 -0.121334 0)
  (-0.508099 0.108184 0)
  (0.221806 0.0420685 0)
  (0.114449 0.0441917 0)
  (0.12706 0.0438037 0)
  (0.15596 0.0247525 0)
  (0.174033 0.00089223 0)
  (0.18173 -0.0213197 0)
  (0.183049 -0.0408801 0)
  (0.179569 -0.0555933 0)
  (0.172083 -0.0656873 0)
  (0.161916 -0.0724472 0)
  (0.150385 -0.0767044 0)
  (0.138615 -0.079004 0)
  (0.127503 -0.0797458 0)
  (0.117692 -0.0792801 0)
  (0.109613 -0.0773003 0)
  (0.103481 -0.0746356 0)
  (0.0991265 -0.0721689 0)
  (0.096072 -0.0703134 0)
  (0.0937744 -0.0691391 0)
  (0.0917931 -0.0685267 0)
  (0.0898445 -0.0682838 0)
  (0.0877964 -0.0682175 0)
  (0.0856334 -0.0681713 0)
  (0.0834206 -0.0680267 0)
  (0.0812861 -0.0676951 0)
  (0.0794227 -0.0671064 0)
  (0.0781088 -0.0661799 0)
  (0.07751 -0.064609 0)
  (0.0778518 -0.0626952 0)
  (0.0793087 -0.0613569 0)
  (0.0818223 -0.0619729 0)
  (0.0850341 -0.0634878 0)
  (0.0874243 -0.0656991 0)
  (0.0882039 -0.0684104 0)
  (0.0859106 -0.0700763 0)
  (0.107678 -0.0777674 0)
  (-0.0138916 -0.118576 0)
  (0.685042 0.181898 0)
  (0.0970783 -0.280211 0)
  (-0.333918 0.144943 0)
  (0.143115 0.0565312 0)
  (0.0265515 0.0983958 0)
  (0.0595623 0.119195 0)
  (0.097745 0.124149 0)
  (0.12419 0.131271 0)
  (0.13751 0.144312 0)
  (0.141018 0.162397 0)
  (0.139001 0.180514 0)
  (0.13441 0.196394 0)
  (0.128877 0.21017 0)
  (0.123442 0.221562 0)
  (0.118746 0.230163 0)
  (0.115099 0.235808 0)
  (0.112555 0.238744 0)
  (0.111035 0.238318 0)
  (0.110356 0.235871 0)
  (0.110258 0.232893 0)
  (0.110458 0.230182 0)
  (0.110715 0.228027 0)
  (0.110857 0.226427 0)
  (0.110783 0.22526 0)
  (0.110455 0.224368 0)
  (0.109887 0.223608 0)
  (0.109128 0.222865 0)
  (0.108257 0.222043 0)
  (0.107371 0.221057 0)
  (0.106574 0.219796 0)
  (0.105978 0.217909 0)
  (0.105665 0.215511 0)
  (0.105461 0.213147 0)
  (0.104712 0.211721 0)
  (0.101908 0.208157 0)
  (0.095257 0.202324 0)
  (0.0821144 0.194288 0)
  (0.058462 0.182755 0)
  (0.116903 0.173344 0)
  (-0.365753 0.308859 0)
)
;

boundaryField
{
  floor
  {
    type noSlip;
  }
  ceiling
  {
    type noSlip;
  }
  sWall
  {
    type noSlip;
  }
  nWall
  {
    type noSlip;
  }
  sideWalls
  {
    type empty;
  }
  glass1
  {
    type noSlip;
  }
  glass2
  {
    type noSlip;
  }
  sun
  {
    type noSlip;
  }
  heatsource1
  {
    type noSlip;
  }
  heatsource2
  {
    type noSlip;
  }
  Table_master
  {
    type noSlip;
  }
  Table_slave
  {
    type noSlip;
  }
  inlet
  {
    type fixedValue;
    value uniform (0.0707107 -0.0707107 0);
  }
  outlet
  {
    type zeroGradient;
  }
} 	// ************************************************************************* //

