// -*- C++ -*-
// File generated by PyFoam - sorry for the ugliness

FoamFile
{
 version 2.0;
 format ascii;
 class volVectorField;
 location "200";
 object U;
}

dimensions [ 0 1 -1 0 0 0 0 ];

internalField nonuniform List<vector> 459
(
  (0.103684 0.071853 0)
  (-0.145104 0.0027254 0)
  (-0.1265 0.00669422 0)
  (-0.14204 0.00775617 0)
  (-0.157166 0.00670631 0)
  (-0.170448 0.00473933 0)
  (-0.180655 0.00214364 0)
  (-0.186782 -0.00103328 0)
  (-0.187834 -0.00482718 0)
  (-0.182755 -0.00938759 0)
  (-0.170222 -0.01483 0)
  (-0.148642 -0.0212436 0)
  (-0.117775 -0.0294719 0)
  (-0.085657 -0.0413122 0)
  (-0.0809554 -0.0554896 0)
  (0.0318815 0.00943161 0)
  (-0.0299563 -0.010228 0)
  (-0.0122452 -0.0149045 0)
  (0.00589066 -0.0118392 0)
  (0.0150477 -0.00447125 0)
  (0.0186377 0.0098376 0)
  (-0.0130954 0.0114898 0)
  (-0.0268254 -0.00133275 0)
  (-0.0295695 -0.00558743 0)
  (-0.0275794 -0.00709136 0)
  (-0.0237028 -0.00865341 0)
  (-0.0168914 -0.0113664 0)
  (-0.00545457 -0.0159127 0)
  (0.0138028 -0.0225229 0)
  (0.0270838 -0.0174094 0)
  (0.0399248 -0.0144882 0)
  (0.0479576 -0.0126546 0)
  (0.0565096 -0.00358804 0)
  (-0.00962716 0.0241389 0)
  (0.316302 0.156731 0)
  (-0.169372 0.0207395 0)
  (-0.116442 0.0233886 0)
  (-0.138562 0.0243516 0)
  (-0.155357 0.022451 0)
  (-0.169697 0.0187757 0)
  (-0.180844 0.0136465 0)
  (-0.188062 0.00707146 0)
  (-0.190474 -0.00104938 0)
  (-0.187204 -0.0108053 0)
  (-0.177479 -0.0218826 0)
  (-0.160505 -0.0338426 0)
  (-0.136524 -0.0470157 0)
  (-0.108444 -0.0625567 0)
  (-0.0818973 -0.078273 0)
  (-0.0593386 -0.0835508 0)
  (0.0437762 0.0117493 0)
  (0.136524 0.023922 0)
  (-0.00626852 0.00375703 0)
  (-0.0152915 -0.00874937 0)
  (-0.0122196 -0.0127032 0)
  (-0.00629453 -0.0118021 0)
  (0.0227526 0.0138639 0)
  (0.0208393 0.0224717 0)
  (0.0156653 0.0123324 0)
  (0.0139309 0.00319345 0)
  (0.00991701 -0.00192748 0)
  (0.00720228 -0.005169 0)
  (0.0069589 -0.00911803 0)
  (0.0115639 -0.0163203 0)
  (0.0098587 -0.0232136 0)
  (0.00928831 -0.0165915 0)
  (0.0173965 -0.0155184 0)
  (0.0172427 -0.0176766 0)
  (0.0396567 -0.000223972 0)
  (-0.0841323 0.0555029 0)
  (0.494081 0.24011 0)
  (-0.216992 0.0509825 0)
  (-0.0980374 0.0459704 0)
  (-0.128567 0.0420689 0)
  (-0.146094 0.0374222 0)
  (-0.161302 0.0307263 0)
  (-0.173659 0.0218868 0)
  (-0.182597 0.010839 0)
  (-0.187306 -0.00243524 0)
  (-0.186715 -0.0177438 0)
  (-0.180889 -0.0347664 0)
  (-0.169937 -0.0524446 0)
  (-0.154964 -0.0698444 0)
  (-0.138069 -0.085747 0)
  (-0.12171 -0.0963278 0)
  (-0.109674 -0.0951116 0)
  (-0.111325 -0.0817146 0)
  (0.0859732 0.0367966 0)
  (-0.055825 0.012277 0)
  (-0.0483108 -0.00167569 0)
  (-0.0476128 -0.0165405 0)
  (-0.042892 -0.0270933 0)
  (-0.038494 -0.0312802 0)
  (0.0359612 0.0209347 0)
  (0.0389228 0.0158187 0)
  (0.0438235 0.0102412 0)
  (0.0470437 0.00588906 0)
  (0.0459413 0.00171027 0)
  (0.0408003 -0.00304122 0)
  (0.0316428 -0.00994442 0)
  (0.0078003 -0.0171689 0)
  (-0.018953 -0.000936528 0)
  (-0.013175 0.00487451 0)
  (-0.0389412 0.0108682 0)
  (-0.081317 0.0229121 0)
  (-0.182921 0.0390374 0)
  (0.638779 0.310109 0)
  (-0.266693 0.0870011 0)
  (-0.0732919 0.0698707 0)
  (-0.112989 0.0605572 0)
  (-0.129632 0.053731 0)
  (-0.144281 0.0448883 0)
  (-0.156813 0.0333751 0)
  (-0.166682 0.0189065 0)
  (-0.173081 0.00142077 0)
  (-0.174776 -0.0186247 0)
  (-0.172144 -0.0400427 0)
  (-0.166573 -0.0609526 0)
  (-0.159998 -0.0794369 0)
  (-0.154777 -0.0933842 0)
  (-0.153495 -0.099018 0)
  (-0.160153 -0.0894174 0)
  (-0.174968 -0.0514327 0)
  (-0.164053 0.0292448 0)
  (-0.101982 0.0283498 0)
  (-0.105848 0.0136277 0)
  (-0.0891798 -0.00399364 0)
  (-0.0847391 -0.0188063 0)
  (-0.0864638 -0.0293598 0)
  (-0.0921841 -0.0330901 0)
  (-0.0859045 -0.0214478 0)
  (-0.0622956 -0.0211678 0)
  (-0.0372597 -0.0255458 0)
  (-0.00764145 -0.0322776 0)
  (0.0330154 -0.0327828 0)
  (0.0632509 -0.0283653 0)
  (0.0915994 -0.0238941 0)
  (0.115317 -0.0181587 0)
  (0.131635 -0.00964906 0)
  (0.132458 0.00505398 0)
  (0.113348 0.0241697 0)
  (0.0872725 0.0342906 0)
  (-0.0328819 0.0282541 0)
  (0.754847 0.368304 0)
  (-0.3106 0.124852 0)
  (-0.0456252 0.090284 0)
  (-0.0919554 0.0767609 0)
  (-0.106183 0.0682129 0)
  (-0.118144 0.0577102 0)
  (-0.128679 0.0441384 0)
  (-0.137303 0.0269562 0)
  (-0.143263 0.00603799 0)
  (-0.145056 -0.0178762 0)
  (-0.14301 -0.0424293 0)
  (-0.139616 -0.0645973 0)
  (-0.136901 -0.0822318 0)
  (-0.1367 -0.0940554 0)
  (-0.140167 -0.0988555 0)
  (-0.146916 -0.0947451 0)
  (-0.151831 -0.0773827 0)
  (-0.147041 -0.0421055 0)
  (-0.128747 -0.0116863 0)
  (-0.106875 -0.00387596 0)
  (-0.0892846 -0.0123148 0)
  (-0.0803557 -0.0219464 0)
  (-0.0764653 -0.0296753 0)
  (-0.0735857 -0.0328763 0)
  (-0.0653453 -0.0297975 0)
  (-0.0497396 -0.0329835 0)
  (-0.0297823 -0.0406735 0)
  (-0.00487728 -0.0512217 0)
  (0.0246558 -0.0514519 0)
  (0.0493792 -0.0454194 0)
  (0.0729372 -0.0393394 0)
  (0.0949621 -0.0299799 0)
  (0.113996 -0.0129292 0)
  (0.12808 0.0123721 0)
  (0.131115 0.0391247 0)
  (0.129367 0.0591258 0)
  (0.095166 0.0681817 0)
  (0.112258 0.0682694 0)
  (0.0587164 0.0417502 0)
  (-0.392413 -0.0388393 0)
  (0.832468 0.420506 0)
  (-0.34758 0.15898 0)
  (-0.02271 0.100574 0)
  (-0.064654 0.0894782 0)
  (-0.0761887 0.0795055 0)
  (-0.0841904 0.0672828 0)
  (-0.0906737 0.0521078 0)
  (-0.0956723 0.0330092 0)
  (-0.0987347 0.00946362 0)
  (-0.0976604 -0.0178093 0)
  (-0.0942944 -0.0447977 0)
  (-0.0916393 -0.0668557 0)
  (-0.0910744 -0.0823041 0)
  (-0.0934714 -0.090794 0)
  (-0.0988477 -0.0919395 0)
  (-0.10571 -0.0848146 0)
  (-0.10993 -0.0688014 0)
  (-0.106998 -0.0474842 0)
  (-0.0961719 -0.0293764 0)
  (-0.0819125 -0.0221422 0)
  (-0.07003 -0.0238675 0)
  (-0.0627286 -0.0288479 0)
  (-0.0586151 -0.0340961 0)
  (-0.055173 -0.0377991 0)
  (-0.0491811 -0.0407329 0)
  (-0.0390359 -0.0479207 0)
  (-0.0255905 -0.0596662 0)
  (-0.00755451 -0.0742753 0)
  (0.0131072 -0.0738204 0)
  (0.0300074 -0.0668128 0)
  (0.0465487 -0.0613942 0)
  (0.0645774 -0.0524777 0)
  (0.0837313 -0.0339472 0)
  (0.104387 -0.00242254 0)
  (0.120176 0.0335245 0)
  (0.12994 0.0620066 0)
  (0.127475 0.0746896 0)
  (0.13368 0.0764912 0)
  (0.141344 0.0778075 0)
  (-0.0796594 0.0607493 0)
  (0.856395 0.468558 0)
  (-0.365773 0.161406 0)
  (-0.0025817 0.0754093 0)
  (-0.0178382 0.0975675 0)
  (-0.0323669 0.0917647 0)
  (-0.0395818 0.0736107 0)
  (-0.0418516 0.055021 0)
  (-0.0416548 0.0341237 0)
  (-0.0395943 0.00831067 0)
  (-0.031183 -0.0219872 0)
  (-0.0265099 -0.0490897 0)
  (-0.0257013 -0.0686519 0)
  (-0.0284635 -0.0807605 0)
  (-0.0345126 -0.0862837 0)
  (-0.0429355 -0.0857132 0)
  (-0.0518287 -0.0789119 0)
  (-0.0582809 -0.0661696 0)
  (-0.0594257 -0.0508878 0)
  (-0.0552515 -0.0380814 0)
  (-0.0484334 -0.0315944 0)
  (-0.0422738 -0.030856 0)
  (-0.0382908 -0.0332 0)
  (-0.0361584 -0.0367515 0)
  (-0.0348501 -0.040631 0)
  (-0.0329022 -0.0462464 0)
  (-0.0288693 -0.0567209 0)
  (-0.0236617 -0.0722943 0)
  (-0.0125786 -0.091496 0)
  (-0.00151201 -0.0881808 0)
  (0.00532431 -0.0790488 0)
  (0.0111453 -0.075651 0)
  (0.0202302 -0.0705819 0)
  (0.0329224 -0.0563944 0)
  (0.0510003 -0.0272525 0)
  (0.0789283 0.015019 0)
  (0.0966545 0.0489644 0)
  (0.108024 0.0649276 0)
  (0.12403 0.0691561 0)
  (0.165007 0.0849458 0)
  (-0.0579538 0.151598 0)
  (0.961728 0.491338 0)
  (-0.1444 0.14646 0)
  (0.0718902 0.0186934 0)
  (0.103815 0.0512633 0)
  (0.0696722 0.071176 0)
  (0.0450072 0.0575584 0)
  (0.0386431 0.0364251 0)
  (0.0404751 0.0150279 0)
  (0.046072 -0.0112268 0)
  (0.0586954 -0.0344375 0)
  (0.0603275 -0.053 0)
  (0.0556192 -0.0663032 0)
  (0.0468679 -0.0742221 0)
  (0.0352468 -0.0771206 0)
  (0.0219515 -0.0755564 0)
  (0.00864062 -0.0699118 0)
  (-0.00263702 -0.060474 0)
  (-0.00913649 -0.0497829 0)
  (-0.0113145 -0.0408611 0)
  (-0.0109616 -0.0357189 0)
  (-0.0101565 -0.0343612 0)
  (-0.010067 -0.0355502 0)
  (-0.0108549 -0.0380596 0)
  (-0.0126533 -0.0412819 0)
  (-0.0154506 -0.0469701 0)
  (-0.0178766 -0.0587036 0)
  (-0.022742 -0.0764679 0)
  (-0.018113 -0.100905 0)
  (-0.0158476 -0.090862 0)
  (-0.0219367 -0.0777598 0)
  (-0.0317018 -0.0753951 0)
  (-0.0390197 -0.0743445 0)
  (-0.0433032 -0.0679983 0)
  (-0.0411659 -0.0528467 0)
  (-0.0216909 -0.0278961 0)
  (0.00918691 0.0068852 0)
  (0.0202783 0.0207416 0)
  (0.0408659 0.0195473 0)
  (0.135136 0.0932522 0)
  (-0.535512 0.280023 0)
  (1.10317 0.447798 0)
  (0.529356 0.29614 0)
  (0.518624 0.24416 0)
  (0.470555 0.205324 0)
  (0.375753 0.174379 0)
  (0.296148 0.132097 0)
  (0.249235 0.0876379 0)
  (0.223314 0.0485578 0)
  (0.208301 0.0153503 0)
  (0.187638 -0.0136953 0)
  (0.166861 -0.0359143 0)
  (0.146387 -0.0508961 0)
  (0.126039 -0.0593614 0)
  (0.105897 -0.0624833 0)
  (0.0864327 -0.0615144 0)
  (0.0684302 -0.0576143 0)
  (0.0529535 -0.0519002 0)
  (0.0411097 -0.0456339 0)
  (0.0329536 -0.0402674 0)
  (0.0274989 -0.0369314 0)
  (0.0233152 -0.0358232 0)
  (0.0194363 -0.0364608 0)
  (0.0155524 -0.0379955 0)
  (0.010721 -0.0394623 0)
  (0.00365284 -0.042452 0)
  (-0.00400918 -0.0523025 0)
  (-0.0208082 -0.068777 0)
  (-0.0209019 -0.10065 0)
  (-0.0256723 -0.0803565 0)
  (-0.0447462 -0.0601917 0)
  (-0.0750149 -0.0551815 0)
  (-0.107125 -0.0504563 0)
  (-0.143399 -0.0376594 0)
  (-0.184394 -0.0128437 0)
  (-0.226378 0.0234957 0)
  (-0.263868 0.0625134 0)
  (-0.310812 0.0972988 0)
  (-0.365849 0.123362 0)
  (-0.443841 0.137259 0)
  (-0.764625 0.13116 0)
  (-0.162688 0.136241 0)
  (0.180127 0.20139 0)
  (0.252232 0.185663 0)
  (0.244212 0.146105 0)
  (0.242471 0.101176 0)
  (0.243952 0.0595462 0)
  (0.241819 0.0250273 0)
  (0.233556 -0.00192483 0)
  (0.218334 -0.0213152 0)
  (0.198693 -0.0337546 0)
  (0.176899 -0.0405057 0)
  (0.154725 -0.0428949 0)
  (0.133518 -0.0421978 0)
  (0.114211 -0.0395652 0)
  (0.0974071 -0.0360105 0)
  (0.0834426 -0.0323864 0)
  (0.0722637 -0.0292816 0)
  (0.0632943 -0.0269893 0)
  (0.0555874 -0.0255144 0)
  (0.0485094 -0.0247503 0)
  (0.0420131 -0.0244031 0)
  (0.0347804 -0.023468 0)
  (0.0248472 -0.0227766 0)
  (0.0164122 -0.0275201 0)
  (-0.0123613 -0.0389754 0)
  (-0.0177053 -0.0870832 0)
  (-0.0282205 -0.0529223 0)
  (-0.0454864 -0.0292288 0)
  (-0.0792043 -0.0259935 0)
  (-0.108131 -0.0223298 0)
  (-0.133945 -0.0120362 0)
  (-0.155114 0.00827006 0)
  (-0.174906 0.0375079 0)
  (-0.19203 0.0722744 0)
  (-0.202237 0.0963184 0)
  (-0.19518 0.0813085 0)
  (-0.175441 -0.025169 0)
  (-0.290789 -0.262972 0)
  (-0.0897661 0.28795 0)
  (0.0679222 0.213294 0)
  (0.0978847 0.158507 0)
  (0.134403 0.125275 0)
  (0.171285 0.0915906 0)
  (0.199045 0.0637019 0)
  (0.213437 0.0452469 0)
  (0.21563 0.0363474 0)
  (0.209484 0.0331548 0)
  (0.198281 0.031072 0)
  (0.1843 0.0305206 0)
  (0.168993 0.0317278 0)
  (0.15352 0.0346955 0)
  (0.138804 0.0390918 0)
  (0.125471 0.0441318 0)
  (0.113796 0.0486148 0)
  (0.103669 0.0514075 0)
  (0.0946177 0.0521126 0)
  (0.0859705 0.0508702 0)
  (0.0772399 0.0471122 0)
  (0.0682972 0.0414216 0)
  (0.0586839 0.0411813 0)
  (0.0483428 0.04402 0)
  (0.0381561 0.0210122 0)
  (0.0165824 0.0504397 0)
  (-0.00974241 -0.0868109 0)
  (-0.0465822 -0.0187916 0)
  (-0.0495652 0.0623134 0)
  (-0.0643818 0.0644304 0)
  (-0.072589 0.0585648 0)
  (-0.0776543 0.0538836 0)
  (-0.0800449 0.0530782 0)
  (-0.0766712 0.0643313 0)
  (-0.0664512 0.0874401 0)
  (-0.0480598 0.111219 0)
  (-0.0209956 0.115591 0)
  (0.140072 0.0363008 0)
  (-0.19669 -0.183293 0)
  (-0.255273 -0.420238 0)
  (-0.507447 -0.109322 0)
  (-0.359345 0.180036 0)
  (-0.198324 0.073795 0)
  (-0.0830151 0.0354572 0)
  (0.0420396 0.00777026 0)
  (0.108096 -0.0240103 0)
  (0.15894 -0.0533832 0)
  (0.190091 -0.0799629 0)
  (0.20454 -0.104631 0)
  (0.207872 -0.12753 0)
  (0.204132 -0.146239 0)
  (0.19576 -0.16241 0)
  (0.18463 -0.17716 0)
  (0.172228 -0.191128 0)
  (0.159666 -0.204459 0)
  (0.147633 -0.216777 0)
  (0.136352 -0.227315 0)
  (0.125622 -0.235312 0)
  (0.11504 -0.240497 0)
  (0.104281 -0.24334 0)
  (0.0929211 -0.245013 0)
  (0.0799364 -0.246702 0)
  (0.0656412 -0.247936 0)
  (0.0542934 -0.24937 0)
  (0.0378205 -0.258938 0)
  (0.0427132 -0.211741 0)
  (0.00426662 -0.262452 0)
  (-0.0821431 -0.247401 0)
  (-0.0842235 -0.222231 0)
  (-0.0799765 -0.222686 0)
  (-0.078695 -0.215338 0)
  (-0.0719105 -0.183904 0)
  (-0.0547184 -0.148297 0)
  (-0.0267435 -0.105742 0)
  (0.0274366 -0.0469664 0)
  (0.0856368 -0.0337496 0)
  (0.141889 -0.0571933 0)
  (0.202299 -0.125483 0)
  (-0.114998 -0.212927 0)
)
;

boundaryField
{
  floor
  {
    type noSlip;
  }
  ceiling
  {
    type noSlip;
  }
  sWall
  {
    type noSlip;
  }
  nWall
  {
    type noSlip;
  }
  sideWalls
  {
    type empty;
  }
  glass1
  {
    type noSlip;
  }
  glass2
  {
    type noSlip;
  }
  sun
  {
    type noSlip;
  }
  heatsource1
  {
    type noSlip;
  }
  heatsource2
  {
    type noSlip;
  }
  Table_master
  {
    type noSlip;
  }
  Table_slave
  {
    type noSlip;
  }
  inlet
  {
    type fixedValue;
    value uniform (0.277164 -0.114805 0);
  }
  outlet
  {
    type zeroGradient;
  }
} 	// ************************************************************************* //

