/*--------------------------------*- C++ -*----------------------------------*\
  =========                 |
  \\      /  F ield         | OpenFOAM: The Open Source CFD Toolbox
   \\    /   O peration     | Website:  https://openfoam.org
    \\  /    A nd           | Version:  6
     \\/     M anipulation  |
\*---------------------------------------------------------------------------*/
FoamFile
{
    version     2.0;
    format      ascii;
    class       volScalarField;
    location    "300";
    object      alphat;
}
// * * * * * * * * * * * * * * * * * * * * * * * * * * * * * * * * * * * * * //

dimensions      [1 -1 -1 0 0 0 0];

internalField   nonuniform List<scalar> 
459
(
0.00127568
0.00139667
0.0014238
0.00149307
0.00155762
0.00161854
0.00167903
0.00173483
0.00177186
0.00178341
0.00176379
0.00170989
0.00162109
0.00150267
0.00136891
0.000557501
0.000675474
0.000764914
0.000769038
0.0007468
0.000714443
0.000670349
0.000625787
0.000585224
0.000549243
0.000517438
0.000489246
0.000464194
0.000441785
0.000421208
0.000401442
0.000381043
0.000366915
0.0003346
0.00173326
0.00428986
0.00412435
0.00480331
0.00547407
0.00613773
0.00670361
0.00714491
0.00753616
0.00784462
0.0080292
0.00804894
0.00784113
0.00723976
0.00557226
0.00140576
0.000798745
0.000592602
0.00127733
0.00180063
0.00219284
0.00241531
0.0024136
0.00190096
0.00162747
0.00143481
0.00128818
0.00117231
0.00107843
0.000998798
0.000924836
0.000852973
0.000788559
0.000732793
0.000860384
0.000435706
0.00211146
0.0058544
0.00512868
0.00638964
0.00701936
0.00748872
0.00785493
0.0081668
0.00850117
0.0088419
0.00914447
0.0093588
0.00942826
0.00925391
0.00856251
0.00652392
0.00144098
0.00115255
0.00170492
0.00224071
0.00274346
0.00309956
0.00301892
0.000958932
0.000843916
0.000751772
0.000677659
0.000617462
0.000568025
0.000527087
0.00049325
0.000466004
0.00050527
0.000588123
0.000974216
0.000504359
0.00247213
0.00744591
0.00516064
0.00674754
0.00726811
0.00745267
0.00759673
0.00778568
0.00807104
0.00843683
0.00882502
0.0091751
0.00942369
0.00948745
0.00930328
0.00854305
0.00591276
0.00169473
0.00210115
0.00274556
0.00340999
0.0039679
0.00432374
0.0040447
0.00108713
0.000988258
0.000917545
0.000863546
0.000817515
0.000775217
0.000734464
0.000691663
0.000642128
0.000601152
0.000618029
0.00112453
0.000557365
0.00283843
0.00947793
0.00566864
0.006538
0.00720351
0.00724192
0.00721479
0.00734988
0.00760315
0.0079848
0.00841911
0.00882448
0.00910835
0.0092135
0.00913012
0.00881511
0.00805439
0.00672564
0.00629975
0.00621322
0.0062394
0.00627434
0.0062483
0.00600281
0.00501447
0.00453817
0.00425723
0.00403969
0.00381507
0.00350163
0.00308675
0.00259016
0.00204612
0.0015119
0.00111917
0.00113988
0.000755097
0.000683627
0.000825079
0.000927667
0.00322608
0.0116909
0.0077465
0.00658768
0.00711305
0.00727557
0.00716835
0.00724799
0.00743822
0.00777861
0.00823074
0.00867636
0.00898268
0.00906698
0.00893593
0.00867392
0.00838064
0.0081197
0.00802097
0.00796131
0.00785904
0.00770204
0.00748597
0.00717716
0.00670344
0.00627582
0.00589949
0.00554513
0.00519227
0.00481828
0.00436273
0.00380967
0.00316126
0.00245868
0.00184924
0.00139152
0.00106011
0.000904015
0.00128453
0.000971209
0.003576
0.0132228
0.0107592
0.00845795
0.00807407
0.00785665
0.00753353
0.00737684
0.00747682
0.00782956
0.00833682
0.00883104
0.00914345
0.00918086
0.00897258
0.00868038
0.00852797
0.00860357
0.00874469
0.00874358
0.00856167
0.0082485
0.00784499
0.00737097
0.00684843
0.00635067
0.0058931
0.00547198
0.00509012
0.0047564
0.00447081
0.00411073
0.00361741
0.00301776
0.0024465
0.00194072
0.00157643
0.00147872
0.00151751
0.0011248
0.00363963
0.0116829
0.0104214
0.00967448
0.00887398
0.00801986
0.0074474
0.00730155
0.00756631
0.00812449
0.00878492
0.00932529
0.00957038
0.009469
0.00912025
0.00878328
0.00873318
0.00893395
0.00902103
0.00880683
0.00837441
0.00780688
0.00716839
0.00652
0.00591895
0.00539898
0.00495941
0.00459651
0.00431376
0.00411694
0.00400884
0.00395746
0.00374887
0.00338357
0.00307003
0.00292898
0.00308612
0.00357784
0.00433477
0.00172998
0.00353798
0.00419254
0.00463967
0.00471648
0.00485374
0.00522986
0.00591096
0.00687119
0.00797803
0.00903612
0.00983585
0.0102022
0.0100752
0.00958384
0.00901623
0.00878834
0.00873322
0.00864755
0.0083595
0.00784195
0.0071604
0.00640693
0.00566834
0.00501609
0.00448327
0.00406379
0.003735
0.00347694
0.00327337
0.00310837
0.00296663
0.00284156
0.00274615
0.00267754
0.00265241
0.00265953
0.00263067
0.0025083
0.00233449
0.00161697
0.00171645
0.00359446
0.00628498
0.00834772
0.00985767
0.0109138
0.0114939
0.011624
0.011321
0.0106638
0.00976312
0.0088381
0.00818809
0.00786816
0.0075844
0.00714935
0.00654837
0.00585058
0.00514613
0.00450042
0.00395503
0.00352907
0.00320901
0.00297138
0.00279723
0.0026735
0.00259108
0.00254392
0.00253088
0.0025485
0.00258003
0.00261937
0.0026558
0.00266027
0.0025885
0.00243228
0.00219576
0.00133874
0.0023491
0.00625814
0.00931887
0.0104823
0.0109776
0.0110175
0.0106254
0.00991382
0.00901661
0.00809884
0.00727058
0.00659716
0.00610214
0.0056781
0.00520794
0.00469118
0.00417814
0.00371794
0.00333953
0.00304669
0.00282762
0.00266013
0.00252999
0.00243022
0.00236352
0.00232931
0.00232372
0.00234266
0.00239069
0.00246423
0.00255859
0.0026637
0.00275909
0.00282513
0.00279718
0.00281988
0.00282271
0.00136391
0.00209262
0.00221708
0.00230468
0.00247018
0.00238219
0.00228999
0.00222574
0.00212781
0.0019883
0.00181858
0.00163153
0.00143932
0.00126078
0.00111622
0.00100943
0.000932023
0.000874107
0.000829179
0.000794122
0.000767715
0.000749295
0.000738196
0.00073389
0.000736009
0.000744772
0.000760646
0.000783022
0.000811856
0.000847794
0.000891834
0.000942938
0.0010011
0.00106681
0.00114046
0.00122109
0.00131918
0.00134418
0.00130606
0.00122672
0.00113958
)
;

boundaryField
{
    floor
    {
        type            compressible::alphatWallFunction;
        Prt             0.85;
        value           nonuniform List<scalar> 
29
(
0.000193273
7.79919e-05
9.55975e-05
0.000108694
0.000109295
0.000106059
0.00010133
9.48434e-05
8.82345e-05
8.21685e-05
7.67443e-05
7.19127e-05
6.7599e-05
6.37395e-05
6.02646e-05
5.70543e-05
5.39515e-05
5.07286e-05
4.84835e-05
4.33053e-05
4.33047e-05
5.93175e-05
6.9914e-05
7.79712e-05
0.000193271
7.79909e-05
8.32724e-05
0.000163601
0.000236998
)
;
    }
    ceiling
    {
        type            compressible::alphatWallFunction;
        Prt             0.85;
        value           nonuniform List<scalar> 
43
(
0.00028906
0.00030514
0.000316402
0.00033768
0.000326504
0.000314716
0.000306467
0.000293833
0.00027572
0.000253493
0.000228728
0.000202948
0.000178655
0.000158697
0.000143763
0.000132824
0.00012457
0.000118121
0.00011306
0.000109231
0.000106549
0.00010493
0.0001043
0.000104609
0.000105888
0.0001082
0.000111449
0.00011562
0.000120794
0.0001271
0.000134371
0.00014259
0.00015181
0.000162065
0.000173207
0.000186648
0.000190056
0.000184858
0.000173983
0.000161947
0.000471234
0.000550814
0.000321916
)
;
    }
    sWall
    {
        type            compressible::alphatWallFunction;
        Prt             0.85;
        value           uniform 0.00028785;
    }
    nWall
    {
        type            compressible::alphatWallFunction;
        Prt             0.85;
        value           nonuniform List<scalar> 6(0.000131879 0.000138043 0.00015955 0.000188988 0.00019241 0.000161624);
    }
    sideWalls
    {
        type            empty;
    }
    glass1
    {
        type            compressible::alphatWallFunction;
        Prt             0.85;
        value           nonuniform List<scalar> 9(0.000176196 0.000236924 0.000285906 0.000331825 0.000377803 0.000425832 0.000468721 0.000476606 0.000464446);
    }
    glass2
    {
        type            compressible::alphatWallFunction;
        Prt             0.85;
        value           nonuniform List<scalar> 2(0.000240074 0.000225189);
    }
    sun
    {
        type            compressible::alphatWallFunction;
        Prt             0.85;
        value           nonuniform List<scalar> 
14
(
0.000180583
0.000197051
0.000200723
0.000210068
0.000218731
0.000226872
0.000234921
0.000242318
0.000247211
0.000248734
0.000246144
0.00023901
0.000227207
0.000211352
)
;
    }
    heatsource1
    {
        type            compressible::alphatWallFunction;
        Prt             0.85;
        value           nonuniform List<scalar> 3(9.69077e-05 0.000117512 0.000132188);
    }
    heatsource2
    {
        type            compressible::alphatWallFunction;
        Prt             0.85;
        value           nonuniform List<scalar> 4(0.000198399 0.000113719 0.000113718 0.000203165);
    }
    Table_master
    {
        type            compressible::alphatWallFunction;
        Prt             0.85;
        value           nonuniform List<scalar> 9(0.000136622 0.000120222 0.000106892 9.60278e-05 8.70969e-05 7.96823e-05 7.34819e-05 6.83115e-05 6.41157e-05);
    }
    Table_slave
    {
        type            compressible::alphatWallFunction;
        Prt             0.85;
        value           nonuniform List<scalar> 9(0.000154636 0.000140769 0.000130752 0.000123042 0.000116424 0.000110304 0.000104369 9.80929e-05 9.07702e-05);
    }
    inlet
    {
        type            fixedValue;
        value           uniform 1.94e-05;
    }
    outlet
    {
        type            zeroGradient;
    }
}


// ************************************************************************* //
