/*--------------------------------*- C++ -*----------------------------------*\
  =========                 |
  \\      /  F ield         | OpenFOAM: The Open Source CFD Toolbox
   \\    /   O peration     | Website:  https://openfoam.org
    \\  /    A nd           | Version:  6
     \\/     M anipulation  |
\*---------------------------------------------------------------------------*/
FoamFile
{
    version     2.0;
    format      ascii;
    class       volScalarField;
    location    "400";
    object      alphat;
}
// * * * * * * * * * * * * * * * * * * * * * * * * * * * * * * * * * * * * * //

dimensions      [1 -1 -1 0 0 0 0];

internalField   nonuniform List<scalar> 
459
(
0.00121154
0.00132074
0.00134221
0.00140531
0.00146331
0.00151699
0.00156872
0.00162168
0.00166279
0.00168507
0.0016824
0.00165025
0.00158834
0.00150392
0.00141208
0.000531059
0.000656
0.000728039
0.000712992
0.000683028
0.00064782
0.000608053
0.000569856
0.000535337
0.000504614
0.000477309
0.000452942
0.00043127
0.000411688
0.000393523
0.000375862
0.000357313
0.000344831
0.000315031
0.00166184
0.0039592
0.00375354
0.00436412
0.00495298
0.0055496
0.00609805
0.00650872
0.00687556
0.0071838
0.00738649
0.00742268
0.00720012
0.00650823
0.00469862
0.00143359
0.000912306
0.000588172
0.00117483
0.00157643
0.00184464
0.00197048
0.00195314
0.00162173
0.00141861
0.00126903
0.00115207
0.00105765
0.000979922
0.000910474
0.000845592
0.000783198
0.000728656
0.000680228
0.000802996
0.000418212
0.00203912
0.00541424
0.00462071
0.00587445
0.00648314
0.00693116
0.00727568
0.00753893
0.00781456
0.0081097
0.00839199
0.00860597
0.0086849
0.00854883
0.00800011
0.0063753
0.00139053
0.00120168
0.00165251
0.0020379
0.00235557
0.00255321
0.0024689
0.000866388
0.000769524
0.000691532
0.000628358
0.000576674
0.000533942
0.000498332
0.000468647
0.000444331
0.000476776
0.000547803
0.000898192
0.000485934
0.00240373
0.00699177
0.0046051
0.00624111
0.0068309
0.00702674
0.00711988
0.00721874
0.00741009
0.00769139
0.00803457
0.00837472
0.00864137
0.00877985
0.00870102
0.00816432
0.0063185
0.00165614
0.00206026
0.00260843
0.00307653
0.00340667
0.00358752
0.00335295
0.000972068
0.000889777
0.000831444
0.000787419
0.000750021
0.000715026
0.000681396
0.000645891
0.000604249
0.000567626
0.000576717
0.0010231
0.000537942
0.00277638
0.00903428
0.0050849
0.00595554
0.00679083
0.00688704
0.00680321
0.00677573
0.00693985
0.00721686
0.0075996
0.00800453
0.00833639
0.00851931
0.00850713
0.00824856
0.00757998
0.00620175
0.00567567
0.00543207
0.00528456
0.00517886
0.00508659
0.00490479
0.00421186
0.00389091
0.00371066
0.00356963
0.00341217
0.00317317
0.00283264
0.0024086
0.00192992
0.00143658
0.00105744
0.00104969
0.000714921
0.000669682
0.000811156
0.000908645
0.00317118
0.0112543
0.00711655
0.00582049
0.00642687
0.00676928
0.00663448
0.00662861
0.00676989
0.00702269
0.00739451
0.00782364
0.00819178
0.00838243
0.00833415
0.00806254
0.00764286
0.00716521
0.0068399
0.00659147
0.00636241
0.00615675
0.0059731
0.00577739
0.00549806
0.00525177
0.00502919
0.00480832
0.0045755
0.00431631
0.00396829
0.00351452
0.00295367
0.00231579
0.00173836
0.00128836
0.000980317
0.000840016
0.00120612
0.000945984
0.0035345
0.0128335
0.0101592
0.00758142
0.0070314
0.00712116
0.00698282
0.00684878
0.00685184
0.0070581
0.00744887
0.00791919
0.00831347
0.00848666
0.00837336
0.00802372
0.00760136
0.00728789
0.00712153
0.00695777
0.00672301
0.00643523
0.00611981
0.00579974
0.00549308
0.00522406
0.00497817
0.00474321
0.00451845
0.00431058
0.00411938
0.00382069
0.00337564
0.00282197
0.00228324
0.00179176
0.0014375
0.00132612
0.0013569
0.00106396
0.00360544
0.0115406
0.0101828
0.00930863
0.00867407
0.00801859
0.00734483
0.00695012
0.00692711
0.00724003
0.00776247
0.00831418
0.00870252
0.00877835
0.00851381
0.00801926
0.00753515
0.00726485
0.00713606
0.00684512
0.00640496
0.00591065
0.00544361
0.00505376
0.00474778
0.0045032
0.00429441
0.00411296
0.00396384
0.00385836
0.00380863
0.00378768
0.00353619
0.00316394
0.0028313
0.00265533
0.00274853
0.00317945
0.00395964
0.00167896
0.00350842
0.00417471
0.00466228
0.00483867
0.00492195
0.00506344
0.00540345
0.00600271
0.00682421
0.00773414
0.00855613
0.0091263
0.00931068
0.00903811
0.00842184
0.00772384
0.00726203
0.00690977
0.0064987
0.00593666
0.00531368
0.00475313
0.00431414
0.00399098
0.00374894
0.00355382
0.00338432
0.003231
0.00308903
0.00295328
0.00281787
0.00268436
0.00257461
0.00249324
0.00246523
0.0024837
0.00248149
0.0023941
0.00224441
0.00158237
0.00186431
0.00370643
0.00541508
0.00684223
0.00804953
0.00907933
0.00984561
0.0102709
0.0103379
0.010065
0.00944084
0.00851081
0.0074928
0.00669801
0.00614137
0.0055835
0.00496566
0.0043615
0.00385358
0.00347563
0.00320253
0.00299908
0.00283867
0.00270609
0.00259493
0.00250375
0.00243333
0.0023855
0.00236439
0.0023718
0.00239248
0.00242428
0.00246022
0.0024735
0.00241895
0.00227905
0.00206726
0.00131736
0.00238266
0.00568812
0.0082722
0.00931104
0.00995753
0.0102686
0.0102104
0.00979376
0.00908199
0.00817637
0.00720126
0.00630166
0.00552935
0.00488052
0.00429129
0.00377029
0.00336503
0.00307425
0.00286342
0.00269589
0.00255389
0.00243748
0.00234482
0.00227434
0.00222586
0.00219937
0.00219394
0.00220668
0.00224385
0.00230471
0.00238601
0.0024805
0.00257098
0.00263456
0.00262132
0.0026589
0.00270225
0.00134256
0.00209196
0.00221703
0.00230598
0.00245555
0.0023585
0.00224463
0.00216331
0.00207089
0.00195214
0.00180466
0.00163295
0.00144782
0.00126389
0.0010968
0.000962458
0.000867261
0.000804396
0.000763988
0.000738578
0.000723496
0.000716023
0.00071475
0.000719502
0.000728951
0.000742803
0.000761234
0.000784503
0.000812992
0.000847338
0.000888691
0.000936377
0.00099009
0.00105055
0.00111844
0.00119358
0.00128239
0.00131441
0.00128295
0.00120502
0.00112337
)
;

boundaryField
{
    floor
    {
        type            compressible::alphatWallFunction;
        Prt             0.85;
        value           nonuniform List<scalar> 
29
(
0.00019914
7.39896e-05
9.27237e-05
0.000103322
0.000101119
9.67153e-05
9.15108e-05
8.55905e-05
7.98591e-05
7.46385e-05
6.99567e-05
6.57657e-05
6.20001e-05
5.86294e-05
5.5565e-05
5.27058e-05
4.99094e-05
4.6954e-05
4.4954e-05
4.01405e-05
4.014e-05
5.65883e-05
6.70934e-05
7.50348e-05
0.000199138
7.39887e-05
8.26138e-05
0.000170399
0.000231878
)
;
    }
    ceiling
    {
        type            compressible::alphatWallFunction;
        Prt             0.85;
        value           nonuniform List<scalar> 
43
(
0.000288974
0.000305133
0.000316569
0.000335807
0.000323463
0.000308875
0.000298405
0.000286449
0.000270995
0.000251656
0.000228915
0.000204094
0.000179076
0.000155988
0.00013713
0.000123581
0.000114537
0.000108681
0.000104979
0.000102775
0.000101681
0.000101495
0.000102192
0.000103575
0.000105599
0.000108284
0.000111663
0.000115784
0.000120729
0.000126652
0.000133441
0.00014104
0.000149536
0.00015901
0.000169417
0.000181623
0.000185999
0.0001817
0.000170996
0.000159699
0.000467615
0.000548673
0.000326236
)
;
    }
    sWall
    {
        type            compressible::alphatWallFunction;
        Prt             0.85;
        value           uniform 0.000287765;
    }
    nWall
    {
        type            compressible::alphatWallFunction;
        Prt             0.85;
        value           nonuniform List<scalar> 6(0.000129179 0.000134479 0.000151078 0.000186076 0.000189508 0.000159377);
    }
    sideWalls
    {
        type            empty;
    }
    glass1
    {
        type            compressible::alphatWallFunction;
        Prt             0.85;
        value           nonuniform List<scalar> 9(0.000167587 0.000227651 0.000276712 0.000323283 0.000370176 0.000419186 0.000463777 0.000472557 0.000460945);
    }
    glass2
    {
        type            compressible::alphatWallFunction;
        Prt             0.85;
        value           nonuniform List<scalar> 2(0.000233363 0.000220609);
    }
    sun
    {
        type            compressible::alphatWallFunction;
        Prt             0.85;
        value           nonuniform List<scalar> 
14
(
0.00017178
0.000186732
0.000189657
0.000198227
0.000206064
0.000213287
0.000220221
0.000227295
0.000232766
0.000235725
0.00023537
0.000231097
0.000222842
0.000211528
)
;
    }
    heatsource1
    {
        type            compressible::alphatWallFunction;
        Prt             0.85;
        value           nonuniform List<scalar> 3(9.48503e-05 0.000115504 0.000129482);
    }
    heatsource2
    {
        type            compressible::alphatWallFunction;
        Prt             0.85;
        value           nonuniform List<scalar> 4(0.000202166 0.000130003 0.000130002 0.000196334);
    }
    Table_master
    {
        type            compressible::alphatWallFunction;
        Prt             0.85;
        value           nonuniform List<scalar> 9(0.000123441 0.00010947 9.8068e-05 8.87179e-05 8.09824e-05 7.45219e-05 6.90888e-05 6.45222e-05 6.07543e-05);
    }
    Table_slave
    {
        type            compressible::alphatWallFunction;
        Prt             0.85;
        value           nonuniform List<scalar> 9(0.000138477 0.000126788 0.000118426 0.000112069 0.000106635 0.000101521 9.6578e-05 9.13266e-05 8.51223e-05);
    }
    inlet
    {
        type            fixedValue;
        value           uniform 1.94e-05;
    }
    outlet
    {
        type            zeroGradient;
    }
}


// ************************************************************************* //
