/*--------------------------------*- C++ -*----------------------------------*\
  =========                 |
  \\      /  F ield         | OpenFOAM: The Open Source CFD Toolbox
   \\    /   O peration     | Website:  https://openfoam.org
    \\  /    A nd           | Version:  6
     \\/     M anipulation  |
\*---------------------------------------------------------------------------*/
FoamFile
{
    version     2.0;
    format      ascii;
    class       volScalarField;
    location    "400";
    object      alphat;
}
// * * * * * * * * * * * * * * * * * * * * * * * * * * * * * * * * * * * * * //

dimensions      [1 -1 -1 0 0 0 0];

internalField   nonuniform List<scalar> 
459
(
0.000784814
0.000820395
0.000780737
0.000810956
0.00084174
0.0008706
0.000897941
0.000924596
0.000951719
0.000978788
0.00100173
0.0010193
0.00103066
0.00103536
0.00102978
0.000254053
0.000233576
0.000209459
0.000182609
0.000176296
0.000179902
0.000194601
0.000216773
0.000237157
0.000252492
0.000260735
0.000263826
0.000276583
0.000302078
0.000343556
0.000393375
0.000419373
0.000456535
0.000402501
0.00126308
0.00237405
0.00197782
0.00249035
0.00274126
0.00298883
0.00323324
0.00345661
0.00363263
0.00375212
0.00380996
0.00376598
0.00355308
0.00305948
0.00216119
0.0011104
0.000677479
0.000367137
0.000931673
0.00086174
0.000714717
0.000626967
0.000594275
0.000625912
0.000720519
0.000818713
0.000901413
0.000963056
0.00102718
0.00111041
0.00125668
0.00149525
0.00187813
0.00189342
0.00197383
0.000577748
0.0016956
0.00375605
0.00215471
0.00357924
0.00411365
0.00441696
0.00466548
0.00486928
0.00502522
0.00513588
0.00520276
0.00518844
0.00502082
0.00457797
0.00370687
0.00241769
0.0011513
0.000594785
0.00145332
0.00113819
0.000824857
0.000619848
0.000465567
0.000337533
0.000360056
0.000386636
0.000416337
0.000451235
0.000494
0.000549088
0.00062395
0.000731715
0.00231147
0.00249193
0.0026096
0.000716672
0.00212267
0.00560715
0.00237355
0.00375989
0.00477072
0.00510577
0.00531331
0.00547403
0.00560647
0.00571733
0.00584534
0.00597839
0.00606302
0.00598644
0.00554773
0.00447474
0.00265929
0.00104469
0.00225234
0.00265763
0.00218552
0.00171296
0.00131425
0.00095077
0.000660323
0.00065473
0.000654555
0.000659136
0.00066945
0.00068694
0.000714123
0.000756252
0.000825516
0.00257739
0.00262815
0.00240493
0.000854599
0.00253851
0.00778203
0.00333288
0.00341103
0.00479968
0.00526719
0.0054653
0.00558529
0.00567159
0.00575409
0.0059252
0.00620012
0.00656076
0.00695586
0.00727987
0.00738669
0.00715353
0.0065461
0.00597661
0.005369
0.00493012
0.00462754
0.00436615
0.00411241
0.00388242
0.00373653
0.00361097
0.00349799
0.0033951
0.00330206
0.00322211
0.00316265
0.003129
0.00312651
0.00284086
0.00249457
0.00211645
0.000954926
0.000865467
0.000734385
0.00294471
0.00991987
0.00557276
0.00362627
0.00415307
0.00479029
0.00516589
0.00537959
0.00546017
0.00547098
0.00563183
0.00593014
0.00637231
0.00695216
0.00759469
0.00812876
0.00835703
0.00816416
0.00767457
0.00712289
0.00668235
0.00634528
0.00607225
0.00583731
0.00562468
0.00543188
0.00525695
0.00509637
0.00494082
0.00477552
0.00458227
0.00434497
0.00405204
0.00368935
0.00325465
0.00281764
0.00242252
0.00200772
0.00157821
0.000745468
0.0033127
0.0115007
0.00885116
0.00580279
0.00435093
0.00413315
0.00452148
0.00497703
0.00517894
0.00522672
0.0053553
0.00557266
0.00591557
0.00642655
0.00710822
0.00780229
0.00827937
0.00840952
0.00822548
0.0078888
0.00754484
0.00723851
0.0069702
0.00672913
0.00650585
0.00629999
0.00611767
0.0059622
0.00583008
0.00570913
0.00557338
0.00538097
0.00508237
0.00464287
0.00406966
0.00343279
0.0028423
0.00236863
0.0019352
0.00120129
0.00337725
0.0109448
0.00957271
0.00849039
0.00678806
0.0056243
0.00518766
0.00516745
0.00522945
0.00523931
0.00527426
0.00537988
0.00558984
0.00593115
0.00641327
0.00698482
0.00751281
0.00785225
0.0079512
0.00787071
0.00770151
0.00749851
0.0072883
0.00708058
0.00687943
0.0066913
0.00652561
0.00638994
0.00628815
0.00622388
0.00619475
0.00618241
0.00613473
0.00596205
0.00556803
0.0049138
0.00410179
0.00343246
0.00301219
0.00158439
0.00326336
0.0038377
0.00601848
0.00665499
0.00652978
0.00610796
0.00571437
0.00544345
0.00527127
0.00517784
0.00517202
0.00525614
0.00543025
0.00568364
0.00600161
0.00636775
0.00674445
0.00706653
0.00728003
0.00737552
0.00737293
0.00729776
0.00718039
0.00704473
0.00690694
0.00677817
0.00666654
0.00657674
0.00650865
0.00646772
0.00645867
0.00648502
0.00653976
0.00659958
0.00662579
0.00657695
0.00639213
0.00592371
0.00536918
0.00171424
0.0109187
0.0125406
0.00877921
0.00734614
0.00654797
0.00604472
0.00572226
0.00552923
0.0054655
0.00552494
0.00567327
0.00587096
0.00609252
0.00632785
0.00656909
0.00679724
0.00698524
0.00711745
0.00718535
0.00719155
0.00716275
0.00711938
0.00707445
0.0070351
0.00700487
0.00698481
0.00696966
0.00696398
0.006967
0.00697308
0.00697666
0.00697015
0.00693879
0.00685667
0.00667342
0.00628118
0.00532592
0.00183338
0.00503037
0.010675
0.00863277
0.00740947
0.00667504
0.00622311
0.00598595
0.00594447
0.00607297
0.00629979
0.00658342
0.0068785
0.00714695
0.00736838
0.0075385
0.00765098
0.00768857
0.00767876
0.0076487
0.00761775
0.00759669
0.0075874
0.00758832
0.00759696
0.0076111
0.00762942
0.00765054
0.00767405
0.00769362
0.00767864
0.00762347
0.00752577
0.0073765
0.00715513
0.00682423
0.0063122
0.00559025
0.00207963
0.00197203
0.00254775
0.00376986
0.00315188
0.00295521
0.00276596
0.00250413
0.00227332
0.00208448
0.00193579
0.00182789
0.00176592
0.00174
0.00173944
0.00175357
0.00177292
0.00179089
0.0018049
0.00181568
0.00181993
0.00181867
0.0018142
0.00180837
0.00180276
0.00179817
0.00179477
0.00179236
0.00179051
0.00178889
0.00178677
0.00178352
0.00178037
0.00177482
0.00176512
0.00175
0.00172748
0.00169355
0.00164126
0.0015958
0.0015074
)
;

boundaryField
{
    floor
    {
        type            compressible::alphatWallFunction;
        Prt             0.85;
        value           nonuniform List<scalar> 
29
(
0.000146667
3.01715e-05
2.67237e-05
2.26076e-05
1.7949e-05
1.68402e-05
1.74764e-05
2.00448e-05
2.38671e-05
2.73336e-05
2.99144e-05
3.1293e-05
3.18078e-05
3.39256e-05
3.81212e-05
4.48498e-05
5.27942e-05
5.68867e-05
6.26761e-05
5.42359e-05
5.42351e-05
8.11837e-05
0.000101815
0.000121821
0.000146665
3.0171e-05
4.86187e-05
8.37295e-05
0.000148744
)
;
    }
    ceiling
    {
        type            compressible::alphatWallFunction;
        Prt             0.85;
        value           nonuniform List<scalar> 
43
(
0.00027384
0.000347856
0.000499599
0.000423641
0.00039917
0.000375443
0.000342322
0.000312818
0.000288439
0.000269075
0.000254922
0.000246754
0.000243327
0.000243253
0.000245121
0.000247678
0.00025005
0.000251896
0.000253316
0.000253875
0.000253709
0.00025312
0.000252351
0.000251611
0.000251006
0.000250557
0.000250238
0.000249993
0.000249778
0.000249498
0.000249068
0.00024865
0.000247917
0.000246635
0.000244635
0.000241655
0.000237155
0.000230203
0.000224137
0.000212292
0.000437575
0.000508015
0.000650921
)
;
    }
    sWall
    {
        type            compressible::alphatWallFunction;
        Prt             0.85;
        value           uniform 0.00027287;
    }
    nWall
    {
        type            compressible::alphatWallFunction;
        Prt             0.85;
        value           nonuniform List<scalar> 6(0.000104285 0.000105898 0.000170359 0.00025536 0.000287517 0.000212026);
    }
    sideWalls
    {
        type            empty;
    }
    glass1
    {
        type            compressible::alphatWallFunction;
        Prt             0.85;
        value           nonuniform List<scalar> 9(0.000109283 0.000175734 0.00023347 0.000288986 0.000341961 0.000392872 0.000438399 0.000446423 0.000432569);
    }
    glass2
    {
        type            compressible::alphatWallFunction;
        Prt             0.85;
        value           nonuniform List<scalar> 2(0.000222049 0.000239306);
    }
    sun
    {
        type            compressible::alphatWallFunction;
        Prt             0.85;
        value           nonuniform List<scalar> 
14
(
0.000111765
0.000116897
0.000111162
0.000115535
0.00011997
0.00012411
0.000128017
0.000131813
0.000135662
0.000139491
0.000142725
0.000145198
0.000146793
0.000147451
)
;
    }
    heatsource1
    {
        type            compressible::alphatWallFunction;
        Prt             0.85;
        value           nonuniform List<scalar> 3(0.000136061 0.000123317 0.00010436);
    }
    heatsource2
    {
        type            compressible::alphatWallFunction;
        Prt             0.85;
        value           nonuniform List<scalar> 4(0.000157873 9.59991e-05 9.5998e-05 0.00016355);
    }
    Table_master
    {
        type            compressible::alphatWallFunction;
        Prt             0.85;
        value           nonuniform List<scalar> 9(4.38599e-05 4.74742e-05 5.17016e-05 5.63812e-05 6.18252e-05 6.84239e-05 7.68199e-05 8.80644e-05 0.000103968);
    }
    Table_slave
    {
        type            compressible::alphatWallFunction;
        Prt             0.85;
        value           nonuniform List<scalar> 9(9.34652e-05 9.26375e-05 9.2612e-05 9.32909e-05 9.48169e-05 9.73977e-05 0.000101393 0.000107549 0.000117582);
    }
    inlet
    {
        type            fixedValue;
        value           uniform 1.94e-05;
    }
    outlet
    {
        type            zeroGradient;
    }
}


// ************************************************************************* //
