/*--------------------------------*- C++ -*----------------------------------*\
  =========                 |
  \\      /  F ield         | OpenFOAM: The Open Source CFD Toolbox
   \\    /   O peration     | Website:  https://openfoam.org
    \\  /    A nd           | Version:  6
     \\/     M anipulation  |
\*---------------------------------------------------------------------------*/
FoamFile
{
    version     2.0;
    format      ascii;
    class       volScalarField;
    location    "400";
    object      nut;
}
// * * * * * * * * * * * * * * * * * * * * * * * * * * * * * * * * * * * * * //

dimensions      [0 2 -1 0 0 0 0];

internalField   nonuniform List<scalar> 
459
(
0.000682996
0.000713462
0.000678962
0.000705249
0.000732024
0.000757126
0.000780904
0.000804085
0.000827672
0.000851208
0.000871147
0.000886408
0.000896256
0.000900297
0.00089539
0.000220308
0.00020253
0.000181603
0.000158319
0.000152854
0.000155993
0.000168752
0.000187988
0.000205672
0.000218976
0.000226128
0.000228809
0.000239879
0.000262015
0.000298051
0.000341376
0.000364006
0.000396308
0.000349436
0.00109985
0.0020651
0.00172035
0.00216622
0.00238453
0.00259995
0.00281261
0.00300695
0.00316007
0.003264
0.00331423
0.0032758
0.00309037
0.00266075
0.00187926
0.000965409
0.00058886
0.000318479
0.000808251
0.000747608
0.000620089
0.000543979
0.00051563
0.000543086
0.000625194
0.000710431
0.000782251
0.000835831
0.000891583
0.000963948
0.0010911
0.00129848
0.0016313
0.00164463
0.00171443
0.000501833
0.00147725
0.00326796
0.00187452
0.00311395
0.00357909
0.00384319
0.00405959
0.00423706
0.00437284
0.00446914
0.00452722
0.00451448
0.00436816
0.00398223
0.00322379
0.00210209
0.0010008
0.00051635
0.00126174
0.000988242
0.00071624
0.00053824
0.000404254
0.00029304
0.00031262
0.000335728
0.000361553
0.000391899
0.000429088
0.000477
0.000542115
0.00063586
0.00200897
0.00216581
0.00226802
0.000622803
0.00185024
0.00487967
0.00206522
0.00327165
0.00415156
0.00444347
0.00462444
0.00476463
0.00488014
0.00497675
0.00508812
0.00520364
0.00527671
0.00520912
0.00482615
0.00389143
0.00231172
0.000907809
0.00195677
0.00230936
0.00189943
0.00148892
0.00114245
0.000826518
0.000574048
0.000569187
0.000569036
0.000573022
0.000581994
0.000597205
0.000620845
0.000657479
0.000717702
0.00224077
0.00228493
0.00209087
0.00074298
0.00221372
0.00677417
0.00290043
0.00296851
0.00417739
0.00458475
0.00475769
0.00486261
0.00493815
0.00501025
0.00515932
0.00539853
0.00571205
0.00605514
0.0063359
0.00642728
0.00622278
0.00569306
0.00519687
0.00466831
0.00428675
0.00402371
0.00379642
0.00357575
0.00337573
0.00324883
0.00313963
0.00304138
0.00295193
0.00287105
0.00280157
0.00274992
0.00272071
0.0027186
0.00247028
0.00216922
0.00184045
0.000830423
0.000752609
0.000638604
0.00256897
0.00863781
0.0048509
0.00315633
0.00361509
0.00417019
0.00449769
0.00468429
0.00475498
0.00476478
0.00490509
0.00516488
0.00554968
0.00605401
0.00661247
0.00707604
0.00727317
0.00710386
0.00667674
0.00619607
0.00581241
0.00551891
0.00528119
0.00507664
0.00489154
0.00472371
0.00457147
0.00443174
0.00429642
0.00415265
0.00398461
0.0037783
0.00352363
0.00320831
0.00283036
0.00245039
0.00210681
0.00174609
0.00137253
0.000648252
0.00289101
0.0100188
0.00770837
0.00505267
0.00378822
0.00359872
0.00393718
0.00433432
0.00451068
0.00455274
0.00466499
0.0048544
0.00515296
0.00559767
0.00619071
0.00679415
0.00720835
0.00732036
0.00715898
0.00686499
0.00656492
0.00629778
0.00606387
0.00585374
0.00565918
0.00547982
0.005321
0.00518557
0.00507049
0.00496517
0.00484703
0.00467966
0.00441998
0.0040378
0.00353936
0.00298555
0.00247206
0.00206013
0.00168317
0.00104483
0.0029489
0.00954365
0.00834467
0.00739899
0.00591394
0.00489939
0.00451886
0.00450134
0.00455559
0.00456441
0.00459498
0.00468698
0.00486974
0.00516682
0.00558638
0.00608364
0.00654272
0.00683741
0.00692261
0.00685161
0.00670349
0.00652609
0.00634252
0.00616124
0.00598575
0.00582167
0.00567716
0.00555883
0.00547
0.00541384
0.00538828
0.00537737
0.00533577
0.00518551
0.00484281
0.00427384
0.00356767
0.00298559
0.00262012
0.00137823
0.00285149
0.00335135
0.00525183
0.00580491
0.00569366
0.0053245
0.00498057
0.00474395
0.00459357
0.00451187
0.00450651
0.00457952
0.00473093
0.00495138
0.00522806
0.00554664
0.00587431
0.00615431
0.00633963
0.00642214
0.00641922
0.00635314
0.00625038
0.00613175
0.00601133
0.00589882
0.00580126
0.00572274
0.00566313
0.00562719
0.00561899
0.00564163
0.00568899
0.00574081
0.00576345
0.00572086
0.00556004
0.00515257
0.00467024
0.00149117
0.00944848
0.0109157
0.00764722
0.00640016
0.00570507
0.00526662
0.00498557
0.00481725
0.00476155
0.00481314
0.00494214
0.00511415
0.00530693
0.0055117
0.00572159
0.00592002
0.00608341
0.00619816
0.00625686
0.0062618
0.00623626
0.00619803
0.00615847
0.00612378
0.00609704
0.00607916
0.00606558
0.00606023
0.00606247
0.00606739
0.00607015
0.00606416
0.00603659
0.00596491
0.00580529
0.00546389
0.0046328
0.00159476
0.00435705
0.0092804
0.00751203
0.00645064
0.00581263
0.00541968
0.0052134
0.00517737
0.00528934
0.0054869
0.00573393
0.00599089
0.00622465
0.00641742
0.00656547
0.0066633
0.00669584
0.00668707
0.00666061
0.00663334
0.00661465
0.0066062
0.00660662
0.00661374
0.00662564
0.00664118
0.00665913
0.00667917
0.00669577
0.0066823
0.00663386
0.00654844
0.00641817
0.0062252
0.00593699
0.00549122
0.00486286
0.00180899
0.00171965
0.00221676
0.00326743
0.00273794
0.00257083
0.00240749
0.00218001
0.00197926
0.00181493
0.00168552
0.0015916
0.00153767
0.00151512
0.00151465
0.00152697
0.00154384
0.00155949
0.00157169
0.00158107
0.00158475
0.00158363
0.0015797
0.00157457
0.00156963
0.00156557
0.00156255
0.00156037
0.00155868
0.00155718
0.00155525
0.00155232
0.00154948
0.00154455
0.00153601
0.00152274
0.00150304
0.00147341
0.00142779
0.00138807
0.00131094
)
;

boundaryField
{
    floor
    {
        type            nutkWallFunction;
        Cmu             0.09;
        kappa           0.41;
        E               9.8;
        value           nonuniform List<scalar> 
29
(
0.000108352
2.22345e-05
1.96921e-05
1.66579e-05
1.3225e-05
1.24084e-05
1.28778e-05
1.47713e-05
1.75888e-05
2.01441e-05
2.20466e-05
2.30629e-05
2.34423e-05
2.50038e-05
2.80982e-05
3.30632e-05
3.89297e-05
4.19542e-05
4.6229e-05
4.00053e-05
4.00052e-05
5.99135e-05
7.51746e-05
8.99837e-05
0.000108352
2.22344e-05
3.58401e-05
6.17655e-05
0.00010983
)
;
    }
    ceiling
    {
        type            nutkWallFunction;
        Cmu             0.09;
        kappa           0.41;
        E               9.8;
        value           nonuniform List<scalar> 
43
(
0.000202789
0.000257108
0.000367963
0.000312669
0.000295007
0.000277604
0.000253146
0.000231335
0.000213305
0.000198981
0.000188511
0.000182469
0.000179936
0.000179883
0.000181267
0.000183161
0.000184917
0.000186283
0.000187333
0.000187745
0.00018762
0.00018718
0.000186605
0.000186052
0.000185597
0.000185257
0.000185013
0.000184823
0.000184654
0.000184437
0.000184109
0.000183789
0.000183235
0.000182276
0.000180785
0.00017857
0.000175231
0.000170077
0.000165574
0.000156791
0.000324767
0.000376867
0.00047913
)
;
    }
    sWall
    {
        type            nutkWallFunction;
        Cmu             0.09;
        kappa           0.41;
        E               9.8;
        value           uniform 0.000202834;
    }
    nWall
    {
        type            nutkWallFunction;
        Cmu             0.09;
        kappa           0.41;
        E               9.8;
        value           nonuniform List<scalar> 6(7.71342e-05 7.83281e-05 0.000126004 0.000188869 0.00021265 0.0001568);
    }
    sideWalls
    {
        type            empty;
    }
    glass1
    {
        type            nutkWallFunction;
        Cmu             0.09;
        kappa           0.41;
        E               9.8;
        value           nonuniform List<scalar> 9(8.25863e-05 0.000132534 0.00017584 0.000217428 0.000257081 0.000295167 0.000329216 0.0003353 0.000325077);
    }
    glass2
    {
        type            nutkWallFunction;
        Cmu             0.09;
        kappa           0.41;
        E               9.8;
        value           nonuniform List<scalar> 2(0.000164484 0.000177261);
    }
    sun
    {
        type            nutkWallFunction;
        Cmu             0.09;
        kappa           0.41;
        E               9.8;
        value           nonuniform List<scalar> 
14
(
8.26225e-05
8.63662e-05
8.21263e-05
8.5359e-05
8.86372e-05
9.16975e-05
9.45855e-05
9.73909e-05
0.000100236
0.000103065
0.000105455
0.00010728
0.000108455
0.000108937
)
;
    }
    heatsource1
    {
        type            nutkWallFunction;
        Cmu             0.09;
        kappa           0.41;
        E               9.8;
        value           nonuniform List<scalar> 3(0.000100572 9.115e-05 7.71357e-05);
    }
    heatsource2
    {
        type            nutkWallFunction;
        Cmu             0.09;
        kappa           0.41;
        E               9.8;
        value           nonuniform List<scalar> 4(0.000116669 7.09247e-05 7.09247e-05 0.000120845);
    }
    Table_master
    {
        type            nutkWallFunction;
        Cmu             0.09;
        kappa           0.41;
        E               9.8;
        value           nonuniform List<scalar> 9(3.23671e-05 3.5037e-05 3.81604e-05 4.16184e-05 4.56415e-05 5.05187e-05 5.67249e-05 6.50378e-05 7.67968e-05);
    }
    Table_slave
    {
        type            nutkWallFunction;
        Cmu             0.09;
        kappa           0.41;
        E               9.8;
        value           nonuniform List<scalar> 9(6.90647e-05 6.84532e-05 6.84345e-05 6.89366e-05 7.00648e-05 7.19727e-05 7.49259e-05 7.94759e-05 8.68908e-05);
    }
    inlet
    {
        type            calculated;
        value           uniform 3.3541e-05;
    }
    outlet
    {
        type            calculated;
        value           nonuniform List<scalar> 2(0.00171965 0.00221676);
    }
}


// ************************************************************************* //
