// -*- C++ -*-
// File generated by PyFoam - sorry for the ugliness

FoamFile
{
 version 2.0;
 format ascii;
 class volScalarField;
 location "490";
 object T;
}

dimensions [ 0 0 0 1 0 0 0 ];

internalField nonuniform List<scalar> 459
(
  301.05
  301.014
  301.015
  301.016
  301.017
  301.018
  301.02
  301.022
  301.027
  301.036
  301.058
  301.067
  301.071
  301.071
  301.065
  301.17
  301.188
  301.201
  301.213
  301.224
  301.232
  301.237
  301.24
  301.242
  301.245
  301.247
  301.249
  301.251
  301.253
  301.255
  301.257
  301.26
  301.262
  301.26
  301.069
  301.019
  301.016
  301.016
  301.016
  301.016
  301.015
  301.015
  301.02
  301.034
  301.06
  301.079
  301.087
  301.088
  301.081
  301.084
  301.087
  301.179
  301.185
  301.2
  301.22
  301.239
  301.253
  301.259
  301.264
  301.268
  301.271
  301.275
  301.279
  301.282
  301.284
  301.286
  301.286
  301.284
  301.28
  301.279
  301.088
  301.022
  301.016
  301.016
  301.015
  301.014
  301.011
  301.007
  301.009
  301.027
  301.06
  301.086
  301.102
  301.105
  301.101
  301.098
  301.094
  301.153
  301.172
  301.199
  301.229
  301.257
  301.278
  301.28
  301.283
  301.286
  301.289
  301.293
  301.297
  301.301
  301.304
  301.306
  301.307
  301.303
  301.295
  301.291
  301.108
  301.026
  301.018
  301.018
  301.019
  301.019
  301.013
  301.001
  300.997
  301.018
  301.058
  301.095
  301.119
  301.127
  301.124
  301.118
  301.109
  301.114
  301.135
  301.169
  301.21
  301.252
  301.289
  301.318
  301.343
  301.363
  301.38
  301.396
  301.41
  301.421
  301.432
  301.442
  301.448
  301.406
  301.365
  301.33
  301.309
  301.13
  301.034
  301.022
  301.023
  301.028
  301.031
  301.02
  300.998
  300.988
  301.01
  301.057
  301.107
  301.142
  301.157
  301.156
  301.15
  301.145
  301.156
  301.182
  301.22
  301.262
  301.305
  301.343
  301.375
  301.404
  301.427
  301.445
  301.461
  301.474
  301.483
  301.489
  301.491
  301.487
  301.463
  301.422
  301.377
  301.34
  301.343
  301.348
  301.378
  301.151
  301.044
  301.029
  301.03
  301.038
  301.044
  301.025
  300.994
  300.98
  301.003
  301.06
  301.124
  301.173
  301.198
  301.201
  301.198
  301.199
  301.217
  301.249
  301.288
  301.33
  301.371
  301.406
  301.436
  301.461
  301.481
  301.496
  301.509
  301.518
  301.524
  301.526
  301.524
  301.517
  301.499
  301.468
  301.43
  301.391
  301.378
  301.373
  301.389
  301.171
  301.063
  301.046
  301.047
  301.055
  301.052
  301.022
  300.984
  300.969
  300.999
  301.071
  301.154
  301.218
  301.251
  301.261
  301.262
  301.27
  301.294
  301.327
  301.366
  301.404
  301.439
  301.469
  301.493
  301.511
  301.525
  301.534
  301.54
  301.544
  301.546
  301.545
  301.541
  301.534
  301.52
  301.498
  301.47
  301.436
  301.414
  301.399
  301.401
  301.201
  301.115
  301.095
  301.088
  301.085
  301.055
  301.003
  300.957
  300.951
  301.002
  301.099
  301.203
  301.279
  301.318
  301.331
  301.337
  301.351
  301.377
  301.41
  301.444
  301.475
  301.5
  301.52
  301.535
  301.544
  301.549
  301.552
  301.551
  301.55
  301.547
  301.542
  301.537
  301.532
  301.522
  301.506
  301.486
  301.462
  301.442
  301.425
  301.454
  301.243
  301.202
  301.173
  301.149
  301.096
  301.008
  300.929
  300.897
  300.93
  301.027
  301.162
  301.286
  301.36
  301.392
  301.406
  301.417
  301.435
  301.459
  301.485
  301.508
  301.527
  301.541
  301.55
  301.554
  301.555
  301.554
  301.55
  301.545
  301.539
  301.533
  301.525
  301.517
  301.508
  301.5
  301.491
  301.484
  301.48
  301.482
  301.488
  301.511
  300.326
  300.405
  300.457
  300.535
  300.649
  300.793
  300.955
  301.132
  301.308
  301.397
  301.441
  301.462
  301.475
  301.488
  301.503
  301.52
  301.535
  301.547
  301.554
  301.557
  301.558
  301.555
  301.551
  301.547
  301.541
  301.535
  301.528
  301.522
  301.516
  301.51
  301.504
  301.499
  301.495
  301.493
  301.493
  301.499
  301.511
  301.547
  300.403
  300.57
  300.752
  300.914
  301.035
  301.149
  301.26
  301.357
  301.43
  301.473
  301.497
  301.512
  301.522
  301.532
  301.541
  301.549
  301.555
  301.558
  301.559
  301.557
  301.554
  301.55
  301.545
  301.54
  301.535
  301.53
  301.526
  301.521
  301.517
  301.513
  301.509
  301.505
  301.502
  301.5
  301.5
  301.504
  301.515
  301.535
  300.831
  300.823
  300.821
  300.993
  301.137
  301.248
  301.327
  301.387
  301.436
  301.473
  301.5
  301.517
  301.527
  301.534
  301.539
  301.542
  301.545
  301.545
  301.544
  301.542
  301.538
  301.534
  301.529
  301.524
  301.52
  301.516
  301.512
  301.509
  301.507
  301.505
  301.503
  301.502
  301.501
  301.5
  301.5
  301.499
  301.499
  301.501
  301.504
  301.529
)
;

boundaryField
{
  floor
  {
    type wallHeatTransfer;
    Tinf uniform 299.755;
    alphaWall uniform 0.24;
    value nonuniform List<scalar> 29
(
  300.863
  300.872
  300.941
  300.97
  300.983
  300.992
  300.994
  300.989
  300.981
  300.971
  300.962
  300.953
  300.945
  300.937
  300.929
  300.921
  300.912
  300.901
  300.882
  300.855
  300.855
  300.908
  300.935
  300.973
  300.863
  300.872
  300.951
  300.939
  300.937
)
;
  }
  ceiling
  {
    type wallHeatTransfer;
    Tinf uniform 299.755;
    alphaWall uniform 0.24;
    value nonuniform List<scalar> 43
(
  300.74
  300.736
  300.738
  300.907
  301.039
  301.138
  301.206
  301.256
  301.295
  301.324
  301.343
  301.354
  301.361
  301.366
  301.37
  301.373
  301.376
  301.376
  301.375
  301.373
  301.369
  301.365
  301.361
  301.356
  301.351
  301.346
  301.342
  301.337
  301.331
  301.326
  301.32
  301.315
  301.311
  301.307
  301.304
  301.303
  301.303
  301.302
  301.304
  301.324
  301.123
  301.1
  300.341
)
;
  }
  sWall
  {
    type wallHeatTransfer;
    Tinf uniform 303.161;
    alphaWall uniform 0.36;
    value uniform 301.116;
  }
  nWall
  {
    type wallHeatTransfer;
    Tinf uniform 303.145;
    alphaWall uniform 0.36;
    value nonuniform List<scalar> 6
(
  301.855
  301.787
  301.753
  301.79
  301.764
  301.795
)
;
  }
  sideWalls
  {
    type empty;
  }
  glass1
  {
    type wallHeatTransfer;
    Tinf uniform 303.161;
    alphaWall uniform 4.3;
    value nonuniform List<scalar> 9
(
  302.655
  302.588
  302.54
  302.499
  302.462
  302.425
  302.393
  302.395
  302.417
)
;
  }
  glass2
  {
    type wallHeatTransfer;
    Tinf uniform 303.145;
    alphaWall uniform 4.3;
    value nonuniform List<scalar> 2
(
  302.652
  302.654
)
;
  }
  sun
  {
    type wallHeatTransfer;
    Tinf uniform 299.755;
    alphaWall uniform 0.24;
    value nonuniform List<scalar> 14
(
  300.856
  300.84
  300.846
  300.855
  300.862
  300.869
  300.875
  300.882
  300.889
  300.898
  300.912
  300.911
  300.902
  300.887
)
;
  }
  heatsource1
  {
    type fixedGradient;
    gradient uniform 0;
  }
  heatsource2
  {
    type fixedGradient;
    gradient uniform 0;
  }
  Table_master
  {
    type zeroGradient;
  }
  Table_slave
  {
    type zeroGradient;
  }
  inlet
  {
    type fixedValue;
    value uniform 300.15;
  }
  outlet
  {
    type zeroGradient;
  }
} 	// ************************************************************************* //

