/*--------------------------------*- C++ -*----------------------------------*\
  =========                 |
  \\      /  F ield         | OpenFOAM: The Open Source CFD Toolbox
   \\    /   O peration     | Website:  https://openfoam.org
    \\  /    A nd           | Version:  6
     \\/     M anipulation  |
\*---------------------------------------------------------------------------*/
FoamFile
{
    version     2.0;
    format      ascii;
    class       volScalarField;
    location    "1600";
    object      epsilon;
}
// * * * * * * * * * * * * * * * * * * * * * * * * * * * * * * * * * * * * * //

dimensions      [0 2 -3 0 0 0 0];

internalField   nonuniform List<scalar> 
459
(
0.00422145
0.00342379
0.00282078
0.00238293
0.00205119
0.00178629
0.00156181
0.00136125
0.00117283
0.000987097
0.000795822
0.000575481
0.000294361
0.000185253
0.000172233
2.00894e-06
2.57059e-06
2.06278e-06
1.78927e-06
1.68145e-06
1.44767e-06
1.16004e-06
1.15041e-06
1.43221e-06
1.92569e-06
2.59966e-06
3.33533e-06
3.6174e-06
3.3762e-06
3.6672e-06
4.48289e-06
4.20749e-06
4.55485e-06
4.8378e-06
0.00689143
0.0043748
0.00299095
0.00214603
0.00163981
0.0013217
0.00111234
0.000975332
0.000891663
0.000845971
0.000828851
0.00070602
0.000377549
0.000225316
0.000163138
0.000162344
9.93832e-05
9.36142e-06
1.45177e-05
8.87373e-06
6.73657e-06
5.12633e-06
4.32981e-06
3.93396e-06
5.08934e-06
6.9444e-06
9.26718e-06
1.16306e-05
1.35994e-05
1.57149e-05
1.92031e-05
2.47403e-05
3.04885e-05
3.32432e-05
4.81571e-05
2.24664e-05
0.00973373
0.00571373
0.00332621
0.00205622
0.00141198
0.00105532
0.000846043
0.000730679
0.000686463
0.000702339
0.000763946
0.000670764
0.000417343
0.000281264
0.00018514
0.00014838
0.000174768
6.08324e-05
5.39891e-05
3.87421e-05
3.07903e-05
2.41364e-05
1.81342e-05
8.17554e-06
1.06034e-05
1.41056e-05
1.87667e-05
2.51298e-05
3.41189e-05
4.74601e-05
6.90295e-05
0.000106798
7.50731e-05
9.42502e-05
0.000166923
6.9225e-05
0.0129923
0.00748579
0.00350451
0.00171829
0.000988656
0.000681685
0.000553871
0.000510773
0.00052243
0.000591164
0.000680016
0.000614758
0.000464167
0.000342477
0.000202953
0.000150414
0.000144574
0.000168231
7.70554e-05
7.0178e-05
6.38233e-05
6.66941e-05
7.54139e-05
9.01619e-05
0.000115562
0.00011539
0.000115147
0.000115485
0.000117258
0.000121266
0.000128619
0.000141485
0.000164475
8.39239e-05
9.35088e-05
0.00011313
0.000118204
0.0170707
0.0101968
0.003576
0.00123199
0.000554751
0.000367957
0.000335111
0.000353958
0.000408387
0.00051127
0.000587781
0.000557171
0.000473977
0.000340247
0.000206534
0.000165631
0.000150156
0.000128217
0.000102861
9.32963e-05
9.22785e-05
9.53392e-05
9.99363e-05
0.000102372
0.000102557
0.000100436
9.80033e-05
9.59482e-05
9.47223e-05
9.46504e-05
9.60092e-05
9.90784e-05
0.000103649
0.000106752
0.000113106
0.000121308
0.000136036
0.000163784
0.00015441
0.000153547
0.0225823
0.014962
0.00357452
0.000672286
0.000347154
0.00024382
0.000231338
0.000270431
0.000343197
0.000442058
0.000504268
0.00049562
0.000447796
0.000321857
0.000234466
0.0002414
0.000262997
0.000263947
0.000250861
0.000236654
0.000228805
0.000223555
0.000216822
0.000208887
0.000199476
0.000189207
0.000179476
0.000171056
0.00016433
0.000159507
0.000156763
0.000156457
0.000159157
0.000164647
0.000170992
0.000175692
0.000178526
0.000181503
0.000196988
0.000264089
0.030662
0.0246829
0.00435879
0.000800828
0.000406666
0.000254208
0.000214452
0.000245103
0.000313607
0.000395751
0.000438792
0.000433068
0.00040041
0.000295996
0.000264354
0.000329837
0.000411737
0.000467471
0.000492658
0.000497571
0.000489245
0.000470713
0.000445353
0.000416532
0.000386781
0.000358258
0.000332724
0.00031101
0.000293297
0.000279518
0.000269672
0.000264123
0.000263477
0.000267279
0.00027264
0.000275699
0.000274164
0.000273371
0.00029802
0.000404508
0.0441921
0.0495867
0.0173994
0.00171964
0.00077043
0.000480685
0.000316694
0.000296264
0.00033792
0.000391289
0.000405322
0.000383441
0.000353373
0.000266895
0.000277353
0.00040887
0.000562412
0.00070374
0.00080784
0.000870196
0.000890512
0.000873326
0.000829345
0.000771053
0.000708632
0.000649012
0.000596115
0.000551404
0.000514884
0.000485979
0.000464169
0.000449446
0.000442195
0.000441816
0.00044523
0.000447413
0.000442966
0.00043474
0.000456901
0.000591337
0.0724626
0.134681
0.167479
0.0185315
0.00359725
0.00163251
0.000969977
0.000599624
0.000510925
0.00048322
0.000436548
0.00037691
0.000329945
0.000265518
0.000278952
0.000428071
0.000669743
0.000933544
0.00117194
0.00135213
0.00145341
0.0014742
0.00143093
0.00134788
0.00124758
0.00114637
0.00105392
0.000974571
0.000909317
0.000857496
0.000817966
0.000789832
0.00077253
0.000764956
0.000764209
0.000764868
0.000758865
0.000742213
0.000745498
0.000878477
0.495883
0.174856
0.0170187
0.00453319
0.00270811
0.00193482
0.00145655
0.00101589
0.000701997
0.000550645
0.0004608
0.000394245
0.000402477
0.000524099
0.000775749
0.00116015
0.00161369
0.00203181
0.00232834
0.00247015
0.00247411
0.00238292
0.00224161
0.00208509
0.00193546
0.00180425
0.00169585
0.00161051
0.00154642
0.00150111
0.0014721
0.00145671
0.00145087
0.00144732
0.00143365
0.00139564
0.00135967
0.0013397
0.198352
0.0532203
0.025083
0.0097687
0.00580053
0.00366916
0.00266762
0.00147282
0.000820032
0.000616318
0.000530356
0.00052035
0.00061422
0.000854611
0.00131011
0.00203115
0.00292447
0.0037857
0.00441762
0.00473393
0.00476572
0.00460423
0.00434475
0.00405929
0.00379242
0.00356708
0.00339186
0.0032667
0.00318654
0.00314372
0.0031292
0.00313266
0.00314139
0.00313881
0.00310561
0.00302065
0.00297862
0.00200449
0.00133671
0.00325658
0.0370569
0.0245979
0.0152861
0.00863117
0.0046418
0.00228325
0.00147917
0.00145751
0.00126183
0.00109571
0.00099458
0.000940332
0.000924001
0.000939105
0.000982541
0.00106714
0.00122804
0.00146044
0.001734
0.00200133
0.00221795
0.0023581
0.00241792
0.00240944
0.00235205
0.00226589
0.00216804
0.00207094
0.00198218
0.00190505
0.0018392
0.0017814
0.00172589
0.0016644
0.00158568
0.00147345
0.00130467
0.000850611
)
;

boundaryField
{
    floor
    {
        Cmu             0.09;
        kappa           0.41;
        E               9.8;
        type            epsilonWallFunction;
        value           nonuniform List<scalar> 
29
(
0.000172233
2.00894e-06
2.57059e-06
2.06278e-06
1.78927e-06
1.68145e-06
1.44767e-06
1.16004e-06
1.15041e-06
1.43221e-06
1.92569e-06
2.59966e-06
3.33533e-06
3.6174e-06
3.3762e-06
3.6672e-06
4.48289e-06
4.20749e-06
4.55485e-06
4.8378e-06
4.8378e-06
2.24664e-05
6.9225e-05
0.000118204
0.000172233
2.00894e-06
9.36142e-06
6.08324e-05
0.000168231
)
;
    }
    ceiling
    {
        Cmu             0.09;
        kappa           0.41;
        E               9.8;
        type            epsilonWallFunction;
        value           nonuniform List<scalar> 
43
(
0.00133671
0.00325658
0.0370569
0.0245979
0.0152861
0.00863117
0.0046418
0.00228325
0.00147917
0.00145751
0.00126183
0.00109571
0.00099458
0.000940332
0.000924001
0.000939105
0.000982541
0.00106714
0.00122804
0.00146044
0.001734
0.00200133
0.00221795
0.0023581
0.00241792
0.00240944
0.00235205
0.00226589
0.00216804
0.00207094
0.00198218
0.00190505
0.0018392
0.0017814
0.00172589
0.0016644
0.00158568
0.00147345
0.00130467
0.000850611
0.0724626
0.134681
0.198352
)
;
    }
    sWall
    {
        Cmu             0.09;
        kappa           0.41;
        E               9.8;
        type            epsilonWallFunction;
        value           uniform 0.00133671;
    }
    nWall
    {
        Cmu             0.09;
        kappa           0.41;
        E               9.8;
        type            epsilonWallFunction;
        value           nonuniform List<scalar> 6(0.000153547 0.000264089 0.000404508 0.0013397 0.00200449 0.000850611);
    }
    sideWalls
    {
        type            empty;
    }
    glass1
    {
        Cmu             0.09;
        kappa           0.41;
        E               9.8;
        type            epsilonWallFunction;
        value           nonuniform List<scalar> 9(0.00422145 0.00689143 0.00973373 0.0129923 0.0170707 0.0225823 0.030662 0.0441921 0.0724626);
    }
    glass2
    {
        Cmu             0.09;
        kappa           0.41;
        E               9.8;
        type            epsilonWallFunction;
        value           nonuniform List<scalar> 2(0.000591337 0.000878477);
    }
    sun
    {
        Cmu             0.09;
        kappa           0.41;
        E               9.8;
        type            epsilonWallFunction;
        value           nonuniform List<scalar> 
14
(
0.00422145
0.00342379
0.00282078
0.00238293
0.00205119
0.00178629
0.00156181
0.00136125
0.00117283
0.000987097
0.000795822
0.000575481
0.000294361
0.000185253
)
;
    }
    heatsource1
    {
        Cmu             0.09;
        kappa           0.41;
        E               9.8;
        type            epsilonWallFunction;
        value           nonuniform List<scalar> 3(0.000163784 0.00015441 0.000153547);
    }
    heatsource2
    {
        Cmu             0.09;
        kappa           0.41;
        E               9.8;
        type            epsilonWallFunction;
        value           nonuniform List<scalar> 4(0.000162344 9.93832e-05 9.93832e-05 0.000174768);
    }
    Table_master
    {
        Cmu             0.09;
        kappa           0.41;
        E               9.8;
        type            epsilonWallFunction;
        value           nonuniform List<scalar> 9(8.17554e-06 1.06034e-05 1.41056e-05 1.87667e-05 2.51298e-05 3.41189e-05 4.74601e-05 6.90295e-05 0.000106798);
    }
    Table_slave
    {
        Cmu             0.09;
        kappa           0.41;
        E               9.8;
        type            epsilonWallFunction;
        value           nonuniform List<scalar> 9(0.000115562 0.00011539 0.000115147 0.000115485 0.000117258 0.000121266 0.000128619 0.000141485 0.000164475);
    }
    inlet
    {
        type            turbulentMixingLengthDissipationRateInlet;
        mixingLength    0.01;
        phi             phi;
        k               k;
        value           uniform 0.495883;
    }
    outlet
    {
        type            zeroGradient;
    }
}


// ************************************************************************* //
