/*--------------------------------*- C++ -*----------------------------------*\
  =========                 |
  \\      /  F ield         | OpenFOAM: The Open Source CFD Toolbox
   \\    /   O peration     | Website:  https://openfoam.org
    \\  /    A nd           | Version:  6
     \\/     M anipulation  |
\*---------------------------------------------------------------------------*/
FoamFile
{
    version     2.0;
    format      ascii;
    class       surfaceScalarField;
    location    "300";
    object      phi;
}
// * * * * * * * * * * * * * * * * * * * * * * * * * * * * * * * * * * * * * //

dimensions      [1 0 -1 0 0 0 0];

internalField   nonuniform List<scalar> 
852
(
-0.00293928
0.00299552
-0.00398144
0.00104216
-0.00477162
0.000790181
-0.00538774
0.000616123
-0.00580038
0.00041264
-0.00598656
0.000186182
-0.00592431
-6.22529e-05
-0.00559687
-0.000327441
-0.00501868
-0.000578184
-0.00424405
-0.000774636
-0.00335556
-0.000888483
-0.00244294
-0.000912621
-0.0015818
-0.000861144
-0.000796178
-0.000785621
-0.000794731
-0.000683076
0.000685763
-0.000361566
-0.00032151
0.000243338
-0.000604904
0.000718115
-0.000474778
0.00103435
-0.000316234
0.00123154
-0.000197191
0.00133895
-0.000107416
0.00139224
-5.32902e-05
0.0014223
-3.00524e-05
0.00144068
-1.83849e-05
0.00145093
-1.0251e-05
0.00145418
-3.24623e-06
0.00144851
5.6676e-06
0.0014256
2.29025e-05
0.00136315
6.24504e-05
0.00122368
0.000139475
0.000992875
0.000230804
0.000704527
0.000288348
0.000708136
-0.00209722
0.00524417
-0.00310508
0.00205002
-0.00391194
0.00159704
-0.00451515
0.00121933
-0.00491838
0.000815874
-0.0051075
0.000375302
-0.00505709
-0.000112661
-0.00475384
-0.000630694
-0.00422358
-0.00110844
-0.00352981
-0.00146841
-0.00275603
-0.00166226
-0.00198269
-0.00168596
-0.00128156
-0.00156227
-0.000738336
-0.00132885
-0.000534106
-0.000998962
-6.07027e-05
-0.000473454
-6.07541e-05
0.000364829
0.000328599
0.000787711
-0.000744393
0.00103792
-0.000855111
0.00124751
-0.000684376
0.00140408
-0.000472802
0.00149632
-0.000289433
0.00151083
-0.00012192
0.00151478
-5.72503e-05
0.00151953
-3.47966e-05
0.0015235
-2.23571e-05
0.00152617
-1.2923e-05
0.00152753
-4.60392e-06
0.00152672
6.47009e-06
0.00152024
2.93899e-05
0.00147936
0.00010333
0.00130532
0.000313509
0.00100457
0.000531551
0.000625749
0.000667172
0.00134319
-0.00146773
0.00694354
-0.00233265
0.00291495
-0.00304221
0.0023066
-0.00355312
0.00173023
-0.00390014
0.0011629
-0.00406441
0.00053957
-0.00400053
-0.000176547
-0.0036889
-0.000942325
-0.00317794
-0.0016194
-0.002545
-0.00210135
-0.00187245
-0.00233481
-0.0012232
-0.00233521
-0.000647188
-0.00213828
-0.000193098
-0.00178294
0.000108523
-0.00130058
0.000300373
-0.000665304
0.000239618
0.0014827
-0.00114604
0.00169726
-0.000958954
0.00167562
-0.00083347
0.00167539
-0.000684148
0.00169699
-0.000494407
0.00170994
-0.000302378
0.00158817
0.00153107
0.00149643
0.00147422
0.00146145
0.001457
0.00146362
0.00149316
0.00159665
0.0013171
0.000593049
0.000977466
0.000871188
0.000546084
0.00109855
0.00190346
-0.00102474
0.00826822
-0.00170718
0.00359738
-0.00216935
0.00276877
-0.00249643
0.00205732
-0.00271748
0.00138395
-0.00279858
0.000620669
-0.00266406
-0.000311066
-0.00230742
-0.00129896
-0.00181591
-0.00211091
-0.00127243
-0.00264483
-0.00074374
-0.0028635
-0.000263214
-0.00281573
0.000152035
-0.00255353
0.000497755
-0.00212866
0.000802676
-0.0016055
0.00116755
-0.00103018
0.00193325
-0.000526087
0.00244973
-0.000509191
0.0020545
-0.000750808
0.00192682
-0.000831277
0.00181508
-0.000721727
0.0017195
-0.000588578
0.00166668
-0.000441587
0.00164328
-0.000278979
0.00175764
-0.00011451
0.00182947
-7.19827e-05
0.00188746
-5.8149e-05
0.0019323
-4.49901e-05
0.00195026
-1.81208e-05
0.00192036
2.97502e-05
0.00181765
0.000102554
0.00160935
0.000208143
0.00124103
0.000368168
0.00110855
0.000725528
0.00082126
0.00115848
0.000383427
0.00153639
0.00230549
-0.000718187
0.00934438
-0.00123412
0.00411332
-0.00132104
0.00285568
-0.00137216
0.00210844
-0.0013904
0.00140219
-0.00129091
0.000521176
-0.000996817
-0.000605159
-0.00057996
-0.00171582
-0.000146462
-0.0025444
0.000239222
-0.00303051
0.000552997
-0.00317727
0.000793803
-0.00305654
0.000976273
-0.002736
0.00112817
-0.00228055
0.00128059
-0.00175793
0.00148412
-0.00123371
0.0017701
-0.000812068
0.00190352
-0.000642606
0.00180684
-0.000654126
0.00163211
-0.000656548
0.00148404
-0.000573665
0.0013624
-0.000466933
0.00127819
-0.000357383
0.00124466
-0.000245446
0.00128405
-0.000153904
0.00132989
-0.000117822
0.00138078
-0.000109046
0.00143365
-9.78578e-05
0.00147832
-6.27901e-05
0.00149543
1.26314e-05
0.00146426
0.000133729
0.00137226
0.000300141
0.00121976
0.000520666
0.0010858
0.00085948
0.000941442
0.00130284
0.000621696
0.00185613
0.000549371
0.00237781
-0.000966355
0.00151552
-0.00142907
0.000462511
-0.00138211
-0.000626382
0.0103777
-0.000978196
0.00446513
-0.000549562
0.00242705
-0.000180399
0.00173928
0.000105556
0.00111624
0.000511585
0.000115146
0.00102228
-0.00111586
0.00144286
-0.00213639
0.00172273
-0.00282427
0.00186186
-0.00316964
0.00189281
-0.00320822
0.00184345
-0.00300718
0.00174514
-0.00263768
0.00163413
-0.00216954
0.00154342
-0.00166722
0.00149784
-0.00118813
0.00149106
-0.000805288
0.00143745
-0.000589002
0.0012944
-0.000511072
0.00110477
-0.00046692
0.00093693
-0.000405827
0.000807839
-0.000337844
0.000723757
-0.000273302
0.000692573
-0.000214264
0.000711994
-0.000173326
0.000757899
-0.000163729
0.00081945
-0.000170598
0.000892165
-0.000170574
0.000970831
-0.000141457
0.0010441
-6.06387e-05
0.0010943
8.35298e-05
0.001116
0.000278438
0.00111667
0.000519992
0.00114282
0.000833336
0.00124172
0.00120393
0.00142721
0.00167064
0.00186813
0.0019369
0.00212911
0.00125454
0.00174198
0.000849637
0.000416382
-0.000678984
0.0115079
-0.00055481
0.00434096
0.000587532
0.00128471
0.0013945
0.000932307
0.00210172
0.000409012
0.00281849
-0.000601622
0.00335433
-0.00165169
0.00362816
-0.00241023
0.00364898
-0.00284509
0.00346414
-0.0029848
0.00313722
-0.0028813
0.0027293
-0.00259926
0.00229396
-0.00220234
0.00187787
-0.00175346
0.00151599
-0.00130534
0.00122329
-0.000895431
0.000997824
-0.000579821
0.000803071
-0.000394251
0.000606003
-0.000314006
0.000417348
-0.000278267
0.000261814
-0.000250295
0.000149457
-0.00022549
8.19601e-05
-0.000205807
6.01558e-05
-0.000192462
7.79583e-05
-0.000191131
0.000120554
-0.000206326
0.000178513
-0.000228559
0.000250766
-0.000242829
0.000341531
-0.000232223
0.000456065
-0.000175175
0.000583458
-4.38638e-05
0.000712273
0.000149621
0.00085184
0.000380424
0.00103938
0.000645795
0.00132265
0.000920654
0.00176327
0.00123002
0.00242737
0.0012728
0.00296744
0.000714472
0.00299012
0.000826947
0.00346759
0.00260201
0.00941081
0.00331105
0.00363191
0.00372428
0.000871481
0.0044427
0.000213879
0.00528111
-0.000429397
0.00589953
-0.00122004
0.00610048
-0.00185265
0.00592114
-0.00223088
0.00544177
-0.00236571
0.00475632
-0.00229935
0.0039607
-0.00208567
0.00313813
-0.0017767
0.00235039
-0.0014146
0.00164582
-0.00104889
0.00105643
-0.00071594
0.000587147
-0.000426154
0.000243266
-0.000235942
-5.72483e-06
-0.000145262
-0.000197753
-0.000121979
-0.000349745
-0.000126277
-0.000465816
-0.000134225
-0.000547565
-0.000143742
-0.000597894
-0.00015548
-0.000619965
-0.000170394
-0.000620187
-0.00019091
-0.000608655
-0.00021786
-0.000591308
-0.000245908
-0.000567438
-0.000266701
-0.000528972
-0.000270691
-0.000457555
-0.000246592
-0.000324394
-0.000177026
-0.000141682
-3.3093e-05
7.51345e-05
0.000163606
0.000346513
0.000374415
0.000683926
0.00058324
0.00112734
0.000786608
0.00161326
0.000786878
0.00181992
0.000507811
0.00108045
0.00156641
0.00479744
0.00996469
0.0135886
0.0124673
0.00199273
0.0117695
0.000911693
0.0111078
0.000232301
0.0102086
-0.000320789
0.00904575
-0.000689807
0.00772562
-0.000910748
0.00634255
-0.000982641
0.00497117
-0.000927974
0.00367889
-0.000793384
0.00251649
-0.000614305
0.00150701
-0.000405117
0.000672676
-0.000214558
1.86515e-05
-6.19176e-05
-0.000437542
3.00365e-05
-0.000715556
4.20709e-05
-0.00088718
2.63591e-05
-0.00100952
3.59526e-07
-0.0011087
-2.71033e-05
-0.0011902
-5.27257e-05
-0.00125624
-7.77081e-05
-0.00130993
-0.000101792
-0.00135531
-0.000125009
-0.00139889
-0.000147338
-0.00144928
-0.00016747
-0.00151426
-0.000180928
-0.00160129
-0.000179674
-0.00171932
-0.000152659
-0.00187893
-8.69844e-05
-0.00208636
3.03957e-05
-0.0023292
0.00020975
-0.0026313
0.000465705
-0.0030721
0.000815209
-0.00374486
0.001256
-0.00471665
0.00175839
-0.00610367
0.0021739
-0.00778715
0.00219129
-0.00731046
0.00108972
-0.00223715
0.00467088
0.00350315
0.00375315
0.00182944
0.00411278
-0.000127307
0.00411433
-0.000322335
0.0037054
-0.000280871
0.00306953
-0.000274879
0.0023146
-0.000227713
0.00150712
-0.000120493
0.000692509
2.12241e-05
-6.93404e-05
0.00014754
-0.000690397
0.000215937
-0.00112495
0.000219994
-0.00139731
0.000210432
-0.00155056
0.000183287
-0.0016483
0.000139807
-0.00171884
9.68983e-05
-0.00177785
5.9372e-05
-0.00183315
2.81922e-05
-0.00188953
3.6462e-06
-0.00194904
-1.81926e-05
-0.00201262
-3.82162e-05
-0.002082
-5.56369e-05
-0.00216027
-6.90676e-05
-0.0022505
-7.72362e-05
-0.00235374
-7.76904e-05
-0.00246904
-6.4375e-05
-0.00259262
-2.90795e-05
-0.00271638
3.67707e-05
-0.00282825
0.00014226
-0.00292473
0.000306233
-0.00301312
0.000554092
-0.00309837
0.000900461
-0.00317584
0.00133347
-0.00319994
0.00178248
-0.00311764
0.00209159
-0.00274759
0.00182124
-0.00148613
-0.000171738
-0.00365135
-0.000532232
0.00410056
0.000299164
0.000998058
-0.000102777
0.000274641
-0.000503982
7.88709e-05
-0.000853628
6.87727e-05
-0.00122258
9.40671e-05
-0.00158633
0.000136035
-0.00189323
0.000186406
-0.00210313
0.000231117
-0.00221722
0.000261628
-0.00226768
0.000266395
-0.00228689
0.000239201
-0.00228029
0.000203828
-0.00226493
0.000167919
-0.00225867
0.000133547
-0.0022659
0.000104129
-0.00228615
7.96171e-05
-0.00231733
5.93716e-05
-0.0023563
4.26143e-05
-0.00240386
2.93602e-05
-0.00245957
1.74871e-05
-0.0025216
6.39241e-06
-0.0025873
-3.36902e-06
-0.00265396
-1.05724e-05
-0.00271789
-1.37651e-05
-0.00277224
-1.00303e-05
-0.00280638
5.06308e-06
-0.00281077
4.11643e-05
-0.00277472
0.000106207
-0.00267657
0.000208078
-0.00248493
0.000362445
-0.00217289
0.000588427
-0.00172129
0.000881868
-0.00110179
0.00116298
-0.000143227
0.00113303
0.00114724
0.000530769
0.00157956
-0.000604056
-0.00199298
-0.0072287
-0.010135
-0.00599164
-0.00497375
-0.00468808
-0.00460244
-0.00452949
-0.00443322
-0.00429657
-0.00411091
-0.00388176
-0.00362325
-0.00336109
-0.00312716
-0.0029295
-0.00276844
-0.00264231
-0.00254602
-0.00247457
-0.00242361
-0.00238959
-0.00236894
-0.00236025
-0.00236268
-0.00237485
-0.00239415
-0.00241652
-0.00243499
-0.00243816
-0.00240498
-0.00230649
-0.00210585
-0.00175055
-0.001169
-0.000293742
0.000862834
0.00198943
0.00251353
0.00190241
)
;

boundaryField
{
    floor
    {
        type            calculated;
        value           nonuniform List<scalar> 
29
(
0
0
0
0
0
0
0
0
0
0
0
0
0
0
0
0
0
0
0
0
-3.60989e-06
-9.30533e-06
-1.41871e-05
-1.86012e-05
-1.44711e-06
-2.68753e-06
-7.66659e-06
-8.06002e-06
-7.2858e-06
)
;
    }
    ceiling
    {
        type            calculated;
        value           nonuniform List<scalar> 
43
(
-4.54297e-05
-4.41127e-05
-4.28066e-05
-1.98392e-05
-1.10294e-05
-6.77813e-06
-4.17577e-06
-2.21144e-06
-6.15612e-07
7.43385e-07
1.96297e-06
3.11425e-06
4.23496e-06
5.27158e-06
6.1555e-06
6.86359e-06
7.4142e-06
7.83813e-06
8.16251e-06
8.4075e-06
8.58809e-06
8.71418e-06
8.79211e-06
8.82088e-06
8.79662e-06
8.72148e-06
8.60168e-06
8.43831e-06
8.23216e-06
7.98604e-06
7.71689e-06
7.43476e-06
7.14787e-06
6.86712e-06
6.61253e-06
6.39833e-06
6.43115e-06
6.67094e-06
7.06236e-06
8.29029e-06
1.10548e-05
8.01244e-06
-6.51643e-05
)
;
    }
    sWall
    {
        type            calculated;
        value           uniform -0.000275064;
    }
    nWall
    {
        type            calculated;
        value           nonuniform List<scalar> 6(-4.71619e-05 -5.65204e-05 -6.10803e-05 -7.19334e-05 -7.88097e-05 -9.88645e-05);
    }
    sideWalls
    {
        type            empty;
        value           nonuniform 0();
    }
    glass1
    {
        type            calculated;
        value           nonuniform List<scalar> 9(-5.62373e-05 -0.00015144 -0.000231634 -0.000299943 -0.000357964 -0.000406913 -0.000451241 -0.000504914 -0.000564938);
    }
    glass2
    {
        type            calculated;
        value           nonuniform List<scalar> 2(-0.000249404 -0.000275874);
    }
    sun
    {
        type            calculated;
        value           uniform 0;
    }
    heatsource1
    {
        type            calculated;
        value           nonuniform List<scalar> 3(2.03965e-07 2.0392e-07 2.03937e-07);
    }
    heatsource2
    {
        type            calculated;
        value           nonuniform List<scalar> 4(5.11046e-08 5.12248e-08 0 0);
    }
    Table_master
    {
        type            calculated;
        value           nonuniform List<scalar> 9(-1.52972e-07 -1.53054e-07 -1.53084e-07 -1.53104e-07 -1.53118e-07 -1.53127e-07 -1.53131e-07 -1.53125e-07 -1.53093e-07);
    }
    Table_slave
    {
        type            calculated;
        value           nonuniform List<scalar> 9(1.52848e-07 1.52874e-07 1.52857e-07 1.52843e-07 1.52838e-07 1.52841e-07 1.52857e-07 1.52899e-07 1.52978e-07);
    }
    inlet
    {
        type            calculated;
        value           uniform -0.0061813;
    }
    outlet
    {
        type            calculated;
        value           nonuniform List<scalar> 2(0.00754919 0.00295042);
    }
}


// ************************************************************************* //
