/*--------------------------------*- C++ -*----------------------------------*\
  =========                 |
  \\      /  F ield         | OpenFOAM: The Open Source CFD Toolbox
   \\    /   O peration     | Website:  https://openfoam.org
    \\  /    A nd           | Version:  6
     \\/     M anipulation  |
\*---------------------------------------------------------------------------*/
FoamFile
{
    version     2.0;
    format      ascii;
    class       volScalarField;
    location    "900";
    object      alphat;
}
// * * * * * * * * * * * * * * * * * * * * * * * * * * * * * * * * * * * * * //

dimensions      [1 -1 -1 0 0 0 0];

internalField   nonuniform List<scalar> 
459
(
0.00125412
0.00137165
0.00139748
0.00146479
0.00152712
0.00158549
0.00164277
0.0016986
0.00173792
0.00175436
0.00174205
0.00169741
0.00162024
0.00151698
0.00140352
0.00055169
0.000675009
0.000759348
0.00075435
0.000728135
0.000693798
0.000650894
0.000608453
0.000569951
0.000535768
0.000505498
0.000478599
0.000454667
0.000433179
0.000413365
0.000394226
0.000374291
0.00035976
0.00032737
0.00170737
0.00418502
0.00401201
0.00467211
0.00532047
0.00596805
0.00653794
0.00696664
0.00735299
0.00766569
0.00786108
0.00788982
0.00767628
0.00703019
0.00526035
0.00143215
0.000842074
0.000596469
0.00125408
0.00173158
0.00207212
0.00225163
0.00224236
0.00180294
0.00155572
0.0013788
0.00124291
0.00113477
0.00104669
0.000970797
0.000899868
0.000830879
0.000769445
0.000715996
0.000835266
0.000426552
0.00208365
0.00571462
0.00498321
0.00625499
0.0068902
0.00736011
0.00772336
0.00801193
0.00832384
0.00864869
0.00894774
0.0091664
0.00924362
0.00908918
0.00846279
0.0065245
0.00142583
0.00119003
0.0017102
0.00219092
0.00261712
0.00290354
0.00282031
0.000931993
0.000822776
0.000735069
0.000664319
0.000606696
0.000559261
0.000519908
0.000487295
0.000460864
0.000496847
0.000574871
0.000938051
0.000492561
0.0024441
0.00729708
0.00499849
0.00662553
0.00718735
0.00737742
0.00749826
0.00764357
0.00789036
0.00822306
0.00860015
0.00895375
0.00921999
0.00932712
0.00919267
0.00852391
0.00622874
0.00170584
0.00211469
0.00272939
0.0033204
0.00378454
0.00406358
0.00379981
0.0010514
0.000956684
0.000888682
0.000836755
0.000792679
0.000752496
0.000713969
0.000673658
0.000627057
0.000588313
0.000601768
0.00106855
0.000543762
0.00281129
0.00932749
0.00549167
0.00637979
0.00712615
0.00717893
0.00711355
0.00718776
0.00740463
0.00774352
0.00816679
0.00858158
0.00889945
0.00904987
0.00900783
0.00872483
0.00800557
0.00662592
0.00615436
0.00600001
0.00594784
0.00591401
0.00584815
0.0056176
0.00473438
0.0043091
0.00406091
0.00386933
0.00366871
0.00338125
0.00299615
0.00252967
0.00201142
0.00148856
0.0010969
0.00109927
0.000728839
0.000669865
0.000811626
0.000910949
0.00320038
0.0115378
0.00754909
0.00634912
0.00691302
0.00716722
0.00700205
0.0070629
0.00722657
0.00753012
0.00795845
0.00841327
0.00876323
0.00890735
0.00882268
0.00856448
0.00822323
0.00787198
0.00767831
0.00753679
0.00737481
0.00718689
0.00697224
0.00669964
0.00629627
0.00593443
0.0056136
0.00530714
0.00499674
0.00466044
0.00424085
0.00372179
0.00310261
0.00241777
0.00181227
0.00135628
0.00101909
0.000864448
0.00123197
0.000950359
0.00355373
0.0130794
0.0105602
0.00817377
0.00774289
0.00764121
0.00737718
0.00721282
0.00726664
0.00756527
0.00804159
0.00854954
0.00891829
0.00902935
0.00887159
0.00855922
0.00829326
0.00820846
0.00822951
0.00816477
0.00795838
0.00764828
0.0072709
0.00684758
0.00640018
0.00598456
0.0056043
0.00525105
0.0049252
0.00463423
0.00437796
0.00403016
0.00354638
0.00295758
0.00239173
0.00188534
0.001512
0.00139519
0.00142092
0.00108199
0.00361968
0.0116158
0.0103317
0.00955183
0.00884449
0.00803204
0.0074058
0.00716472
0.00733025
0.00781383
0.00845032
0.00902977
0.00935795
0.00934376
0.00903507
0.00862812
0.00838879
0.008399
0.00842113
0.00817758
0.0077359
0.0071833
0.00659336
0.00602935
0.00553383
0.00511696
0.00476383
0.00446598
0.00422684
0.00405536
0.00395986
0.00391054
0.00366546
0.00328709
0.002954
0.00278162
0.0028828
0.00331557
0.00407295
0.00168946
0.00351983
0.0041767
0.0046381
0.0047514
0.00485451
0.00513548
0.00569395
0.00653746
0.00756663
0.00860295
0.00945458
0.00994176
0.00995097
0.00954394
0.00893873
0.00852776
0.00830433
0.00811353
0.00777967
0.00723419
0.00655696
0.00585391
0.00521432
0.00468374
0.00426289
0.00392746
0.00365225
0.00342198
0.00322688
0.00305711
0.00290219
0.00276085
0.00264924
0.00256688
0.00253511
0.00254569
0.00253172
0.00243165
0.00227378
0.00158955
0.00175246
0.00359715
0.00586986
0.00775005
0.00920875
0.0103139
0.0110039
0.011268
0.0111464
0.0106316
0.00984216
0.00887675
0.00806517
0.00756508
0.00715845
0.00665373
0.00603178
0.00536427
0.00472857
0.00417752
0.00374004
0.00340129
0.00313592
0.00292419
0.00275508
0.00262327
0.0025262
0.00246267
0.00243459
0.00243855
0.00245861
0.00249013
0.00252415
0.00253298
0.0024719
0.00232619
0.00210682
0.0013233
0.00234706
0.00604547
0.00899281
0.0101261
0.0106868
0.0108533
0.0106009
0.0100041
0.00918441
0.0082621
0.00739558
0.00662982
0.00601415
0.0054873
0.00495373
0.0044277
0.00396066
0.00357963
0.0032832
0.00305487
0.0028682
0.00270928
0.00257218
0.00245948
0.00237548
0.00231978
0.00229092
0.00228757
0.00231471
0.00236917
0.00244687
0.00253924
0.00262743
0.00268824
0.00266768
0.00269777
0.00274417
0.00134969
0.00208338
0.00220824
0.00229616
0.0024591
0.00237397
0.00227716
0.00221412
0.00212431
0.00199546
0.00183556
0.00165592
0.00146939
0.00128884
0.00113455
0.00101827
0.000935633
0.000876872
0.000834225
0.000802977
0.000780436
0.000764927
0.000755443
0.000751326
0.00075283
0.000760504
0.00077426
0.000793779
0.000819473
0.00085201
0.000892158
0.000938937
0.000992426
0.0010532
0.00112177
0.00119758
0.00128738
0.00131705
0.00128347
0.00120603
0.00112407
)
;

boundaryField
{
    floor
    {
        type            compressible::alphatWallFunction;
        Prt             0.85;
        value           nonuniform List<scalar> 
29
(
0.000197978
7.7118e-05
9.55337e-05
0.000107889
0.000107162
0.000103337
9.8302e-05
9.19676e-05
8.56512e-05
7.98743e-05
7.47048e-05
7.00927e-05
6.59651e-05
6.22683e-05
5.89279e-05
5.58289e-05
5.28174e-05
4.96605e-05
4.73458e-05
4.21416e-05
4.2141e-05
5.78936e-05
6.81115e-05
7.5918e-05
0.000197976
7.7117e-05
8.38577e-05
0.000168792
0.000238479
)
;
    }
    ceiling
    {
        type            compressible::alphatWallFunction;
        Prt             0.85;
        value           nonuniform List<scalar> 
43
(
0.000287863
0.000304002
0.000315309
0.000336267
0.000325451
0.000313066
0.00030497
0.000293382
0.000276655
0.000255729
0.000231978
0.00020701
0.000182499
0.000161244
0.000145006
0.000133335
0.000124963
0.000118845
0.000114339
0.000111075
0.000108823
0.000107444
0.000106844
0.000107063
0.000108181
0.00011018
0.00011301
0.000116722
0.000121402
0.000127149
0.000133806
0.000141371
0.000149909
0.000159474
0.000169971
0.000182306
0.000186362
0.000181773
0.000171137
0.000159798
0.000469014
0.00054891
0.000321663
)
;
    }
    sWall
    {
        type            compressible::alphatWallFunction;
        Prt             0.85;
        value           uniform 0.000286655;
    }
    nWall
    {
        type            compressible::alphatWallFunction;
        Prt             0.85;
        value           nonuniform List<scalar> 6(0.000129509 0.000135101 0.000153598 0.00018689 0.000190482 0.000159476);
    }
    sideWalls
    {
        type            empty;
    }
    glass1
    {
        type            compressible::alphatWallFunction;
        Prt             0.85;
        value           nonuniform List<scalar> 9(0.000173332 0.000233594 0.000282402 0.000328355 0.000374495 0.000422746 0.000466086 0.000474257 0.000462306);
    }
    glass2
    {
        type            compressible::alphatWallFunction;
        Prt             0.85;
        value           nonuniform List<scalar> 2(0.00023476 0.000221575);
    }
    sun
    {
        type            compressible::alphatWallFunction;
        Prt             0.85;
        value           nonuniform List<scalar> 
14
(
0.000177633
0.000193661
0.000197165
0.000206264
0.000214648
0.000222465
0.000230104
0.000237522
0.00024273
0.000244903
0.000243275
0.000237361
0.000227099
0.000213283
)
;
    }
    heatsource1
    {
        type            compressible::alphatWallFunction;
        Prt             0.85;
        value           nonuniform List<scalar> 3(9.48772e-05 0.000115571 0.00012981);
    }
    heatsource2
    {
        type            compressible::alphatWallFunction;
        Prt             0.85;
        value           nonuniform List<scalar> 4(0.000201973 0.000119957 0.000119956 0.000201117);
    }
    Table_master
    {
        type            compressible::alphatWallFunction;
        Prt             0.85;
        value           nonuniform List<scalar> 9(0.000132799 0.000117177 0.000104453 9.40552e-05 8.54869e-05 7.83584e-05 7.23873e-05 6.7396e-05 6.33197e-05);
    }
    Table_slave
    {
        type            compressible::alphatWallFunction;
        Prt             0.85;
        value           nonuniform List<scalar> 9(0.000149638 0.000136303 0.000126634 0.000119192 0.000112833 0.000106997 0.000101368 9.54374e-05 8.85276e-05);
    }
    inlet
    {
        type            fixedValue;
        value           uniform 1.94e-05;
    }
    outlet
    {
        type            zeroGradient;
    }
}


// ************************************************************************* //
