/*--------------------------------*- C++ -*----------------------------------*\
  =========                 |
  \\      /  F ield         | OpenFOAM: The Open Source CFD Toolbox
   \\    /   O peration     | Website:  https://openfoam.org
    \\  /    A nd           | Version:  6
     \\/     M anipulation  |
\*---------------------------------------------------------------------------*/
FoamFile
{
    version     2.0;
    format      ascii;
    class       surfaceScalarField;
    location    "230";
    object      phi;
}
// * * * * * * * * * * * * * * * * * * * * * * * * * * * * * * * * * * * * * //

dimensions      [1 0 -1 0 0 0 0];

internalField   nonuniform List<scalar> 
852
(
0.00201165
-0.00202086
0.00287737
-0.000865848
0.00405363
-0.00117639
0.00487742
-0.000823919
0.00529444
-0.00041715
0.00545557
-0.00016127
0.00545896
-3.51645e-06
0.00534899
0.00010984
0.00514753
0.000201323
0.00486393
0.000283472
0.00449005
0.000373751
0.0039932
0.000496713
0.00329583
0.000697243
0.00218477
0.00111092
0.00218045
-0.00012405
0.000117718
-0.000448911
0.000324707
-2.79079e-05
-0.000421154
0.000651644
-0.000679702
0.001188
-0.000536507
0.00155101
-0.000363163
0.00175924
-0.000208381
0.00186898
-0.000109888
0.00193873
-6.99113e-05
0.00198902
-5.04397e-05
0.00202449
-3.5621e-05
0.00204524
-2.09096e-05
0.00204477
3.20654e-07
0.00200516
3.94531e-05
0.00188685
0.000118148
0.00162198
0.000264711
0.00114789
0.000473932
0.000299892
0.00084784
0.000290968
0.00100565
-0.0030527
0.00219145
-0.00205178
0.00327227
-0.00225735
0.00387896
-0.00143074
0.00418274
-0.000721066
0.00429386
-0.000272528
0.00427296
1.72445e-05
0.0041593
0.000223361
0.00398261
0.000377882
0.00375737
0.00050857
0.00348661
0.000644374
0.00316825
0.000814941
0.00281307
0.00105228
0.0025472
0.00137666
0.00292955
0.00179797
0.00140112
0.00152824
0.00140093
-8.30715e-05
0.00018686
0.000397916
-0.000156434
0.000925495
-0.000948883
0.00130205
-0.0010564
0.00160884
-0.000843453
0.0018093
-0.00056377
0.00185281
-0.000252042
0.00186644
-0.000123675
0.00187974
-8.33676e-05
0.00189111
-6.19658e-05
0.00189981
-4.44732e-05
0.00190617
-2.74281e-05
0.00190752
-1.17751e-06
0.00189587
5.09485e-05
0.00183128
0.000182578
0.00157715
0.000518681
0.00117155
0.000879369
0.000700132
0.0013191
0.000967883
0.000461493
-0.003557
0.00145853
-0.00304896
0.0023043
-0.00310326
0.00268387
-0.00181046
0.0028346
-0.000871939
0.00285136
-0.000289429
0.00278866
7.98057e-05
0.00269437
0.000317504
0.00259144
0.000480671
0.00248465
0.000615218
0.00237403
0.000754853
0.00226423
0.000924609
0.00217292
0.00114345
0.00212513
0.00142431
0.00209149
0.00183148
0.00151762
0.00210198
0.00291841
0.000147363
1.76565e-05
0.00135679
-0.00136601
0.0017765
-0.00136874
0.0019362
-0.00121625
0.00204389
-0.000951296
0.00213387
-0.000653898
0.00188183
0.00175815
0.00167478
0.00161282
0.00156834
0.00154091
0.00153973
0.00159067
0.00177325
0.00146147
0.000830297
0.00117996
0.00116072
0.000872106
0.0016268
0.00180454
5.91084e-05
-0.00367548
0.00058344
-0.00357343
0.00115171
-0.00367168
0.00138018
-0.00203909
0.00139173
-0.000883638
0.00132179
-0.000219647
0.00126266
0.000138784
0.00124742
0.0003326
0.00126317
0.000464771
0.00129492
0.00058333
0.00133779
0.000711838
0.00139594
0.000866309
0.00147967
0.00105959
0.00160058
0.00130326
0.00180656
0.00162536
0.00211459
0.00179382
0.00319541
0.00183745
0.00256341
0.000603429
0.00305695
-0.000476023
0.00266651
-0.000975713
0.00248121
-0.00118358
0.00234258
-0.00107776
0.00223233
-0.000841206
0.00211506
-0.000536778
0.0022829
-0.000168148
0.00229549
-1.29046e-05
0.00223247
6.27043e-05
0.00212041
0.000111752
0.00196827
0.000151826
0.00177798
0.000189976
0.00154405
0.000233614
0.00124895
0.000294781
0.000843911
0.000404722
0.000930857
0.000743187
0.000966001
0.00112541
0.00105096
0.00154168
0.00281055
-0.000388654
-0.003362
-0.000423868
-0.00353835
7.17779e-06
-0.00410289
0.000214449
-0.00224652
0.000146897
-0.000816247
7.97477e-05
-0.000152655
8.73663e-05
0.000131013
0.000151071
0.000268744
0.000247218
0.000368474
0.000364928
0.000465471
0.000503268
0.000573351
0.000668535
0.000700896
0.000874705
0.000853273
0.00115015
0.00102768
0.0015586
0.00121677
0.00207639
0.00127589
0.00273057
0.00118313
0.00299098
0.000342874
0.00289608
-0.000381256
0.00267059
-0.000750375
0.00237605
-0.000889184
0.00210966
-0.000811523
0.00188241
-0.00061411
0.00170486
-0.000359388
0.00162658
-9.00274e-05
0.00151949
9.40205e-05
0.00138754
0.000194484
0.00124473
0.000254399
0.00109463
0.000301753
0.000935828
0.000348611
0.00076685
0.000402424
0.000591708
0.000469755
0.000454107
0.000542156
0.000519832
0.000677294
0.000813844
0.000831233
0.00157761
0.000777743
0.00278019
0.00160781
0.00127663
0.0015032
-9.83953e-05
0.00137465
-0.000146112
-0.000862789
-0.00258903
-0.00120616
-0.00319511
-0.000908365
-0.00440084
-0.000679304
-0.00247576
-0.000659151
-0.000836565
-0.00064899
-0.000162976
-0.000604634
8.64976e-05
-0.000527286
0.000191238
-0.000418181
0.000259213
-0.000278688
0.000325823
-0.00010568
0.00040019
0.00010811
0.000486955
0.000371274
0.00058996
0.000700191
0.000698611
0.0011232
0.000793615
0.00160623
0.000792711
0.00214845
0.00064077
0.00234701
0.000144172
0.00224797
-0.000282368
0.00202427
-0.000526822
0.00172734
-0.000592415
0.00142942
-0.000513757
0.00116361
-0.000348462
0.0009448
-0.00014075
0.000782912
7.16924e-05
0.00065497
0.000221792
0.000540578
0.000308705
0.000428802
0.000366003
0.000316683
0.0004137
0.000205382
0.00045974
0.000102096
0.000505537
2.56803e-05
0.000546
9.67556e-06
0.00055799
0.000144607
0.00054219
0.000426333
0.000549337
0.000718762
0.000485147
0.000949574
0.00137683
0.000488896
0.00196371
-0.00033167
0.00219505
-0.00052422
-0.00123227
-0.00145867
-0.00182264
-0.00260487
-0.001507
-0.00471663
-0.00119228
-0.00279066
-0.00107377
-0.000955248
-0.00101867
-0.000218241
-0.000970753
3.84113e-05
-0.000902962
0.000123284
-0.000806462
0.00016255
-0.000678451
0.000197649
-0.000516587
0.000238166
-0.000315096
0.000285305
-6.26431e-05
0.000337351
0.000244812
0.000391002
0.00060484
0.000433434
0.00098357
0.000413831
0.00132823
0.000295959
0.00142474
4.75074e-05
0.00131701
-0.000174797
0.00109186
-0.000301834
0.000810414
-0.000311133
0.000524525
-0.000228037
0.00026555
-8.96591e-05
5.72655e-05
6.73603e-05
-8.03424e-05
0.000209125
-0.000167
0.000308272
-0.000236406
0.000377935
-0.000301632
0.000431051
-0.000362637
0.000474527
-0.000412469
0.000509396
-0.000438713
0.000531604
-0.000424026
0.000531137
-0.000356016
0.000489805
-0.000229358
0.000415359
-6.75886e-05
0.000387397
4.03377e-05
0.000377055
0.000231574
0.00118543
6.06727e-05
0.00213444
-0.000180108
0.00243566
-0.000747355
-0.00125125
-0.000317884
-0.00201254
-0.0018437
-0.00177506
-0.00495424
-0.0012936
-0.0032723
-0.00119457
-0.00105445
-0.00119175
-0.000221236
-0.0011838
3.0296e-05
-0.00114522
8.4524e-05
-0.00107584
9.30019e-05
-0.000977113
9.87531e-05
-0.000849645
0.000110529
-0.000692742
0.000128235
-0.000505327
0.00014977
-0.000287036
0.000172547
-4.28271e-05
0.000189063
0.00018993
0.000180911
0.000353545
0.000132181
0.000366268
3.46189e-05
0.000246422
-5.51199e-05
3.72699e-05
-9.28542e-05
-0.000208102
-6.59355e-05
-0.000443801
7.48507e-06
-0.000634144
0.000100505
-0.000759015
0.00019205
-0.000826044
0.000275972
-0.000863295
0.000345341
-0.000886346
0.000400805
-0.000899632
0.000444155
-0.00089982
0.000474533
-0.000878821
0.000488216
-0.000826304
0.000478907
-0.00073377
0.000438423
-0.000605397
0.000361256
-0.000456712
0.0002665
-0.000281094
0.000211609
-0.000139789
0.000235582
0.000266706
0.000778768
0.000648718
0.00175226
0.00152583
0.00155837
0.000522973
-0.000479308
-0.00236666
-0.00112613
-0.00619488
-0.000770428
-0.00362818
-0.00113321
-0.000691851
-0.00133461
-2.00245e-05
-0.00140261
9.81168e-05
-0.00140594
8.76821e-05
-0.00137403
6.09132e-05
-0.0013185
4.30445e-05
-0.00124455
3.64032e-05
-0.00115521
3.87126e-05
-0.00105345
4.78405e-05
-0.000943388
6.23097e-05
-0.000833763
7.92653e-05
-0.000744802
9.1777e-05
-0.000703767
9.0971e-05
-0.000740254
7.09302e-05
-0.000848397
5.28447e-05
-0.000999476
5.8044e-05
-0.00115385
8.82604e-05
-0.00127869
0.000132138
-0.00136017
0.000181798
-0.00140223
0.000233928
-0.00141167
0.000285223
-0.00139843
0.000331916
-0.00136887
0.000371057
-0.00132435
0.000399445
-0.00126294
0.000412937
-0.0011812
0.000406296
-0.00107597
0.000373489
-0.000946929
0.000309204
-0.000799763
0.00021391
-0.000637057
0.000103617
-0.00043392
8.2976e-06
-0.00021039
1.18816e-05
0.000257376
0.000310835
0.000954618
0.00105485
0.00165321
0.000859605
0.00190227
0.00216496
-0.00198941
-0.000547747
-0.000915634
-0.00140929
0.00016951
-0.00165573
0.000226232
-0.00172168
0.000163882
-0.00173357
9.93846e-05
-0.00172738
5.45446e-05
-0.0017135
2.89801e-05
-0.00169491
1.76272e-05
-0.00167302
1.66435e-05
-0.00164944
2.40766e-05
-0.00162632
3.90074e-05
-0.00160711
5.98812e-05
-0.00159811
8.25959e-05
-0.0016078
0.000100474
-0.00164549
0.000108435
-0.00170532
0.000112485
-0.00176904
0.000121583
-0.00181899
0.000138016
-0.00184637
0.000159338
-0.00184884
0.000184075
-0.00182702
0.000211918
-0.00178321
0.000241227
-0.00172068
0.000269192
-0.00164227
0.000292457
-0.00155028
0.000307266
-0.00144705
0.000309519
-0.00133575
0.000294814
-0.00122131
0.000258859
-0.00111118
0.000198891
-0.00101414
0.000116693
-0.000933325
2.26198e-05
-0.00085134
-7.38652e-05
-0.000760892
-7.87423e-05
-0.000637824
0.000187592
-0.00034524
0.000762092
-0.000101151
0.000615337
0.0017512
-0.00191842
-0.000121382
-0.00251514
-0.000319092
-0.00231316
-3.26574e-05
-0.00217118
8.40633e-05
-0.00209662
8.91303e-05
-0.00206574
6.83278e-05
-0.00206127
4.98804e-05
-0.00207136
3.88933e-05
-0.00208853
3.46106e-05
-0.00210791
3.58376e-05
-0.00212595
4.19255e-05
-0.00213973
5.26001e-05
-0.0021473
6.72725e-05
-0.00214898
8.40859e-05
-0.00214828
9.9587e-05
-0.00215062
0.00011058
-0.00215637
0.000118045
-0.00215999
0.000125015
-0.00215504
0.000132875
-0.0021375
0.000141612
-0.00210505
0.000151425
-0.00205582
0.0001625
-0.00198887
0.000174089
-0.00190448
0.000184612
-0.00180424
0.000192024
-0.00169123
0.000194063
-0.00157034
0.000188447
-0.00144887
0.000173157
-0.00133731
0.000147105
-0.00125001
0.000111407
-0.00120391
7.04124e-05
-0.00121127
2.97976e-05
-0.00129211
6.78924e-06
-0.00138727
1.62387e-05
-0.00132282
0.000122963
-0.000929927
0.000369013
-0.000813845
0.000499071
0.000873527
-0.00302983
-0.00171934
-0.00192048
-0.00231328
-0.00241927
-0.00240814
-0.00239171
-0.00239595
-0.00241859
-0.00245223
-0.00249023
-0.00252711
-0.002558
-0.00257832
-0.00258405
-0.00257302
-0.00254657
-0.00250926
-0.00246468
-0.00241336
-0.00235443
-0.00228698
-0.00220989
-0.00212184
-0.00202224
-0.00191205
-0.00179427
-0.00167414
-0.00155918
-0.00145892
-0.00138402
-0.0013441
-0.0013446
-0.00138548
-0.0014496
-0.00150457
-0.00145207
-0.00115131
-0.000719109
)
;

boundaryField
{
    floor
    {
        type            calculated;
        value           nonuniform List<scalar> 
29
(
0
0
0
0
0
0
0
0
0
0
0
0
0
0
0
0
0
0
0
0
8.76118e-06
2.30539e-05
3.52892e-05
4.47807e-05
4.18349e-06
6.17332e-06
1.37696e-05
2.16833e-05
2.84357e-05
)
;
    }
    ceiling
    {
        type            calculated;
        value           nonuniform List<scalar> 
43
(
9.91034e-05
9.45062e-05
7.95689e-05
7.3522e-05
7.31486e-05
7.2746e-05
7.2514e-05
7.23797e-05
7.23295e-05
7.23511e-05
7.24235e-05
7.25247e-05
7.2633e-05
7.27298e-05
7.28051e-05
7.28676e-05
7.29474e-05
7.30788e-05
7.32714e-05
7.35049e-05
7.37471e-05
7.39684e-05
7.41456e-05
7.42598e-05
7.42941e-05
7.42311e-05
7.40532e-05
7.37442e-05
7.32943e-05
7.27081e-05
7.20175e-05
7.13022e-05
7.07175e-05
7.04936e-05
7.07235e-05
7.10213e-05
7.02706e-05
6.80635e-05
6.66832e-05
7.28153e-05
4.40766e-05
4.35576e-05
5.02138e-05
)
;
    }
    sWall
    {
        type            calculated;
        value           uniform 8.72033e-05;
    }
    nWall
    {
        type            calculated;
        value           nonuniform List<scalar> 6(4.73174e-05 4.62471e-05 4.28388e-05 4.97339e-05 6.36372e-05 8.14102e-05);
    }
    sideWalls
    {
        type            empty;
        value           nonuniform 0();
    }
    glass1
    {
        type            calculated;
        value           nonuniform List<scalar> 9(9.08836e-06 2.6062e-05 4.26804e-05 5.9252e-05 7.50452e-05 8.96965e-05 0.000101788 0.000110347 0.000117246);
    }
    glass2
    {
        type            calculated;
        value           nonuniform List<scalar> 2(0.000255314 0.000273726);
    }
    sun
    {
        type            calculated;
        value           uniform 0;
    }
    heatsource1
    {
        type            calculated;
        value           nonuniform List<scalar> 3(2.03473e-07 2.03918e-07 2.03916e-07);
    }
    heatsource2
    {
        type            calculated;
        value           nonuniform List<scalar> 4(5.11757e-08 5.1348e-08 0 0);
    }
    Table_master
    {
        type            calculated;
        value           nonuniform List<scalar> 9(-1.53109e-07 -1.53221e-07 -1.53249e-07 -1.5326e-07 -1.53261e-07 -1.53254e-07 -1.53239e-07 -1.532e-07 -1.53119e-07);
    }
    Table_slave
    {
        type            calculated;
        value           nonuniform List<scalar> 9(1.52849e-07 1.52868e-07 1.5284e-07 1.52833e-07 1.52843e-07 1.52867e-07 1.52903e-07 1.52953e-07 1.53025e-07);
    }
    inlet
    {
        type            calculated;
        value           uniform -0.00637048;
    }
    outlet
    {
        type            calculated;
        value           nonuniform List<scalar> 2(0.00284333 -0.00140518);
    }
}


// ************************************************************************* //
