/*--------------------------------*- C++ -*----------------------------------*\
  =========                 |
  \\      /  F ield         | OpenFOAM: The Open Source CFD Toolbox
   \\    /   O peration     | Website:  https://openfoam.org
    \\  /    A nd           | Version:  6
     \\/     M anipulation  |
\*---------------------------------------------------------------------------*/
FoamFile
{
    version     2.0;
    format      ascii;
    class       volScalarField;
    location    "690";
    object      nut;
}
// * * * * * * * * * * * * * * * * * * * * * * * * * * * * * * * * * * * * * //

dimensions      [0 2 -1 0 0 0 0];

internalField   nonuniform List<scalar> 
459
(
0.000838713
0.000914945
0.000936998
0.000982968
0.00102521
0.001065
0.00110447
0.00114546
0.00117985
0.00120347
0.0012108
0.00119585
0.00115144
0.00106311
0.000869746
0.00050465
0.00070334
0.000680287
0.000657903
0.000636291
0.000611948
0.000579022
0.000544931
0.000513334
0.000484822
0.000459354
0.00043654
0.000415842
0.000396692
0.00037839
0.000359878
0.000339974
0.000308314
0.000293645
0.00112906
0.00257491
0.00238266
0.00273322
0.00309246
0.0034689
0.00381848
0.0040855
0.00436703
0.00464701
0.00489582
0.0050772
0.00514022
0.00498723
0.00421203
0.000953575
0.000643712
0.000719362
0.00203286
0.00195375
0.00210741
0.00222143
0.00217963
0.0017
0.0014631
0.00129915
0.00117446
0.00107355
0.000985239
0.000905275
0.000829007
0.000754782
0.000691826
0.000671793
0.000573612
0.000373793
0.0013739
0.00345481
0.00290542
0.00354031
0.00382683
0.0040368
0.00420142
0.00434302
0.00455206
0.00483022
0.00516357
0.00552127
0.00584341
0.00603028
0.00576922
0.00438892
0.000976456
0.000889551
0.00162491
0.00220306
0.00263539
0.00289728
0.00272951
0.000788699
0.000697653
0.000624712
0.000566254
0.000518998
0.000480535
0.000449074
0.000423622
0.000404276
0.000454784
0.000568772
0.000631906
0.000410073
0.00161
0.00434972
0.00283107
0.00367608
0.00382519
0.0038093
0.00378405
0.00383062
0.00398789
0.00426093
0.00464779
0.00512255
0.0056101
0.00602212
0.00615452
0.00572022
0.00370558
0.00117381
0.00164615
0.00227195
0.00292048
0.00343674
0.00372739
0.00341872
0.000870255
0.000799801
0.000754448
0.000723791
0.000700417
0.000678319
0.000652986
0.000626586
0.000594819
0.000567119
0.000590103
0.00071745
0.000463958
0.00185169
0.00553863
0.00289566
0.00348593
0.00366465
0.00351256
0.0033726
0.003393
0.00354404
0.00381849
0.00423324
0.00476591
0.00529972
0.0057076
0.00593278
0.00590728
0.00549758
0.00477078
0.00467117
0.00476061
0.00486781
0.004923
0.00489185
0.00467972
0.00395549
0.00366079
0.00352609
0.00344779
0.00337612
0.00327664
0.00309982
0.00276169
0.00229705
0.00177279
0.00133452
0.00115139
0.000795822
0.00053846
0.00053854
0.000531724
0.00210976
0.00690409
0.00379694
0.00317846
0.00347507
0.00340428
0.00323377
0.00322014
0.00336928
0.00364105
0.0040705
0.00461465
0.00514839
0.00553883
0.00573381
0.00578187
0.00577297
0.00577892
0.00584281
0.00585517
0.00577961
0.00562557
0.00541775
0.00517457
0.00490349
0.00472389
0.00461087
0.00452943
0.00445353
0.00435556
0.004202
0.003929
0.00350985
0.00296021
0.00237091
0.00192137
0.00148147
0.001149
0.00126437
0.000697567
0.00236965
0.00800126
0.00567104
0.00364219
0.0032428
0.00332022
0.00332473
0.00332133
0.00340212
0.00364719
0.00408829
0.00466465
0.00522664
0.00561986
0.00579461
0.00585
0.00594253
0.00610012
0.00618668
0.0061158
0.00591493
0.00564164
0.00535256
0.00509542
0.0049025
0.00478293
0.00470809
0.0046554
0.00460809
0.00454092
0.00442577
0.00425385
0.00399892
0.0036127
0.00313403
0.00266131
0.00218407
0.0017607
0.00165069
0.000833646
0.00244382
0.00778256
0.00638309
0.00516484
0.00434414
0.00402696
0.00374312
0.00352487
0.0035205
0.00377974
0.00428053
0.00491896
0.00551539
0.005906
0.00605932
0.00609935
0.0061369
0.00615339
0.00605455
0.00584184
0.00557017
0.00529177
0.00504692
0.00485591
0.00471884
0.00461934
0.00453815
0.00446787
0.00440408
0.00432682
0.00420791
0.00406238
0.00395031
0.00380704
0.00354252
0.00325583
0.00294752
0.00247176
0.00262797
0.00108231
0.00240184
0.00290694
0.00321725
0.00333559
0.00330687
0.00322553
0.00317619
0.00324138
0.00351173
0.00401093
0.00468091
0.00540167
0.00598892
0.0063029
0.00635922
0.00628036
0.00609236
0.00588746
0.00567833
0.00546668
0.00526572
0.00508858
0.00494061
0.00481508
0.00469765
0.00457243
0.00442943
0.00426975
0.00409912
0.00390486
0.00364196
0.00330058
0.00295515
0.00267477
0.00244406
0.0022338
0.00204927
0.00189132
0.00178257
0.00113337
0.00126218
0.00202138
0.00252304
0.00284443
0.00315392
0.0036241
0.00421061
0.0048634
0.0055397
0.00616632
0.00655431
0.00659796
0.00640111
0.00617324
0.00599435
0.00585921
0.00574332
0.00563253
0.00552565
0.00542709
0.00533531
0.00524085
0.00512841
0.00497921
0.00477509
0.00450468
0.00417126
0.00379699
0.00340973
0.00301738
0.00266939
0.00240199
0.00221653
0.00209303
0.00199406
0.00188353
0.00178036
0.00124596
0.00148495
0.00250437
0.00315697
0.00375238
0.00450243
0.00513312
0.00560098
0.0060899
0.00662674
0.00715096
0.00737193
0.00722684
0.00689598
0.00662962
0.00648207
0.00641185
0.00636816
0.00631511
0.00624339
0.00617804
0.00612552
0.00608522
0.00604883
0.00599726
0.0058996
0.00571777
0.00541973
0.00499852
0.00450741
0.00399273
0.00350358
0.00307657
0.00273391
0.00247743
0.00228123
0.00213843
0.00278145
0.00137578
0.0013751
0.00144795
0.00150985
0.00165231
0.00162816
0.00155032
0.00148223
0.00147799
0.00153682
0.0015977
0.00164311
0.00165658
0.00163085
0.00158627
0.00155112
0.00152665
0.00151141
0.00150119
0.00149277
0.00148586
0.00148192
0.00147934
0.00147774
0.00147569
0.00147056
0.00145882
0.00143691
0.001403
0.0013593
0.00131391
0.00127003
0.00123183
0.00120162
0.00118105
0.00117112
0.0011705
0.00117253
0.00116198
0.0011621
0.00113016
)
;

boundaryField
{
    floor
    {
        type            nutkWallFunction;
        Cmu             0.09;
        kappa           0.41;
        E               9.8;
        value           nonuniform List<scalar> 
29
(
0.000105273
6.0314e-05
8.51366e-05
8.23049e-05
7.95443e-05
7.68684e-05
7.3841e-05
6.97229e-05
6.54289e-05
6.14198e-05
5.77759e-05
5.44986e-05
5.15436e-05
4.88459e-05
4.6335e-05
4.39207e-05
4.14637e-05
3.88039e-05
3.45308e-05
3.25332e-05
3.25331e-05
4.33121e-05
4.80907e-05
5.50921e-05
0.000105273
6.0314e-05
8.70984e-05
0.00010764
0.000140982
)
;
    }
    ceiling
    {
        type            nutkWallFunction;
        Cmu             0.09;
        kappa           0.41;
        E               9.8;
        value           nonuniform List<scalar> 
43
(
0.000163999
0.00017224
0.000179207
0.000195136
0.000192454
0.000183765
0.000176125
0.000175653
0.000182267
0.000189082
0.000194147
0.000195649
0.000192786
0.000187812
0.00018388
0.000181137
0.000179425
0.000178277
0.000177331
0.000176553
0.00017611
0.000175819
0.000175639
0.000175408
0.000174831
0.000173507
0.000171034
0.000167198
0.00016224
0.00015707
0.000152055
0.000147672
0.000144195
0.000141823
0.000140675
0.000140604
0.000140838
0.000139618
0.000139632
0.000135932
0.000276855
0.0003303
0.000176395
)
;
    }
    sWall
    {
        type            nutkWallFunction;
        Cmu             0.09;
        kappa           0.41;
        E               9.8;
        value           uniform 0.000164029;
    }
    nWall
    {
        type            nutkWallFunction;
        Cmu             0.09;
        kappa           0.41;
        E               9.8;
        value           nonuniform List<scalar> 6(6.37415e-05 8.44242e-05 0.00010095 0.000149309 0.000164128 0.000135943);
    }
    sideWalls
    {
        type            empty;
    }
    glass1
    {
        type            nutkWallFunction;
        Cmu             0.09;
        kappa           0.41;
        E               9.8;
        value           nonuniform List<scalar> 9(0.000101569 0.000135875 0.000164011 0.000190613 0.000217402 0.000245593 0.000273612 0.00028155 0.000277067);
    }
    glass2
    {
        type            nutkWallFunction;
        Cmu             0.09;
        kappa           0.41;
        E               9.8;
        value           nonuniform List<scalar> 2(0.000130392 0.000136336);
    }
    sun
    {
        type            nutkWallFunction;
        Cmu             0.09;
        kappa           0.41;
        E               9.8;
        value           nonuniform List<scalar> 
14
(
0.000101557
0.000110663
0.000113281
0.000118715
0.000123684
0.000128342
0.000132942
0.000137701
0.000141679
0.000144403
0.000145247
0.000143524
0.000138393
0.00012812
)
;
    }
    heatsource1
    {
        type            nutkWallFunction;
        Cmu             0.09;
        kappa           0.41;
        E               9.8;
        value           nonuniform List<scalar> 3(6.46038e-05 6.46138e-05 6.37495e-05);
    }
    heatsource2
    {
        type            nutkWallFunction;
        Cmu             0.09;
        kappa           0.41;
        E               9.8;
        value           nonuniform List<scalar> 4(0.000115247 7.77866e-05 7.77866e-05 0.00011795);
    }
    Table_master
    {
        type            nutkWallFunction;
        Cmu             0.09;
        kappa           0.41;
        E               9.8;
        value           nonuniform List<scalar> 9(9.55297e-05 8.44374e-05 7.54264e-05 6.81128e-05 6.21333e-05 5.72169e-05 5.31592e-05 4.98503e-05 4.73186e-05);
    }
    Table_slave
    {
        type            nutkWallFunction;
        Cmu             0.09;
        kappa           0.41;
        E               9.8;
        value           nonuniform List<scalar> 9(0.000105338 9.68714e-05 9.13754e-05 8.76382e-05 8.47762e-05 8.20599e-05 7.8933e-05 7.56586e-05 7.16966e-05);
    }
    inlet
    {
        type            calculated;
        value           uniform 0.000100623;
    }
    outlet
    {
        type            calculated;
        value           nonuniform List<scalar> 2(0.0013751 0.00144795);
    }
}


// ************************************************************************* //
