// -*- C++ -*-
// File generated by PyFoam - sorry for the ugliness

FoamFile
{
 version 2.0;
 format ascii;
 class volScalarField;
 location "690";
 object T;
}

dimensions [ 0 0 0 1 0 0 0 ];

internalField nonuniform List<scalar> 459
(
  303.478
  303.343
  303.34
  303.341
  303.342
  303.343
  303.343
  303.342
  303.34
  303.336
  303.331
  303.326
  303.323
  303.32
  303.299
  303.266
  303.346
  303.371
  303.382
  303.388
  303.392
  303.392
  303.39
  303.388
  303.385
  303.382
  303.38
  303.377
  303.374
  303.371
  303.367
  303.361
  303.35
  303.285
  303.575
  303.375
  303.369
  303.373
  303.377
  303.38
  303.38
  303.378
  303.372
  303.36
  303.347
  303.337
  303.333
  303.334
  303.337
  303.345
  303.349
  303.351
  303.391
  303.404
  303.415
  303.424
  303.43
  303.431
  303.431
  303.431
  303.431
  303.43
  303.429
  303.428
  303.425
  303.421
  303.414
  303.402
  303.381
  303.363
  303.672
  303.403
  303.39
  303.399
  303.408
  303.415
  303.418
  303.417
  303.405
  303.384
  303.358
  303.338
  303.331
  303.335
  303.343
  303.35
  303.352
  303.383
  303.398
  303.415
  303.43
  303.443
  303.452
  303.451
  303.451
  303.451
  303.451
  303.451
  303.451
  303.45
  303.449
  303.446
  303.441
  303.428
  303.407
  303.388
  303.769
  303.434
  303.409
  303.423
  303.439
  303.455
  303.465
  303.467
  303.45
  303.413
  303.37
  303.337
  303.325
  303.332
  303.345
  303.356
  303.361
  303.369
  303.387
  303.408
  303.429
  303.448
  303.465
  303.477
  303.488
  303.498
  303.505
  303.512
  303.518
  303.523
  303.527
  303.53
  303.531
  303.506
  303.476
  303.442
  303.414
  303.865
  303.47
  303.427
  303.44
  303.465
  303.491
  303.513
  303.52
  303.496
  303.441
  303.379
  303.333
  303.318
  303.327
  303.347
  303.365
  303.381
  303.397
  303.417
  303.438
  303.459
  303.479
  303.495
  303.509
  303.521
  303.53
  303.538
  303.544
  303.548
  303.552
  303.553
  303.553
  303.55
  303.537
  303.512
  303.478
  303.443
  303.443
  303.444
  303.476
  303.953
  303.517
  303.451
  303.454
  303.478
  303.509
  303.545
  303.562
  303.527
  303.456
  303.38
  303.326
  303.309
  303.323
  303.351
  303.38
  303.405
  303.428
  303.45
  303.473
  303.493
  303.512
  303.527
  303.539
  303.549
  303.556
  303.561
  303.565
  303.568
  303.569
  303.569
  303.567
  303.563
  303.553
  303.536
  303.511
  303.481
  303.468
  303.462
  303.483
  304.03
  303.592
  303.513
  303.492
  303.502
  303.528
  303.569
  303.579
  303.533
  303.45
  303.364
  303.308
  303.296
  303.321
  303.362
  303.403
  303.437
  303.465
  303.489
  303.51
  303.528
  303.544
  303.556
  303.564
  303.571
  303.575
  303.578
  303.579
  303.58
  303.579
  303.578
  303.575
  303.57
  303.562
  303.55
  303.532
  303.509
  303.491
  303.479
  303.491
  304.145
  303.801
  303.703
  303.638
  303.61
  303.611
  303.629
  303.597
  303.512
  303.405
  303.315
  303.272
  303.28
  303.325
  303.384
  303.437
  303.477
  303.505
  303.528
  303.545
  303.558
  303.568
  303.576
  303.581
  303.584
  303.585
  303.586
  303.586
  303.584
  303.583
  303.58
  303.577
  303.573
  303.566
  303.557
  303.545
  303.528
  303.514
  303.504
  303.571
  304.303
  304.146
  304.028
  303.917
  303.833
  303.779
  303.699
  303.559
  303.406
  303.284
  303.219
  303.219
  303.27
  303.349
  303.425
  303.485
  303.519
  303.541
  303.557
  303.568
  303.576
  303.582
  303.585
  303.588
  303.589
  303.589
  303.588
  303.587
  303.585
  303.583
  303.58
  303.577
  303.574
  303.572
  303.57
  303.572
  303.578
  303.59
  303.607
  303.649
  301.604
  302.333
  302.721
  302.866
  302.901
  302.922
  302.951
  303.001
  303.081
  303.188
  303.303
  303.413
  303.485
  303.526
  303.549
  303.563
  303.572
  303.579
  303.583
  303.586
  303.587
  303.588
  303.589
  303.589
  303.589
  303.588
  303.587
  303.586
  303.584
  303.583
  303.583
  303.583
  303.584
  303.588
  303.595
  303.607
  303.623
  303.654
  301.657
  302.233
  302.487
  302.613
  302.683
  302.77
  302.884
  303.013
  303.152
  303.298
  303.407
  303.478
  303.522
  303.547
  303.562
  303.57
  303.575
  303.579
  303.581
  303.583
  303.585
  303.586
  303.587
  303.588
  303.589
  303.589
  303.59
  303.59
  303.591
  303.591
  303.591
  303.591
  303.592
  303.595
  303.599
  303.607
  303.62
  303.64
  302.124
  302.085
  302.085
  302.403
  302.575
  302.7
  302.835
  302.995
  303.142
  303.266
  303.364
  303.438
  303.488
  303.518
  303.536
  303.546
  303.552
  303.556
  303.558
  303.56
  303.562
  303.563
  303.565
  303.566
  303.568
  303.569
  303.571
  303.573
  303.574
  303.577
  303.579
  303.581
  303.583
  303.586
  303.588
  303.59
  303.594
  303.599
  303.598
  303.63
)
;

boundaryField
{
  floor
  {
    type wallHeatTransfer;
    Tinf uniform 300.653;
    alphaWall uniform 0.24;
    value nonuniform List<scalar> 29
(
  302.971
  302.791
  302.957
  302.969
  302.969
  302.964
  302.956
  302.939
  302.918
  302.897
  302.876
  302.855
  302.835
  302.816
  302.797
  302.777
  302.755
  302.729
  302.682
  302.615
  302.615
  302.766
  302.82
  302.884
  302.971
  302.791
  302.967
  303.05
  303.101
)
;
  }
  ceiling
  {
    type wallHeatTransfer;
    Tinf uniform 300.653;
    alphaWall uniform 0.24;
    value nonuniform List<scalar> 43
(
  301.995
  301.965
  301.968
  302.27
  302.427
  302.537
  302.655
  302.801
  302.942
  303.063
  303.158
  303.227
  303.27
  303.293
  303.306
  303.312
  303.316
  303.318
  303.319
  303.32
  303.321
  303.322
  303.324
  303.325
  303.325
  303.325
  303.324
  303.321
  303.316
  303.311
  303.306
  303.302
  303.298
  303.296
  303.297
  303.299
  303.302
  303.305
  303.304
  303.327
  304.098
  303.978
  301.574
)
;
  }
  sWall
  {
    type wallHeatTransfer;
    Tinf uniform 310.178;
    alphaWall uniform 0.36;
    value uniform 303.138;
  }
  nWall
  {
    type wallHeatTransfer;
    Tinf uniform 306.167;
    alphaWall uniform 0.36;
    value nonuniform List<scalar> 6
(
  304.128
  304.03
  303.975
  303.995
  303.958
  304
)
;
  }
  sideWalls
  {
    type empty;
  }
  glass1
  {
    type wallHeatTransfer;
    Tinf uniform 310.178;
    alphaWall uniform 4.3;
    value nonuniform List<scalar> 9
(
  308.343
  308.022
  307.807
  307.637
  307.491
  307.355
  307.236
  307.25
  307.35
)
;
  }
  glass2
  {
    type wallHeatTransfer;
    Tinf uniform 306.167;
    alphaWall uniform 4.3;
    value nonuniform List<scalar> 2
(
  305.336
  305.339
)
;
  }
  sun
  {
    type wallHeatTransfer;
    Tinf uniform 300.653;
    alphaWall uniform 0.24;
    value nonuniform List<scalar> 14
(
  303.119
  303.022
  303.025
  303.037
  303.047
  303.056
  303.064
  303.071
  303.075
  303.075
  303.072
  303.065
  303.055
  303.035
)
;
  }
  heatsource1
  {
    type fixedGradient;
    gradient uniform 0;
  }
  heatsource2
  {
    type fixedGradient;
    gradient uniform 0;
  }
  Table_master
  {
    type zeroGradient;
  }
  Table_slave
  {
    type zeroGradient;
  }
  inlet
  {
    type fixedValue;
    value uniform 300.15;
  }
  outlet
  {
    type zeroGradient;
  }
} 	// ************************************************************************* //

