// -*- C++ -*-
// File generated by PyFoam - sorry for the ugliness

FoamFile
{
 version 2.0;
 format ascii;
 class volScalarField;
 location "800";
 object T;
}

dimensions [ 0 0 0 1 0 0 0 ];

internalField nonuniform List<scalar> 459
(
  307.587
  307.464
  307.484
  307.506
  307.524
  307.537
  307.538
  307.533
  307.527
  307.524
  307.526
  307.53
  307.536
  307.54
  307.537
  305.415
  305.31
  305.247
  305.223
  305.216
  305.229
  305.22
  305.219
  305.224
  305.234
  305.247
  305.261
  305.261
  305.254
  305.248
  305.259
  305.265
  305.304
  305.419
  307.757
  307.648
  307.7
  307.742
  307.769
  307.786
  307.786
  307.778
  307.767
  307.757
  307.749
  307.742
  307.733
  307.716
  307.684
  307.635
  307.154
  305.89
  305.785
  305.715
  305.695
  305.682
  305.671
  305.712
  305.683
  305.659
  305.652
  305.657
  305.671
  305.71
  305.751
  305.803
  305.887
  305.862
  305.862
  306.097
  307.971
  307.867
  307.937
  307.981
  307.998
  307.999
  307.984
  307.975
  307.967
  307.957
  307.948
  307.937
  307.92
  307.889
  307.833
  307.754
  307.664
  306.554
  306.572
  306.559
  306.542
  306.521
  306.437
  306.14
  306.19
  306.25
  306.314
  306.388
  306.474
  306.576
  306.718
  306.918
  307.17
  307.108
  307.013
  306.988
  309.016
  308.756
  308.647
  308.536
  308.439
  308.266
  308.168
  308.155
  308.155
  308.155
  308.154
  308.15
  308.139
  308.108
  308.045
  307.936
  307.772
  307.592
  307.481
  307.674
  307.827
  307.954
  308.052
  308.14
  308.215
  308.24
  308.262
  308.283
  308.302
  308.318
  308.331
  308.336
  308.326
  308.279
  308.309
  308.33
  308.339
  313.096
  311.384
  310.361
  309.629
  309.102
  308.733
  308.431
  308.33
  308.337
  308.353
  308.368
  308.383
  308.397
  308.401
  308.387
  308.35
  308.295
  308.24
  308.212
  308.246
  308.305
  308.365
  308.416
  308.455
  308.487
  308.513
  308.539
  308.566
  308.594
  308.624
  308.656
  308.689
  308.723
  308.758
  308.812
  308.87
  308.936
  309.004
  309.052
  309.111
  313.445
  312.932
  311.708
  310.584
  309.699
  309.087
  308.689
  308.505
  308.519
  308.561
  308.597
  308.631
  308.666
  308.695
  308.709
  308.701
  308.676
  308.645
  308.628
  308.632
  308.65
  308.674
  308.699
  308.721
  308.742
  308.763
  308.784
  308.807
  308.832
  308.859
  308.889
  308.923
  308.959
  308.997
  309.036
  309.073
  309.11
  309.146
  309.18
  309.23
  313.493
  313.307
  312.402
  311.203
  310.071
  309.286
  308.841
  308.689
  308.724
  308.812
  308.879
  308.935
  308.988
  309.036
  309.07
  309.082
  309.073
  309.053
  309.034
  309.023
  309.021
  309.024
  309.03
  309.038
  309.046
  309.055
  309.065
  309.076
  309.09
  309.106
  309.126
  309.148
  309.174
  309.2
  309.226
  309.25
  309.272
  309.292
  309.306
  309.322
  313.506
  313.422
  312.707
  311.471
  310.082
  309.306
  308.934
  308.892
  309.02
  309.194
  309.317
  309.396
  309.455
  309.503
  309.537
  309.553
  309.549
  309.532
  309.509
  309.486
  309.467
  309.452
  309.44
  309.43
  309.421
  309.413
  309.406
  309.4
  309.396
  309.396
  309.398
  309.403
  309.412
  309.424
  309.436
  309.448
  309.457
  309.455
  309.433
  309.406
  313.523
  313.531
  313.554
  311.242
  309.983
  309.366
  309.168
  309.32
  309.625
  309.888
  310.054
  310.144
  310.189
  310.207
  310.205
  310.189
  310.164
  310.131
  310.092
  310.052
  310.011
  309.974
  309.938
  309.905
  309.874
  309.843
  309.813
  309.785
  309.759
  309.736
  309.716
  309.699
  309.685
  309.675
  309.666
  309.656
  309.639
  309.605
  309.54
  309.468
  317.156
  311.667
  310.245
  309.825
  309.947
  310.345
  310.68
  310.899
  311.028
  311.09
  311.106
  311.089
  311.046
  310.987
  310.923
  310.854
  310.782
  310.71
  310.638
  310.57
  310.505
  310.443
  310.382
  310.324
  310.267
  310.213
  310.161
  310.111
  310.064
  310.021
  309.98
  309.942
  309.904
  309.863
  309.812
  309.738
  309.611
  309.433
  316.097
  313.199
  312.325
  311.989
  312.032
  312.102
  312.151
  312.169
  312.155
  312.112
  312.046
  311.964
  311.876
  311.78
  311.678
  311.574
  311.469
  311.365
  311.264
  311.164
  311.067
  310.973
  310.883
  310.795
  310.711
  310.63
  310.552
  310.476
  310.402
  310.331
  310.262
  310.195
  310.127
  310.054
  309.972
  309.867
  309.722
  309.521
  314.1
  314.136
  314.914
  314.722
  314.426
  314.221
  314.067
  313.928
  313.795
  313.663
  313.529
  313.388
  313.241
  313.088
  312.926
  312.763
  312.602
  312.446
  312.296
  312.151
  312.011
  311.876
  311.745
  311.618
  311.495
  311.374
  311.256
  311.141
  311.029
  310.919
  310.811
  310.705
  310.6
  310.494
  310.387
  310.276
  310.154
  310.008
  309.808
  309.529
)
;

boundaryField
{
  floor
  {
    type wallHeatTransfer;
    Tinf uniform 305.2;
    alphaWall uniform 0.24;
    value nonuniform List<scalar> 29
(
  307.195
  305.359
  305.283
  305.235
  305.217
  305.211
  305.221
  305.214
  305.213
  305.217
  305.224
  305.234
  305.245
  305.245
  305.24
  305.236
  305.244
  305.248
  305.28
  305.361
  305.361
  305.932
  306.741
  307.976
  307.195
  305.359
  305.756
  306.355
  307.302
)
;
  }
  ceiling
  {
    type wallHeatTransfer;
    Tinf uniform 303.2;
    alphaWall uniform 0.24;
    value nonuniform List<scalar> 43
(
  312.93
  313.232
  314.526
  314.32
  313.999
  313.761
  313.573
  313.4
  313.235
  313.075
  312.919
  312.766
  312.616
  312.47
  312.323
  312.176
  312.03
  311.886
  311.746
  311.609
  311.476
  311.348
  311.223
  311.102
  310.983
  310.868
  310.756
  310.645
  310.538
  310.432
  310.328
  310.226
  310.124
  310.022
  309.919
  309.811
  309.693
  309.552
  309.345
  309.037
  313.23
  313.293
  315.835
)
;
  }
  sWall
  {
    type wallHeatTransfer;
    Tinf uniform 315.2;
    alphaWall uniform 0.36;
    value uniform 314.268;
  }
  nWall
  {
    type wallHeatTransfer;
    Tinf uniform 307.2;
    alphaWall uniform 0.36;
    value nonuniform List<scalar> 6
(
  308.869
  309.014
  309.123
  309.191
  309.292
  309.267
)
;
  }
  sideWalls
  {
    type empty;
  }
  glass1
  {
    type wallHeatTransfer;
    Tinf uniform 315.2;
    alphaWall uniform 4.3;
    value nonuniform List<scalar> 9
(
  313.294
  312.755
  312.574
  312.705
  314.128
  314.235
  314.203
  314.154
  314.1
)
;
  }
  glass2
  {
    type wallHeatTransfer;
    Tinf uniform 307.2;
    alphaWall uniform 4.3;
    value nonuniform List<scalar> 2
(
  308.258
  308.277
)
;
  }
  sun
  {
    type wallHeatTransfer;
    Tinf uniform 305.2;
    alphaWall uniform 0.24;
    value nonuniform List<scalar> 14
(
  307.25
  307.156
  307.163
  307.181
  307.197
  307.207
  307.204
  307.194
  307.185
  307.18
  307.181
  307.186
  307.193
  307.198
)
;
  }
  heatsource1
  {
    type fixedGradient;
    gradient uniform 0;
  }
  heatsource2
  {
    type fixedGradient;
    gradient uniform 0;
  }
  Table_master
  {
    type zeroGradient;
  }
  Table_slave
  {
    type zeroGradient;
  }
  inlet
  {
    type fixedValue;
    value uniform 290.15;
  }
  outlet
  {
    type zeroGradient;
  }
} 	// ************************************************************************* //

