/*--------------------------------*- C++ -*----------------------------------*\
  =========                 |
  \\      /  F ield         | OpenFOAM: The Open Source CFD Toolbox
   \\    /   O peration     | Website:  https://openfoam.org
    \\  /    A nd           | Version:  6
     \\/     M anipulation  |
\*---------------------------------------------------------------------------*/
FoamFile
{
    version     2.0;
    format      ascii;
    class       surfaceScalarField;
    location    "1400";
    object      phi;
}
// * * * * * * * * * * * * * * * * * * * * * * * * * * * * * * * * * * * * * //

dimensions      [1 0 -1 0 0 0 0];

internalField   nonuniform List<scalar> 
852
(
-9.95552e-05
0.000136106
0.00634122
-0.00644079
0.00990068
-0.00355947
0.0115876
-0.00168689
0.0124535
-0.00086596
0.0128546
-0.000401122
0.0128726
-1.80479e-05
0.0125602
0.000312416
0.0119511
0.000609066
0.0110675
0.000883645
0.00991328
0.00115418
0.00846433
0.00144895
0.0066325
0.00183182
0.00412752
0.00250498
0.00412724
-0.000431632
0.000434804
-0.000368127
-6.34765e-05
-0.000236663
-0.000131451
-0.000217558
-1.91189e-05
-0.000265844
4.82749e-05
-0.000325762
5.99353e-05
-0.00038749
6.17607e-05
-0.000413798
2.63437e-05
-0.000381474
-3.22854e-05
-0.000300013
-8.14212e-05
-0.000188176
-0.000111797
-1.80202e-05
-0.000170113
0.000282688
-0.00030066
0.00054857
-0.000265843
0.000704308
-0.000155701
0.000795817
-9.1478e-05
0.000859493
-6.36466e-05
0.000740295
0.000119228
0.000744057
0.00787161
-0.00763861
0.00896937
-0.00753856
0.00991198
-0.00450211
0.0106286
-0.00240355
0.0110661
-0.00130344
0.0112386
-0.000573693
0.0111536
6.69471e-05
0.0108013
0.000664732
0.0101933
0.00121703
0.00934079
0.00173611
0.00825847
0.00223647
0.00697131
0.00273608
0.00553848
0.00326463
0.00419317
0.00385027
0.00384919
0.00447122
-7.75677e-06
0.00385752
-6.94722e-06
0.000924773
-0.000483246
0.000932192
-7.08409e-05
0.000691985
0.000108809
0.000573005
9.99116e-05
0.000571069
5.02696e-05
0.000549884
8.11872e-05
0.000467442
0.000144274
0.000376707
0.000117148
0.000291147
5.33371e-05
0.00022789
-1.8108e-05
0.000202615
-8.647e-05
0.000207576
-0.000175021
0.00024301
-0.00033604
0.000310563
-0.000333362
0.000298125
-0.000143235
0.000329195
-0.000122532
0.000451932
-0.000186359
0.000415371
0.000155819
0.00116852
0.00512853
-0.0126107
0.00628476
-0.00869481
0.00657951
-0.00479689
0.00695031
-0.00277437
0.00726505
-0.00161821
0.0074367
-0.000745366
0.00746856
3.50585e-05
0.00733829
0.000794971
0.0070105
0.00154477
0.00647019
0.00227637
0.00572833
0.00297828
0.00482513
0.00363923
0.00383958
0.00425013
0.00290141
0.0047884
0.00211693
0.00525571
0.00141175
0.00456325
0.00140691
-0.000134115
-0.00034059
-0.000130248
-7.46453e-05
-3.57161e-05
1.4329e-05
7.37605e-05
-9.51161e-06
0.000218463
-9.43747e-05
0.000548297
-0.000248587
0.000692796
0.000810172
0.000863735
0.000845852
0.000759607
0.00058481
0.00024899
-8.4205e-05
-0.000227271
-0.000330342
-1.94454e-05
-0.000686549
0.000169882
-0.000823566
0.000292868
0.000359144
0.0027244
-0.0151195
0.00335495
-0.00932538
0.00354634
-0.00498831
0.0036614
-0.00288946
0.00379534
-0.00175216
0.00391666
-0.000866694
0.00400651
-5.47983e-05
0.0039997
0.000801765
0.00384726
0.00169718
0.00353009
0.00259348
0.00305741
0.00345091
0.00245963
0.00423694
0.00177106
0.00493863
0.00106566
0.00549376
0.000497211
0.0058242
0.000165746
0.00489548
-7.49641e-05
0.00165052
-0.000518832
0.000453034
-0.00074548
-0.00011388
-0.000775217
-4.4858e-05
-0.000751426
-9.413e-06
-0.000737885
-2.30082e-05
-0.00075293
-7.92852e-05
-0.00086894
-0.000132526
-0.000742767
-0.000126271
-0.000588305
-0.000154559
-0.000407156
-0.000181244
-0.00020561
-0.000201639
7.96625e-06
-0.00021367
0.000216368
-0.000208495
0.000401405
-0.000185129
0.000545169
-0.000143858
0.000613439
-6.83665e-05
0.000563832
3.02138e-05
0.000532484
0.000201267
0.000391637
0.000433737
0.000763221
0.00107037
-0.0159148
0.00131696
-0.009572
0.00137211
-0.00504349
0.0010368
-0.00255416
0.000961217
-0.00167659
0.00101129
-0.000916755
0.00108012
-0.000123611
0.00108622
0.000795666
0.000997135
0.00178623
0.000804923
0.00278564
0.00051286
0.0037429
0.000134711
0.00461501
-0.000292378
0.00536566
-0.000671579
0.005873
-0.000801047
0.00595396
-0.000629317
0.0047248
-0.000516769
0.00153987
-0.000636619
0.000573064
-0.000865585
0.000115134
-0.00096183
5.14283e-05
-0.000990108
1.8907e-05
-0.000987063
-2.6009e-05
-0.000976347
-8.99538e-05
-0.000955429
-0.000153394
-0.000877917
-0.00020373
-0.000777013
-0.000255407
-0.000659959
-0.000298241
-0.000533233
-0.000328307
-0.000404338
-0.000342506
-0.000275525
-0.000337249
-0.000145565
-0.000315032
-4.72386e-06
-0.000284643
0.000179128
-0.000252167
0.000441663
-0.00023228
0.000842323
-0.000199365
0.00133721
-6.11384e-05
0.00202561
7.48265e-05
0.00153786
0.000487548
-0.000155144
0.00169282
-0.000118158
-1.41427e-05
-0.0155658
-6.04997e-05
-0.00952566
-0.000439457
-0.00466456
-0.00116849
-0.00182514
-0.00140002
-0.00144506
-0.00146593
-0.000850848
-0.00149869
-9.08388e-05
-0.00152542
0.000822385
-0.00156502
0.00182581
-0.0016371
0.00285768
-0.00174693
0.00385268
-0.00188032
0.00474838
-0.00198058
0.005466
-0.00195535
0.00584805
-0.00163988
0.00563913
-0.00106464
0.00415081
-0.000856925
0.00133311
-0.000813737
0.000529996
-0.000921986
0.000223425
-0.000981226
0.000110706
-0.00100226
3.9976e-05
-0.00100071
-2.7509e-05
-0.000990435
-0.000100187
-0.000972489
-0.000171291
-0.000941056
-0.000235112
-0.000904072
-0.000292336
-0.00086604
-0.000336218
-0.000831817
-0.000362473
-0.000805066
-0.0003692
-0.000784842
-0.000357416
-0.000764996
-0.000334824
-0.000734684
-0.000314903
-0.00066912
-0.000317683
-0.000529812
-0.000371544
-0.000222316
-0.000506824
0.000448826
-0.00073225
0.00140202
-0.000878354
0.00205829
-0.000168711
0.00238793
0.0013632
0.00231086
-0.000919379
-0.0142522
-0.0016614
-0.00878366
-0.0024467
-0.00387929
-0.00339388
-0.000877978
-0.00369312
-0.00114583
-0.00379142
-0.000752552
-0.00380907
-7.31831e-05
-0.00377845
0.000791778
-0.00371789
0.00176525
-0.00363517
0.00277497
-0.00352913
0.0037467
-0.00338117
0.00460057
-0.0031402
0.00522534
-0.00273075
0.00543921
-0.00205464
0.00496405
-0.00123523
0.00333279
-0.000972101
0.00107047
-0.000883372
0.000441349
-0.000877458
0.000217544
-0.000877514
0.000110792
-0.000873149
3.56444e-05
-0.000868189
-3.24323e-05
-0.000868928
-9.94074e-05
-0.000877809
-0.000162366
-0.000895681
-0.000217193
-0.000928443
-0.000259524
-0.000982682
-0.000281925
-0.00106541
-0.000279694
-0.00118119
-0.000253364
-0.00132977
-0.000208774
-0.00150289
-0.000161653
-0.0016878
-0.000129945
-0.00186725
-0.000138186
-0.00202207
-0.000216686
-0.00213288
-0.000395971
-0.00214635
-0.000718749
-0.00179022
-0.00123445
-0.000219419
-0.00173947
0.00136288
-0.000219098
0.00372044
-0.00354155
-0.0102596
-0.00554571
-0.0067795
-0.00570122
-0.00372379
-0.00617197
-0.00040725
-0.00596049
-0.00135731
-0.00577227
-0.000940755
-0.00562451
-0.000220919
-0.00547605
0.000643375
-0.00528567
0.00157495
-0.00502786
0.00251728
-0.00469131
0.00341035
-0.00426131
0.00417092
-0.00370774
0.00467236
-0.00298869
0.00472107
-0.00207906
0.00405571
-0.00118426
0.00243935
-0.000894612
0.000781115
-0.000758916
0.000305707
-0.000679666
0.000138315
-0.000626491
5.76364e-05
-0.000592358
1.53622e-06
-0.000577781
-4.69797e-05
-0.000584687
-9.24682e-05
-0.000612711
-0.000134305
-0.000663041
-0.000166822
-0.000741868
-0.000180654
-0.000860662
-0.000163083
-0.00103621
-0.000104096
-0.00128429
-5.2277e-06
-0.00162139
0.000128376
-0.00206202
0.000279036
-0.00260211
0.00041019
-0.00321868
0.000478437
-0.00387338
0.000438055
-0.00451912
0.000249811
-0.00515497
-8.2866e-05
-0.00591457
-0.000474816
-0.00679354
-0.000860466
-0.00564858
-0.00136404
-0.00170271
-0.00976721
-0.0165539
-0.0114426
-0.00883505
-0.0082929
-0.00355694
-0.00731384
-0.00233634
-0.00690105
-0.0013535
-0.00667607
-0.000445836
-0.00645525
0.000422652
-0.00614946
0.0012693
-0.00572384
0.00209186
-0.00516781
0.00285463
-0.00448221
0.0034858
-0.00366965
0.00386053
-0.00273631
0.00378875
-0.00172442
0.00304505
-0.000888959
0.00160487
-0.000582008
0.000474337
-0.000408988
0.000132713
-0.000285062
1.43973e-05
-0.000197488
-2.99263e-05
-0.00014607
-4.98646e-05
-0.000126915
-6.6114e-05
-0.000134416
-8.49429e-05
-0.000164499
-0.000104194
-0.000213319
-0.000117972
-0.00027673
-0.000117209
-0.000350057
-8.97171e-05
-0.000431361
-2.27494e-05
-0.000524007
8.74649e-05
-0.000637283
0.000241702
-0.000775742
0.000417547
-0.00094111
0.000575611
-0.00113567
0.000673049
-0.00137355
0.000675985
-0.00169367
0.00056999
-0.00215155
0.000375062
-0.00277034
0.000144035
-0.00341594
-0.000214812
-0.00308808
-0.00169185
-0.00455314
-0.00943177
0.000820054
-0.00738373
-0.00560495
-0.00700241
-0.00271763
-0.00695267
-0.00140318
-0.0068779
-0.000520526
-0.00667238
0.00021724
-0.00630166
0.000898724
-0.00574004
0.00153044
-0.00499148
0.00210638
-0.00408393
0.00257871
-0.00306067
0.00283792
-0.00198249
0.00271141
-0.000922643
0.0019861
-0.000194793
0.000877536
8.49813e-05
0.00019464
0.000238941
-2.12469e-05
0.000336533
-8.31956e-05
0.00039442
-8.78097e-05
0.000424923
-8.0359e-05
0.000433995
-7.51736e-05
0.000423659
-7.4591e-05
0.000395529
-7.60463e-05
0.000352907
-7.53287e-05
0.000302657
-6.69355e-05
0.000256469
-4.3503e-05
0.000223128
1.06219e-05
0.000213714
9.69132e-05
0.000235648
0.000219808
0.000291748
0.000361492
0.000377429
0.000489977
0.000482119
0.000568409
0.00059471
0.000563446
0.00071698
0.000447773
0.000894546
0.000197551
0.00119525
-0.000156613
0.00165299
-0.000672499
0.00167932
-0.00171814
-0.00282012
-0.00136225
0.00217212
-0.00439818
-0.00256902
-0.00575164
-0.00136415
-0.00640045
-0.000754323
-0.00660916
-0.000311742
-0.00646962
7.77847e-05
-0.00604174
0.000470955
-0.00534304
0.000831902
-0.00439812
0.00116169
-0.00326312
0.00144403
-0.00202341
0.00159864
-0.000727748
0.00141627
0.000387422
0.000871505
0.000951411
0.000313716
0.00110096
4.51263e-05
0.00112536
-4.56483e-05
0.00110793
-6.57662e-05
0.00108545
-6.53358e-05
0.00106305
-5.79602e-05
0.00103812
-5.02395e-05
0.00100712
-4.35827e-05
0.000968408
-3.73281e-05
0.000923413
-3.03235e-05
0.000877564
-2.10734e-05
0.00084081
-6.73414e-06
0.00083235
1.90996e-05
0.000863976
6.53075e-05
0.000956231
0.000127579
0.00111717
0.00020058
0.00133837
0.000268813
0.0015971
0.000309725
0.001862
0.000298587
0.0020979
0.000211925
0.00226291
3.25825e-05
0.00230794
-0.000201594
0.00211977
-0.00048428
0.00134051
-0.00093884
-0.00141599
0.00435862
-0.00280129
-0.000644549
-0.00324182
-0.00463482
-0.0054178
-0.00575763
-0.00570735
-0.00526329
-0.00445761
-0.00332138
-0.00190191
-0.000326722
0.00106792
0.00191849
0.00221125
0.00223535
0.00216893
0.00208279
0.00199748
0.00191988
0.00185029
0.00178761
0.00173146
0.00168261
0.00164334
0.00161877
0.00162048
0.00166892
0.00178019
0.00196503
0.00221861
0.00251351
0.00279754
0.002995
0.00301293
0.00279642
0.00229689
0.00134317
)
;

boundaryField
{
    floor
    {
        type            calculated;
        value           nonuniform List<scalar> 
29
(
0
0
0
0
0
0
0
0
0
0
0
0
0
0
0
0
0
0
0
0
-3.73055e-06
-9.06334e-06
-1.41565e-05
-1.24512e-05
2.75249e-07
-3.13469e-06
-6.67259e-06
-8.47821e-06
-8.92531e-06
)
;
    }
    ceiling
    {
        type            calculated;
        value           nonuniform List<scalar> 
43
(
4.43087e-05
3.09999e-05
1.53669e-05
2.82165e-05
2.88389e-05
2.86492e-05
2.80983e-05
2.75308e-05
2.69342e-05
2.63035e-05
2.55795e-05
2.47294e-05
2.36965e-05
2.19214e-05
2.10883e-05
2.09992e-05
2.10274e-05
2.07643e-05
2.03501e-05
1.99586e-05
1.963e-05
1.93488e-05
1.90862e-05
1.8817e-05
1.85239e-05
1.81981e-05
1.78382e-05
1.74013e-05
1.68741e-05
1.63107e-05
1.57557e-05
1.52539e-05
1.48478e-05
1.45792e-05
1.45003e-05
1.46869e-05
1.49482e-05
1.52862e-05
1.49126e-05
1.60364e-05
9.33348e-06
7.16048e-06
1.01874e-05
)
;
    }
    sWall
    {
        type            calculated;
        value           uniform -0.000158488;
    }
    nWall
    {
        type            calculated;
        value           nonuniform List<scalar> 6(-3.71461e-05 -4.10667e-05 -4.66768e-05 -5.36578e-05 -6.35761e-05 -8.88071e-05);
    }
    sideWalls
    {
        type            empty;
        value           nonuniform 0();
    }
    glass1
    {
        type            calculated;
        value           nonuniform List<scalar> 9(-3.65622e-05 -9.69016e-05 -0.000156465 -0.000215611 -0.000275036 -0.000334883 -0.000394171 -0.000451142 -0.000501675);
    }
    glass2
    {
        type            calculated;
        value           nonuniform List<scalar> 2(-0.000225406 -0.000237601);
    }
    sun
    {
        type            calculated;
        value           uniform 0;
    }
    heatsource1
    {
        type            calculated;
        value           nonuniform List<scalar> 3(2.03176e-07 2.03352e-07 2.03894e-07);
    }
    heatsource2
    {
        type            calculated;
        value           nonuniform List<scalar> 4(5.00055e-08 5.09155e-08 0 0);
    }
    Table_master
    {
        type            calculated;
        value           nonuniform List<scalar> 9(-1.53116e-07 -1.53157e-07 -1.53187e-07 -1.53224e-07 -1.53265e-07 -1.5333e-07 -1.53424e-07 -1.53479e-07 -1.53402e-07);
    }
    Table_slave
    {
        type            calculated;
        value           nonuniform List<scalar> 9(1.5274e-07 1.52781e-07 1.52825e-07 1.52878e-07 1.52936e-07 1.5293e-07 1.52866e-07 1.52819e-07 1.52798e-07);
    }
    inlet
    {
        type            calculated;
        value           uniform -0.000223314;
    }
    outlet
    {
        type            calculated;
        value           nonuniform List<scalar> 2(-0.00424428 0.00712902);
    }
}


// ************************************************************************* //
