/*--------------------------------*- C++ -*----------------------------------*\
  =========                 |
  \\      /  F ield         | OpenFOAM: The Open Source CFD Toolbox
   \\    /   O peration     | Website:  https://openfoam.org
    \\  /    A nd           | Version:  6
     \\/     M anipulation  |
\*---------------------------------------------------------------------------*/
FoamFile
{
    version     2.0;
    format      ascii;
    class       volScalarField;
    location    "300";
    object      alphat;
}
// * * * * * * * * * * * * * * * * * * * * * * * * * * * * * * * * * * * * * //

dimensions      [1 -1 -1 0 0 0 0];

internalField   nonuniform List<scalar> 
459
(
0.00155758
0.00183106
0.00187741
0.00133218
0.00116097
0.00103541
0.000912297
0.000813347
0.000715043
0.000663564
0.000639156
0.000629435
0.000627536
0.000629046
0.000626402
0.000335056
0.000368654
0.000382914
0.000311758
0.000241328
0.000212053
0.000202203
0.000194493
0.000199649
0.000211887
0.000217356
0.000238721
0.000272474
0.000303793
0.000339218
0.000383559
0.000417446
0.000421498
0.000378196
0.00170047
0.00279119
0.00339177
0.0038346
0.00373296
0.00364671
0.00339628
0.00247342
0.00231404
0.00261743
0.00257787
0.00240355
0.00219665
0.00188588
0.00138472
0.000707204
0.000509899
0.000485448
0.000950192
0.00111934
0.00116456
0.00105255
0.000745582
0.000379206
0.000266224
0.00025562
0.000291433
0.000364255
0.000540988
0.000818352
0.001099
0.00133843
0.00162331
0.00155036
0.00149296
0.000491747
0.00345448
0.00386019
0.00388566
0.00389988
0.00392857
0.00399249
0.00407146
0.00373659
0.00296662
0.00327093
0.00347781
0.00325436
0.00294277
0.00252765
0.00197351
0.00136176
0.000801159
0.000808606
0.00220601
0.00207738
0.001871
0.00150091
0.00103697
0.000396271
0.000296646
0.000272838
0.000325588
0.000373453
0.000424563
0.00048339
0.000555458
0.000652466
0.00171702
0.00151933
0.00116909
0.000621617
0.003985
0.004671
0.00447872
0.00419277
0.00406306
0.00411825
0.00431106
0.00434894
0.00383154
0.00389019
0.00437267
0.00424182
0.00392445
0.00347381
0.00283697
0.00207136
0.0013846
0.00102035
0.00265911
0.00261622
0.00238298
0.00193619
0.00148381
0.0010471
0.000697258
0.000700407
0.00070475
0.000709827
0.000717541
0.000730725
0.000752846
0.000788193
0.000853624
0.00260095
0.00293299
0.00278757
0.000972499
0.00428781
0.00540907
0.00508475
0.00443998
0.00414106
0.00416875
0.00445227
0.00470056
0.00443384
0.00457249
0.00529536
0.00544479
0.00540879
0.00533995
0.00520824
0.00499405
0.00473075
0.00451894
0.00461726
0.00447142
0.00425263
0.00405464
0.00387963
0.00372939
0.00360352
0.00353227
0.00344772
0.00335331
0.00326908
0.00322252
0.00323423
0.00330872
0.00344142
0.00363913
0.00373201
0.0036442
0.00308969
0.00138309
0.00123633
0.00108382
0.00456883
0.00569129
0.00538955
0.00448781
0.00409865
0.00416183
0.0045687
0.00490625
0.00475612
0.00494175
0.00580314
0.00613049
0.00624136
0.00634128
0.00641686
0.00643498
0.00637189
0.00623016
0.00604043
0.00581283
0.0055965
0.0054195
0.00527984
0.0051636
0.00504768
0.0049094
0.00472877
0.00450388
0.00426093
0.00405159
0.00392141
0.00387724
0.00389004
0.00391468
0.00391905
0.0038671
0.00361486
0.00300938
0.00230979
0.00115272
0.00488826
0.00548277
0.00456411
0.0043588
0.00405511
0.00420493
0.0046578
0.00499581
0.00490288
0.00513322
0.00599626
0.00639286
0.00656927
0.00673275
0.00688535
0.00699009
0.00700992
0.00693064
0.00677168
0.00657146
0.00637183
0.00620238
0.00607362
0.00598143
0.00590817
0.00582687
0.00570077
0.00548939
0.00517837
0.0048142
0.00448231
0.00423007
0.0040502
0.00390051
0.00372876
0.00347838
0.00308785
0.00257632
0.00202055
0.00113165
0.00531637
0.0055742
0.00434372
0.0038875
0.00413745
0.00437627
0.00477396
0.00504389
0.0049792
0.00523227
0.00598714
0.00638969
0.00657774
0.00675032
0.00692165
0.00706264
0.00713862
0.00712798
0.00703568
0.00688814
0.00672068
0.00656623
0.00644814
0.00637994
0.00636598
0.00640113
0.00646032
0.00648339
0.00638342
0.00611633
0.00574611
0.00532424
0.00488357
0.00443529
0.00398543
0.00355793
0.00312768
0.00274681
0.00241516
0.00148141
0.00602148
0.00712605
0.00973049
0.00389409
0.00413782
0.00482986
0.00503916
0.00520561
0.00513941
0.00523998
0.00574415
0.00615387
0.00634349
0.00649235
0.00662779
0.00674792
0.00683569
0.00687124
0.00684635
0.00676896
0.00665883
0.00654053
0.00643763
0.00637112
0.00636101
0.00642925
0.00659566
0.00685835
0.00715052
0.0073198
0.00727421
0.00707342
0.00683775
0.00668544
0.00660122
0.00623726
0.00537338
0.00449533
0.00450639
0.00175083
0.0169996
0.00899249
0.00343193
0.00536219
0.00558774
0.00560873
0.00534037
0.0052697
0.00551813
0.00579687
0.00595483
0.00605525
0.00613419
0.00620687
0.00627302
0.00632296
0.00634601
0.00633715
0.00629934
0.00624226
0.00617971
0.00612778
0.00610491
0.00613391
0.00624336
0.00646135
0.0067876
0.00713212
0.00740133
0.00752658
0.00749945
0.00739172
0.00725595
0.00702971
0.00645541
0.00552683
0.00485476
0.00175191
0.00699163
0.00493336
0.00521237
0.00552814
0.00554522
0.00524586
0.00489158
0.00474205
0.00480526
0.00495568
0.00511871
0.00527878
0.0054254
0.00555193
0.00565492
0.00573277
0.00578521
0.00581379
0.00582232
0.00581678
0.0058046
0.0057939
0.00579303
0.00581075
0.00585651
0.00593949
0.00606132
0.00617109
0.00626117
0.00632204
0.00633666
0.00629958
0.00621292
0.00594037
0.00543492
0.00461854
0.00441374
0.0016389
0.00211588
0.00310476
0.00496933
0.00296224
0.00201121
0.00202468
0.00191486
0.00179598
0.00168709
0.00159867
0.00152679
0.00146962
0.00142815
0.00139944
0.00138086
0.00136983
0.00136389
0.00136079
0.00135871
0.00135636
0.00135297
0.00134836
0.0013427
0.00133646
0.00133025
0.00132467
0.00132023
0.00131726
0.0013159
0.00132205
0.0013322
0.00134129
0.00134465
0.00133745
0.00131421
0.0012834
0.00124858
0.00120434
0.00123374
0.00117049
)
;

boundaryField
{
    floor
    {
        type            compressible::alphatWallFunction;
        Prt             0.85;
        value           nonuniform List<scalar> 
29
(
8.83525e-05
4.3369e-05
4.87526e-05
5.1017e-05
3.95919e-05
2.79425e-05
2.29701e-05
2.12763e-05
1.99417e-05
2.08333e-05
2.29441e-05
2.38774e-05
2.75019e-05
3.31431e-05
3.82943e-05
4.40375e-05
5.11192e-05
5.64622e-05
5.70984e-05
5.02756e-05
5.02749e-05
6.79822e-05
8.76208e-05
0.000138461
8.83514e-05
4.33684e-05
6.70036e-05
0.000115039
0.000145204
)
;
    }
    ceiling
    {
        type            compressible::alphatWallFunction;
        Prt             0.85;
        value           nonuniform List<scalar> 
43
(
0.000292514
0.000417803
0.000643691
0.000399943
0.000278825
0.000280594
0.000266256
0.000250634
0.000236224
0.000224447
0.000214822
0.00020713
0.000201528
0.000197638
0.000195115
0.000193615
0.000192804
0.000192381
0.000192097
0.000191774
0.000191313
0.000190683
0.000189911
0.00018906
0.000188212
0.000187449
0.000186842
0.000186434
0.000186247
0.000187085
0.000188467
0.000189704
0.00019016
0.000189178
0.000186008
0.000181796
0.000177021
0.000170934
0.00017498
0.000166261
0.000767265
0.000894689
0.000879256
)
;
    }
    sWall
    {
        type            compressible::alphatWallFunction;
        Prt             0.85;
        value           uniform 0.000291523;
    }
    nWall
    {
        type            compressible::alphatWallFunction;
        Prt             0.85;
        value           nonuniform List<scalar> 6(0.000153913 0.000163493 0.000160571 0.000244426 0.000229432 0.000165952);
    }
    sideWalls
    {
        type            empty;
    }
    glass1
    {
        type            compressible::alphatWallFunction;
        Prt             0.85;
        value           nonuniform List<scalar> 9(0.0002149 0.000233868 0.000455121 0.000519457 0.000555768 0.00058924 0.000627051 0.000677374 0.00075949);
    }
    glass2
    {
        type            compressible::alphatWallFunction;
        Prt             0.85;
        value           nonuniform List<scalar> 2(0.000207382 0.000243201);
    }
    sun
    {
        type            compressible::alphatWallFunction;
        Prt             0.85;
        value           nonuniform List<scalar> 
14
(
0.000218877
0.00025514
0.000261212
0.000188371
0.000164846
0.00014734
0.000129932
0.000115744
0.000101448
9.38686e-05
9.02498e-05
8.88037e-05
8.85207e-05
8.87456e-05
)
;
    }
    heatsource1
    {
        type            compressible::alphatWallFunction;
        Prt             0.85;
        value           nonuniform List<scalar> 3(0.00019533 0.00017529 0.000154173);
    }
    heatsource2
    {
        type            compressible::alphatWallFunction;
        Prt             0.85;
        value           nonuniform List<scalar> 4(0.000100376 7.08593e-05 7.08584e-05 0.000114061);
    }
    Table_master
    {
        type            compressible::alphatWallFunction;
        Prt             0.85;
        value           nonuniform List<scalar> 9(5.32335e-05 3.72292e-05 3.32928e-05 4.19334e-05 4.96131e-05 5.76723e-05 6.67956e-05 7.77843e-05 9.23019e-05);
    }
    Table_slave
    {
        type            compressible::alphatWallFunction;
        Prt             0.85;
        value           nonuniform List<scalar> 9(9.89154e-05 9.93786e-05 0.000100017 0.000100762 0.000101893 0.000103823 0.000107051 0.000112185 0.000121618);
    }
    inlet
    {
        type            fixedValue;
        value           uniform 1.94e-05;
    }
    outlet
    {
        type            zeroGradient;
    }
}


// ************************************************************************* //
