/*--------------------------------*- C++ -*----------------------------------*\
  =========                 |
  \\      /  F ield         | OpenFOAM: The Open Source CFD Toolbox
   \\    /   O peration     | Website:  https://openfoam.org
    \\  /    A nd           | Version:  6
     \\/     M anipulation  |
\*---------------------------------------------------------------------------*/
FoamFile
{
    version     2.0;
    format      ascii;
    class       volScalarField;
    location    "500";
    object      alphat;
}
// * * * * * * * * * * * * * * * * * * * * * * * * * * * * * * * * * * * * * //

dimensions      [1 -1 -1 0 0 0 0];

internalField   nonuniform List<scalar> 
459
(
0.001242
0.00135723
0.00138178
0.00144782
0.00150879
0.00156562
0.001621
0.00167662
0.00171695
0.00173587
0.00172741
0.00168761
0.00161635
0.00152049
0.00141629
0.000546933
0.000672518
0.000753121
0.000743816
0.000715755
0.000680633
0.000638533
0.000597366
0.000560069
0.000526921
0.000497522
0.000471351
0.000448056
0.000427089
0.000407707
0.000388936
0.000369312
0.000355106
0.000323221
0.00169426
0.00412486
0.0039439
0.0045911
0.00522387
0.00585909
0.00642745
0.00684702
0.007229
0.00754301
0.00774379
0.00777707
0.00756095
0.00689549
0.00509482
0.00143922
0.000872479
0.000597248
0.00123607
0.00168868
0.00200343
0.00216243
0.00214935
0.00174842
0.00151569
0.00134752
0.00121753
0.00111356
0.00102856
0.000954448
0.000885095
0.000817794
0.000758191
0.000706048
0.000823975
0.00042316
0.00207068
0.00563553
0.00489082
0.00616465
0.00679873
0.007267
0.00762796
0.00790396
0.0082036
0.00851939
0.00881529
0.00903436
0.00911434
0.00897209
0.00838511
0.00651129
0.00140931
0.00120545
0.00170482
0.00215431
0.00254183
0.00279461
0.00270897
0.000913651
0.000808006
0.00072312
0.00065456
0.000598636
0.000552531
0.000514225
0.000482416
0.000456539
0.000491339
0.000567069
0.000922174
0.000489159
0.00243217
0.0072175
0.0048982
0.00653953
0.0071208
0.00731623
0.0074271
0.0075513
0.00777742
0.0080918
0.00846094
0.00881235
0.00908271
0.00921077
0.00910019
0.00848324
0.00640346
0.00170411
0.00211334
0.00270984
0.00326065
0.00367661
0.00391735
0.00365982
0.00102862
0.000937205
0.000871659
0.000821685
0.000779275
0.000740476
0.000703308
0.000664404
0.000619337
0.000581371
0.000593274
0.00104673
0.000540144
0.00280081
0.00925177
0.00538875
0.00627794
0.00706423
0.0071307
0.00705453
0.00709196
0.00728957
0.00760473
0.00801992
0.00843454
0.00876385
0.00893204
0.00890706
0.00863847
0.00794407
0.00653759
0.00604214
0.00585327
0.00576226
0.00569566
0.00561229
0.00539164
0.00456747
0.00417322
0.00394455
0.00376742
0.00357948
0.00330655
0.00293638
0.00248516
0.00198143
0.00146856
0.00108125
0.00107801
0.000720239
0.000667648
0.000809324
0.000907535
0.00319145
0.0114642
0.00743995
0.00621254
0.00679299
0.00706384
0.00690883
0.00695581
0.00710891
0.00739334
0.0078046
0.00825678
0.00862136
0.00878961
0.00872402
0.00846541
0.00809907
0.00769976
0.00745513
0.00726941
0.0070751
0.00687097
0.00665783
0.00640481
0.00603893
0.00571248
0.00542161
0.00514139
0.00485515
0.00454282
0.00414607
0.00364836
0.0030484
0.00237872
0.00178211
0.00132911
0.00100007
0.000850472
0.00121522
0.000945622
0.00354735
0.013014
0.0104543
0.008015
0.00755241
0.00750704
0.00728687
0.00712638
0.00715742
0.00742343
0.00787446
0.00837813
0.00876615
0.0089078
0.00877152
0.00844852
0.00812712
0.00795962
0.00791163
0.0078062
0.0075812
0.00726939
0.00690461
0.0065088
0.00610295
0.00573258
0.00539485
0.00507978
0.00478716
0.00452401
0.00428991
0.00395621
0.00348319
0.00290509
0.00234775
0.00184612
0.00147757
0.00135969
0.00138487
0.00106941
0.00361461
0.0115958
0.0102936
0.0094914
0.00884206
0.00806588
0.00741126
0.00711232
0.00721383
0.00764438
0.00825146
0.00883485
0.00919645
0.00922165
0.00893141
0.00849189
0.00816296
0.00807302
0.0080405
0.00777541
0.00732458
0.00677977
0.00621924
0.00570491
0.00526873
0.00490839
0.00460353
0.00434476
0.00413572
0.00398615
0.00390585
0.00386532
0.00360972
0.00323037
0.00289422
0.00271582
0.00280546
0.00322797
0.00399175
0.00167895
0.00351539
0.00417457
0.004645
0.00478095
0.00486743
0.00509885
0.00558749
0.00635776
0.00733095
0.00834057
0.00919879
0.00973262
0.00981276
0.00945244
0.00883682
0.00830961
0.00801349
0.00776932
0.00740234
0.00684083
0.00616658
0.00549615
0.00491398
0.00444952
0.00408864
0.00380064
0.00356041
0.00335452
0.00317507
0.00301407
0.00286272
0.00272137
0.00260792
0.00252378
0.00249218
0.00250574
0.00249782
0.00240545
0.00225296
0.00158234
0.00178352
0.00362948
0.00569554
0.00745068
0.00885014
0.00995416
0.0106861
0.0110118
0.0109589
0.010536
0.00977893
0.00882296
0.00793711
0.00733591
0.00687767
0.00634764
0.00571785
0.00505922
0.00445277
0.00395364
0.00356934
0.00327456
0.00304208
0.00285374
0.00270015
0.00257776
0.00248561
0.00242389
0.00239559
0.00239842
0.00241688
0.00244733
0.00248171
0.00249289
0.00243606
0.00229476
0.00208125
0.00131911
0.00235926
0.00596701
0.00886913
0.00993968
0.0105061
0.0107231
0.0105391
0.010002
0.00921677
0.00829926
0.00739079
0.0065839
0.0059156
0.00534474
0.00478695
0.00425687
0.0038066
0.0034542
0.00318777
0.00297916
0.00280452
0.00265231
0.0025209
0.00241596
0.00233745
0.00228523
0.00225827
0.00225419
0.00228024
0.0023331
0.00240892
0.0024997
0.00258734
0.00264834
0.00263147
0.00266577
0.00271895
0.00134538
0.00208806
0.00221358
0.00230231
0.00246364
0.0023764
0.00227115
0.00220475
0.00211694
0.00199256
0.00183693
0.00165987
0.00147386
0.0012922
0.00113257
0.00100949
0.00092215
0.000861512
0.000819098
0.000789265
0.000768605
0.000755074
0.000747389
0.000745147
0.000748663
0.00075806
0.000772633
0.000792674
0.000818594
0.000851041
0.000891042
0.000937392
0.000990188
0.00105006
0.0011176
0.0011924
0.00128064
0.00131166
0.00127939
0.00120222
0.00112129
)
;

boundaryField
{
    floor
    {
        type            compressible::alphatWallFunction;
        Prt             0.85;
        value           nonuniform List<scalar> 
29
(
0.00019971
7.63986e-05
9.5167e-05
0.000106983
0.000105627
0.000101525
9.63635e-05
9.01333e-05
8.39925e-05
7.83841e-05
7.33605e-05
6.8872e-05
6.48483e-05
6.12431e-05
5.79776e-05
5.49408e-05
5.1982e-05
4.88689e-05
4.66021e-05
4.14704e-05
4.14698e-05
5.73639e-05
6.759e-05
7.53702e-05
0.000199708
7.63977e-05
8.39755e-05
0.000170922
0.00023825
)
;
    }
    ceiling
    {
        type            compressible::alphatWallFunction;
        Prt             0.85;
        value           nonuniform List<scalar> 
43
(
0.00028847
0.000304689
0.000316099
0.000336845
0.000325761
0.000312292
0.00030376
0.000292426
0.000276276
0.000255909
0.000232502
0.000207612
0.000182959
0.000160969
0.00014377
0.000131418
0.000122762
0.000116664
0.000112353
0.000109356
0.000107389
0.000106269
0.000105943
0.000106455
0.000107824
0.000109943
0.000112849
0.000116595
0.000121263
0.000126989
0.000133587
0.000141056
0.000149469
0.000158894
0.000169256
0.000181385
0.000185626
0.000181215
0.000170612
0.000159411
0.00046847
0.000548655
0.000323231
)
;
    }
    sWall
    {
        type            compressible::alphatWallFunction;
        Prt             0.85;
        value           uniform 0.000287261;
    }
    nWall
    {
        type            compressible::alphatWallFunction;
        Prt             0.85;
        value           nonuniform List<scalar> 6(0.000129023 0.00013443 0.000151842 0.000186318 0.000189895 0.00015909);
    }
    sideWalls
    {
        type            empty;
    }
    glass1
    {
        type            compressible::alphatWallFunction;
        Prt             0.85;
        value           nonuniform List<scalar> 9(0.000171707 0.000231893 0.000280756 0.000326867 0.000373209 0.000421669 0.000465331 0.000473662 0.000461784);
    }
    glass2
    {
        type            compressible::alphatWallFunction;
        Prt             0.85;
        value           nonuniform List<scalar> 2(0.000233376 0.000220618);
    }
    sun
    {
        type            compressible::alphatWallFunction;
        Prt             0.85;
        value           nonuniform List<scalar> 
14
(
0.000175971
0.000191702
0.000195037
0.000203974
0.000212186
0.000219808
0.000227204
0.000234606
0.000239955
0.000242459
0.000241338
0.000236062
0.000226581
0.000213755
)
;
    }
    heatsource1
    {
        type            compressible::alphatWallFunction;
        Prt             0.85;
        value           nonuniform List<scalar> 3(9.45496e-05 0.000115239 0.000129324);
    }
    heatsource2
    {
        type            compressible::alphatWallFunction;
        Prt             0.85;
        value           nonuniform List<scalar> 4(0.000202928 0.000124319 0.000124318 0.000198879);
    }
    Table_master
    {
        type            compressible::alphatWallFunction;
        Prt             0.85;
        value           nonuniform List<scalar> 9(0.00013019 0.000115045 0.000102705 9.26098e-05 8.42799e-05 7.73404e-05 7.15198e-05 6.66451e-05 6.26495e-05);
    }
    Table_slave
    {
        type            compressible::alphatWallFunction;
        Prt             0.85;
        value           nonuniform List<scalar> 9(0.000146442 0.000133541 0.000124199 0.000117021 0.000110889 0.000105244 9.98025e-05 9.40693e-05 8.73763e-05);
    }
    inlet
    {
        type            fixedValue;
        value           uniform 1.94e-05;
    }
    outlet
    {
        type            zeroGradient;
    }
}


// ************************************************************************* //
