// -*- C++ -*-
// File generated by PyFoam - sorry for the ugliness

FoamFile
{
 version 2.0;
 format ascii;
 class volScalarField;
 location "500";
 object T;
}

dimensions [ 0 0 0 1 0 0 0 ];

internalField nonuniform List<scalar> 459
(
  303.607
  303.349
  303.336
  303.332
  303.328
  303.324
  303.319
  303.314
  303.305
  303.294
  303.282
  303.271
  303.261
  303.256
  303.257
  303.344
  303.322
  303.314
  303.316
  303.319
  303.323
  303.326
  303.33
  303.334
  303.338
  303.341
  303.345
  303.348
  303.352
  303.355
  303.359
  303.363
  303.368
  303.386
  303.782
  303.392
  303.369
  303.371
  303.374
  303.374
  303.372
  303.366
  303.352
  303.331
  303.304
  303.279
  303.259
  303.247
  303.241
  303.238
  303.239
  303.344
  303.306
  303.3
  303.302
  303.305
  303.309
  303.311
  303.313
  303.314
  303.316
  303.317
  303.319
  303.32
  303.322
  303.324
  303.328
  303.334
  303.342
  303.37
  303.964
  303.443
  303.404
  303.414
  303.427
  303.438
  303.443
  303.439
  303.419
  303.382
  303.337
  303.295
  303.262
  303.243
  303.235
  303.235
  303.237
  303.284
  303.283
  303.29
  303.299
  303.308
  303.314
  303.315
  303.315
  303.315
  303.316
  303.316
  303.317
  303.317
  303.317
  303.318
  303.321
  303.325
  303.333
  303.363
  304.147
  303.505
  303.44
  303.455
  303.482
  303.509
  303.528
  303.529
  303.499
  303.441
  303.37
  303.308
  303.263
  303.237
  303.229
  303.231
  303.237
  303.248
  303.26
  303.277
  303.295
  303.312
  303.326
  303.336
  303.345
  303.353
  303.36
  303.366
  303.371
  303.375
  303.378
  303.38
  303.381
  303.361
  303.345
  303.338
  303.362
  304.326
  303.584
  303.481
  303.491
  303.528
  303.572
  303.611
  303.616
  303.571
  303.486
  303.39
  303.311
  303.256
  303.228
  303.221
  303.228
  303.241
  303.258
  303.278
  303.3
  303.322
  303.342
  303.359
  303.372
  303.384
  303.393
  303.401
  303.407
  303.411
  303.413
  303.412
  303.408
  303.402
  303.386
  303.364
  303.348
  303.358
  303.425
  303.47
  303.476
  304.486
  303.686
  303.554
  303.541
  303.575
  303.629
  303.683
  303.673
  303.603
  303.497
  303.386
  303.295
  303.236
  303.21
  303.21
  303.227
  303.251
  303.278
  303.307
  303.335
  303.361
  303.382
  303.399
  303.412
  303.423
  303.431
  303.438
  303.442
  303.444
  303.443
  303.438
  303.431
  303.421
  303.405
  303.383
  303.362
  303.36
  303.388
  303.405
  303.438
  304.633
  303.849
  303.716
  303.685
  303.698
  303.74
  303.756
  303.7
  303.588
  303.455
  303.331
  303.241
  303.192
  303.182
  303.199
  303.234
  303.274
  303.314
  303.35
  303.382
  303.407
  303.427
  303.442
  303.452
  303.461
  303.467
  303.471
  303.473
  303.473
  303.469
  303.461
  303.451
  303.438
  303.422
  303.402
  303.381
  303.371
  303.379
  303.389
  303.417
  304.847
  304.26
  304.115
  304.025
  303.977
  303.93
  303.821
  303.657
  303.476
  303.314
  303.198
  303.136
  303.126
  303.153
  303.202
  303.263
  303.32
  303.369
  303.408
  303.435
  303.455
  303.469
  303.48
  303.487
  303.493
  303.496
  303.498
  303.498
  303.495
  303.491
  303.484
  303.472
  303.46
  303.445
  303.43
  303.414
  303.409
  303.421
  303.44
  303.563
  305.152
  304.876
  304.618
  304.384
  304.164
  303.902
  303.586
  303.301
  303.097
  302.988
  302.962
  302.997
  303.072
  303.161
  303.249
  303.335
  303.395
  303.434
  303.462
  303.481
  303.495
  303.505
  303.511
  303.516
  303.519
  303.52
  303.52
  303.519
  303.517
  303.514
  303.513
  303.513
  303.515
  303.522
  303.536
  303.559
  303.59
  303.622
  303.643
  303.696
  296.412
  298.39
  299.623
  300.375
  301.03
  301.601
  302.077
  302.456
  302.747
  302.974
  303.167
  303.293
  303.374
  303.43
  303.466
  303.49
  303.507
  303.518
  303.526
  303.532
  303.536
  303.539
  303.541
  303.542
  303.543
  303.544
  303.544
  303.546
  303.547
  303.55
  303.554
  303.563
  303.576
  303.594
  303.617
  303.64
  303.658
  303.677
  297.071
  298.947
  300.343
  301.269
  301.855
  302.296
  302.64
  302.903
  303.097
  303.237
  303.34
  303.412
  303.46
  303.491
  303.512
  303.526
  303.536
  303.543
  303.548
  303.551
  303.554
  303.556
  303.558
  303.56
  303.561
  303.563
  303.564
  303.566
  303.567
  303.57
  303.573
  303.579
  303.588
  303.601
  303.616
  303.633
  303.631
  303.659
  299.721
  299.643
  299.639
  301.457
  302.263
  302.656
  302.889
  303.061
  303.193
  303.294
  303.37
  303.425
  303.466
  303.494
  303.512
  303.524
  303.532
  303.537
  303.541
  303.544
  303.547
  303.549
  303.552
  303.554
  303.557
  303.56
  303.562
  303.565
  303.567
  303.569
  303.572
  303.574
  303.578
  303.582
  303.587
  303.596
  303.606
  303.611
  303.613
  303.651
)
;

boundaryField
{
  floor
  {
    type wallHeatTransfer;
    Tinf uniform 305.2;
    alphaWall uniform 0.24;
    value nonuniform List<scalar> 29
(
  303.444
  303.697
  303.633
  303.603
  303.607
  303.618
  303.631
  303.648
  303.666
  303.684
  303.701
  303.717
  303.734
  303.749
  303.764
  303.778
  303.793
  303.81
  303.825
  303.863
  303.863
  303.78
  303.739
  303.714
  303.444
  303.697
  303.677
  303.492
  303.41
)
;
  }
  ceiling
  {
    type wallHeatTransfer;
    Tinf uniform 303.2;
    alphaWall uniform 0.24;
    value nonuniform List<scalar> 43
(
  299.968
  299.884
  299.872
  301.565
  302.323
  302.692
  302.91
  303.071
  303.194
  303.287
  303.355
  303.404
  303.438
  303.46
  303.473
  303.481
  303.485
  303.488
  303.49
  303.492
  303.494
  303.496
  303.498
  303.5
  303.503
  303.505
  303.509
  303.512
  303.515
  303.519
  303.523
  303.527
  303.532
  303.538
  303.545
  303.555
  303.564
  303.568
  303.568
  303.6
  305.061
  304.809
  297.465
)
;
  }
  sWall
  {
    type wallHeatTransfer;
    Tinf uniform 315.2;
    alphaWall uniform 0.36;
    value uniform 301.318;
  }
  nWall
  {
    type wallHeatTransfer;
    Tinf uniform 307.2;
    alphaWall uniform 0.36;
    value nonuniform List<scalar> 6
(
  304.179
  304.129
  304.055
  304.188
  304.166
  304.23
)
;
  }
  sideWalls
  {
    type empty;
  }
  glass1
  {
    type wallHeatTransfer;
    Tinf uniform 315.2;
    alphaWall uniform 4.3;
    value nonuniform List<scalar> 9
(
  311.552
  310.922
  310.524
  310.22
  309.967
  309.737
  309.566
  309.637
  309.861
)
;
  }
  glass2
  {
    type wallHeatTransfer;
    Tinf uniform 307.2;
    alphaWall uniform 4.3;
    value nonuniform List<scalar> 2
(
  305.832
  305.924
)
;
  }
  sun
  {
    type wallHeatTransfer;
    Tinf uniform 305.2;
    alphaWall uniform 0.24;
    value nonuniform List<scalar> 14
(
  303.777
  303.533
  303.519
  303.509
  303.5
  303.491
  303.482
  303.473
  303.462
  303.451
  303.44
  303.433
  303.43
  303.433
)
;
  }
  heatsource1
  {
    type fixedGradient;
    gradient uniform 0;
  }
  heatsource2
  {
    type fixedGradient;
    gradient uniform 0;
  }
  Table_master
  {
    type zeroGradient;
  }
  Table_slave
  {
    type zeroGradient;
  }
  inlet
  {
    type fixedValue;
    value uniform 293.15;
  }
  outlet
  {
    type zeroGradient;
  }
} 	// ************************************************************************* //

