/*--------------------------------*- C++ -*----------------------------------*\
  =========                 |
  \\      /  F ield         | OpenFOAM: The Open Source CFD Toolbox
   \\    /   O peration     | Website:  https://openfoam.org
    \\  /    A nd           | Version:  6
     \\/     M anipulation  |
\*---------------------------------------------------------------------------*/
FoamFile
{
    version     2.0;
    format      ascii;
    class       volScalarField;
    location    "80";
    object      alphat;
}
// * * * * * * * * * * * * * * * * * * * * * * * * * * * * * * * * * * * * * //

dimensions      [1 -1 -1 0 0 0 0];

internalField   nonuniform List<scalar> 
459
(
0.00145087
0.00165475
0.00176297
0.00190859
0.00205197
0.00214523
0.0021503
0.00207788
0.00198737
0.00188639
0.00177891
0.00167248
0.00157005
0.00145765
0.0013286
0.000900555
0.00111275
0.00125856
0.00136049
0.0013879
0.00137343
0.0013053
0.00122715
0.00115602
0.0010938
0.00103943
0.000991809
0.000949694
0.000911999
0.000877306
0.00084338
0.00080693
0.000756877
0.000695415
0.00180269
0.0054692
0.00597479
0.00673783
0.0071586
0.00736849
0.00767987
0.00770948
0.00747123
0.0070504
0.00653421
0.00581978
0.00486515
0.00376722
0.00257045
0.00140447
0.00123765
0.00110401
0.00332982
0.00368876
0.00439541
0.00503746
0.0051073
0.00362547
0.00304593
0.00267472
0.00241071
0.00221274
0.00205673
0.00192995
0.00181405
0.00167341
0.001525
0.00140371
0.00116053
0.000732393
0.0021111
0.00793479
0.00795357
0.00806912
0.00773587
0.00747065
0.00793227
0.00835934
0.00845324
0.00827196
0.00793937
0.00744576
0.00666524
0.00556667
0.00420219
0.00275814
0.00131374
0.00119245
0.00372405
0.00387897
0.00493924
0.00603021
0.00601633
0.00167865
0.0014895
0.00132914
0.00119677
0.00108793
0.000997744
0.000921816
0.000858504
0.000814044
0.000945027
0.00116237
0.00119596
0.00075421
0.00241619
0.00997925
0.0094188
0.00876959
0.00748806
0.00693321
0.00752696
0.0082179
0.00853228
0.00849546
0.00827433
0.0079427
0.00742146
0.00660618
0.00545643
0.00403239
0.00228678
0.00136873
0.00181061
0.00279861
0.00451741
0.00635726
0.00769617
0.0074976
0.00185482
0.00171275
0.00159803
0.00150179
0.00141798
0.00133936
0.00126086
0.00117808
0.00108458
0.00100831
0.00108459
0.00128223
0.000801627
0.00272033
0.0119754
0.0111206
0.00934242
0.00709296
0.00661213
0.00738159
0.00828319
0.00873609
0.00874085
0.00852693
0.00824722
0.00789631
0.00735967
0.00656663
0.0055253
0.00433299
0.0039968
0.00481204
0.00634913
0.00805337
0.00946092
0.0103365
0.0104646
0.00903247
0.00812411
0.00750331
0.00695897
0.00633125
0.0056289
0.00485095
0.00399055
0.00305245
0.00214567
0.00158344
0.00150121
0.00108382
0.000857317
0.000944757
0.00149089
0.00300471
0.013545
0.0127978
0.00906432
0.00666601
0.0064445
0.00749957
0.00863275
0.00919586
0.00921121
0.00901684
0.0088526
0.00869371
0.00843682
0.00806022
0.00763217
0.00734835
0.00797541
0.00938116
0.0107413
0.011809
0.0124573
0.0126609
0.0124424
0.0118345
0.0111864
0.0105368
0.00976728
0.00887941
0.00787786
0.00676611
0.0055516
0.00426613
0.00303391
0.00212256
0.00172814
0.00137619
0.0013852
0.00179797
0.00186663
0.00313041
0.0134729
0.0117875
0.00774274
0.00595771
0.00635703
0.00786021
0.00924551
0.00989224
0.00995198
0.00992474
0.0100061
0.00998644
0.00994801
0.00996691
0.0101423
0.0106564
0.0117444
0.0129522
0.013776
0.0141934
0.0142049
0.0138696
0.0132934
0.0126206
0.01195
0.0112174
0.0103803
0.00942359
0.00834827
0.0071618
0.00588281
0.00455762
0.00331128
0.00234652
0.00181712
0.00148545
0.0016919
0.00274247
0.00249883
0.00309652
0.00968331
0.00756589
0.00540711
0.00507349
0.00648372
0.00855284
0.0101258
0.0107817
0.0109445
0.0108948
0.0108183
0.0108364
0.0110333
0.0114339
0.0120647
0.0129344
0.0139304
0.0146878
0.0149811
0.0148592
0.014378
0.0136264
0.0127468
0.0118503
0.0110019
0.0101944
0.00934683
0.0084194
0.00740761
0.00632638
0.00520451
0.0040888
0.00307044
0.0022625
0.00175995
0.0015172
0.00173587
0.00510181
0.0035659
0.00296471
0.0032484
0.00312741
0.00312619
0.00460357
0.0072711
0.00977377
0.0111901
0.0116347
0.0113614
0.011043
0.0109272
0.0110871
0.0114728
0.0120494
0.0127746
0.0135444
0.0141708
0.0144439
0.0142733
0.0137185
0.012876
0.0118372
0.0107582
0.00979721
0.0089737
0.00820832
0.00743008
0.00660739
0.00574192
0.00485569
0.00398397
0.00317246
0.00247754
0.00194725
0.00162769
0.00170054
0.002754
0.00811915
0.0041963
0.000719937
0.00296321
0.00665351
0.00976471
0.0114433
0.0115793
0.0113816
0.011157
0.0110747
0.0111668
0.0113917
0.0117139
0.0120961
0.0124762
0.0127523
0.0128049
0.0125721
0.0120906
0.0114451
0.0107414
0.010075
0.00949393
0.00899435
0.00854424
0.00810349
0.00764302
0.00714646
0.00660444
0.0060116
0.0053694
0.00469439
0.00402996
0.00346144
0.00315954
0.00349198
0.00537489
0.00975626
0.00374362
0.00273608
0.00861515
0.0111096
0.012182
0.0122478
0.0117925
0.0112902
0.0110242
0.0109421
0.0109572
0.0110245
0.0111268
0.0112492
0.0113636
0.0114271
0.011396
0.0112524
0.0110158
0.010728
0.0104329
0.0101607
0.00992079
0.00970525
0.00950003
0.00929007
0.00906062
0.00879471
0.00847118
0.0080669
0.00756514
0.00697066
0.0063279
0.00573716
0.00536989
0.00548292
0.0064429
0.00771015
0.00323215
0.00171787
0.00193971
0.00229903
0.00260537
0.00273183
0.00269458
0.00260537
0.00253612
0.00250578
0.00249367
0.00249466
0.00250436
0.00252049
0.00254033
0.00256034
0.00257615
0.00258342
0.00257954
0.00256553
0.00254538
0.00252379
0.00250391
0.00248709
0.00247321
0.00246119
0.00244927
0.00243534
0.00241713
0.00239242
0.00235966
0.00231913
0.00227481
0.00223614
0.00221919
0.00224605
0.00234037
0.00251722
0.00276942
0.00294832
0.00269462
)
;

boundaryField
{
    floor
    {
        type            compressible::alphatWallFunction;
        Prt             0.85;
        value           nonuniform List<scalar> 
29
(
0.000188289
0.000128736
0.00015862
0.000178764
0.000192683
0.000196407
0.000194449
0.000185175
0.000174463
0.000164646
0.000156
0.000148398
0.000141702
0.000135749
0.000130394
0.000125442
0.000120578
0.000115326
0.000108067
9.907e-05
9.90689e-05
0.000104487
0.000107666
0.000114546
0.000188287
0.000128735
0.00015741
0.000169667
0.000193756
)
;
    }
    ceiling
    {
        type            compressible::alphatWallFunction;
        Prt             0.85;
        value           nonuniform List<scalar> 
43
(
0.00024066
0.000269853
0.000316394
0.000355462
0.000371455
0.000366767
0.000355494
0.000346714
0.00034286
0.000341322
0.000341451
0.000342688
0.000344743
0.000347268
0.000349811
0.000351821
0.000352746
0.000352258
0.000350483
0.000347929
0.000345188
0.000342664
0.000340525
0.00033876
0.000337231
0.000335713
0.000333936
0.00033161
0.00032845
0.000324254
0.000319056
0.000313359
0.000308383
0.000306202
0.000309668
0.000321787
0.000344364
0.000376275
0.00039873
0.000366857
0.000400574
0.000435847
0.000371879
)
;
    }
    sWall
    {
        type            compressible::alphatWallFunction;
        Prt             0.85;
        value           uniform 0.000239788;
    }
    nWall
    {
        type            compressible::alphatWallFunction;
        Prt             0.85;
        value           nonuniform List<scalar> 6(0.000210703 0.00026064 0.000342267 0.000497143 0.00043429 0.000367103);
    }
    sideWalls
    {
        type            empty;
    }
    glass1
    {
        type            compressible::alphatWallFunction;
        Prt             0.85;
        value           nonuniform List<scalar> 9(0.00020184 0.000248414 0.000288461 0.000327493 0.000365911 0.000401448 0.000417084 0.000412962 0.000396708);
    }
    glass2
    {
        type            compressible::alphatWallFunction;
        Prt             0.85;
        value           nonuniform List<scalar> 2(0.000480275 0.000557347);
    }
    sun
    {
        type            compressible::alphatWallFunction;
        Prt             0.85;
        value           nonuniform List<scalar> 
14
(
0.000204859
0.00023217
0.000246517
0.000265671
0.000284374
0.000296465
0.00029713
0.000287755
0.000275985
0.000262784
0.000248645
0.000234552
0.000220894
0.000205793
)
;
    }
    heatsource1
    {
        type            compressible::alphatWallFunction;
        Prt             0.85;
        value           nonuniform List<scalar> 3(0.000122135 0.000134635 0.000209933);
    }
    heatsource2
    {
        type            compressible::alphatWallFunction;
        Prt             0.85;
        value           nonuniform List<scalar> 4(0.000198233 0.000175474 0.000175473 0.000185891);
    }
    Table_master
    {
        type            compressible::alphatWallFunction;
        Prt             0.85;
        value           nonuniform List<scalar> 9(0.000234996 0.000209718 0.000188005 0.000169857 0.000154761 0.000142118 0.000131367 0.00012232 0.000115919);
    }
    Table_slave
    {
        type            compressible::alphatWallFunction;
        Prt             0.85;
        value           nonuniform List<scalar> 9(0.000258253 0.000239507 0.000224245 0.000211349 0.000200043 0.000189372 0.000178648 0.000167257 0.00015428);
    }
    inlet
    {
        type            fixedValue;
        value           uniform 1.94e-05;
    }
    outlet
    {
        type            zeroGradient;
    }
}


// ************************************************************************* //
