/*--------------------------------*- C++ -*----------------------------------*\
  =========                 |
  \\      /  F ield         | OpenFOAM: The Open Source CFD Toolbox
   \\    /   O peration     | Website:  https://openfoam.org
    \\  /    A nd           | Version:  6
     \\/     M anipulation  |
\*---------------------------------------------------------------------------*/
FoamFile
{
    version     2.0;
    format      ascii;
    class       volScalarField;
    location    "670";
    object      epsilon;
}
// * * * * * * * * * * * * * * * * * * * * * * * * * * * * * * * * * * * * * //

dimensions      [0 2 -3 0 0 0 0];

internalField   nonuniform List<scalar> 
459
(
0.000191749
0.000241361
0.000252843
0.00028714
0.000319853
0.000351029
0.000381527
0.000412594
0.000446185
0.000476053
0.000497781
0.000506492
0.000498333
0.000474082
0.000440973
8.12553e-05
0.000145197
0.000116348
8.58283e-05
6.12911e-05
4.49969e-05
3.28872e-05
2.41487e-05
1.80722e-05
1.38199e-05
1.07795e-05
8.55894e-06
6.89976e-06
5.62272e-06
4.6046e-06
3.77182e-06
3.82163e-06
1.30779e-05
3.51816e-05
0.000496415
0.000777014
0.000226102
0.000217069
0.000219544
0.000225203
0.000235021
0.000251354
0.000276606
0.000306746
0.000336664
0.000359591
0.000369856
0.000369629
0.000385635
0.000498597
0.000261851
0.000191144
0.000307943
0.000164847
0.000107759
7.45279e-05
5.30487e-05
3.90296e-05
2.84265e-05
2.1023e-05
1.58344e-05
1.2153e-05
9.50968e-06
7.59372e-06
6.22465e-06
5.40761e-06
5.21732e-06
1.47731e-05
5.78191e-05
6.15492e-05
0.000933527
0.00199211
0.000273631
0.00020103
0.000197973
0.000205295
0.000219554
0.00024227
0.000274272
0.000313698
0.000354702
0.000390529
0.000416971
0.000433551
0.000445265
0.000456281
0.000616859
0.00038893
0.000256743
0.000170823
0.000122273
9.07584e-05
6.91027e-05
9.6071e-05
6.00319e-05
4.0502e-05
2.89049e-05
2.15499e-05
1.66472e-05
1.32619e-05
1.08847e-05
9.25843e-06
7.07296e-06
1.34001e-05
7.18028e-05
8.15889e-05
0.0015601
0.00423444
0.000424843
0.000194148
0.000181646
0.000190057
0.000205826
0.000231218
0.000269662
0.000317854
0.000365485
0.000407364
0.000443776
0.000473686
0.000490067
0.000473224
0.000422868
0.00074646
0.000441914
0.000272399
0.000184185
0.000131887
9.84679e-05
7.88078e-05
0.000157654
0.000113131
8.35734e-05
6.35178e-05
4.94993e-05
3.93041e-05
3.14826e-05
2.50585e-05
1.92082e-05
1.06126e-05
1.31382e-05
0.000101775
0.000102211
0.00244688
0.00772332
0.000824635
0.000207011
0.000166439
0.00017272
0.000190037
0.000222762
0.000280777
0.000345787
0.000399184
0.000443294
0.00048529
0.000523203
0.000541164
0.000513787
0.000440859
0.000363478
0.000280607
0.00020995
0.000155533
0.000115951
8.94296e-05
7.4517e-05
7.46171e-05
6.46925e-05
5.37499e-05
4.43034e-05
3.66617e-05
3.04732e-05
2.52804e-05
2.06932e-05
1.6284e-05
1.20675e-05
1.2305e-05
5.28455e-05
9.18756e-05
9.546e-05
0.000178186
0.000565317
0.00369846
0.0117123
0.00187266
0.00032007
0.000182555
0.000171963
0.000185351
0.000229247
0.000338986
0.000422292
0.000473803
0.000516248
0.000563338
0.000609021
0.000629242
0.000595696
0.000505772
0.000394557
0.000293817
0.000212684
0.000152062
0.000110401
8.49755e-05
7.18467e-05
6.58422e-05
5.92317e-05
5.21094e-05
4.5473e-05
3.96314e-05
3.44388e-05
2.9648e-05
2.50693e-05
2.05949e-05
1.68221e-05
1.60313e-05
2.3928e-05
5.57822e-05
0.000170691
0.000847897
0.00135162
0.0053533
0.0142405
0.00442027
0.00106571
0.00048932
0.000339141
0.000312186
0.000392235
0.000521724
0.000580626
0.000606697
0.000639118
0.000691439
0.000750028
0.000780711
0.000743473
0.000630254
0.000482994
0.000346705
0.000238858
0.000163622
0.000116754
9.20227e-05
8.05572e-05
7.49653e-05
7.02348e-05
6.53957e-05
6.08185e-05
5.6678e-05
5.28343e-05
4.90509e-05
4.51194e-05
4.08711e-05
3.65055e-05
3.33037e-05
3.58034e-05
7.55143e-05
0.000536247
0.00273222
0.00316521
0.00593356
0.0188399
0.00916345
0.00488878
0.00268557
0.00161274
0.00115794
0.0010335
0.000941705
0.000861582
0.000818874
0.000833687
0.000898214
0.000978572
0.00102452
0.000978601
0.000825273
0.000623484
0.000438692
0.000298094
0.000210918
0.000163726
0.0001415
0.000130329
0.000125055
0.00012212
0.000120143
0.000118935
0.000118463
0.000118545
0.00011886
0.000118914
0.000117897
0.000114598
0.000108068
0.00010674
0.000187023
0.00114147
0.00957281
0.00768893
0.00566049
0.0102994
0.00788
0.00576932
0.00415141
0.0029961
0.00225153
0.00174821
0.0013873
0.00116496
0.00108473
0.00112852
0.00124306
0.00136567
0.00143279
0.00136436
0.00114167
0.000868482
0.000640707
0.000492196
0.000403336
0.000360123
0.000335169
0.000321844
0.000316321
0.000315841
0.000318776
0.000324497
0.000332793
0.000343495
0.000356208
0.000370001
0.000383064
0.000392672
0.000392911
0.000376824
0.000502601
0.00190078
0.0130844
0.0104132
0.0024875
0.00304707
0.00280366
0.002337
0.00190194
0.00155666
0.00136145
0.00134887
0.00149709
0.00173686
0.00197432
0.00216299
0.00226278
0.00215275
0.00182866
0.00153655
0.00133784
0.0011925
0.00110853
0.00106376
0.00103412
0.00101681
0.00101012
0.00101273
0.00102352
0.0010419
0.00106781
0.0011016
0.00114346
0.00119248
0.00124584
0.00130279
0.00131949
0.00128896
0.00141589
0.00272578
0.00948131
0.00616302
0.00145077
0.00237364
0.00239216
0.00219781
0.00208064
0.0021639
0.00248035
0.00293748
0.0034588
0.00389875
0.00417641
0.00444396
0.00475039
0.00471939
0.00436717
0.00401857
0.0037319
0.00347696
0.00329423
0.00317647
0.0031042
0.00306105
0.00304326
0.00304844
0.0030732
0.00311502
0.00317324
0.00324905
0.00334447
0.00345904
0.00357931
0.00365279
0.00360147
0.00338455
0.00319571
0.00362929
0.00512553
0.0035604
0.000848891
0.0010465
0.00127153
0.00162551
0.0016157
0.00145938
0.00130957
0.00117502
0.00109594
0.00114356
0.00127492
0.00144528
0.00161845
0.00185976
0.00215189
0.00228297
0.00226385
0.00218906
0.00210845
0.00205361
0.00201465
0.00198809
0.0019718
0.00196445
0.00196459
0.00197075
0.0019816
0.00199612
0.00201359
0.00203332
0.00205389
0.00207147
0.00207645
0.00205582
0.00200472
0.0019724
0.00208051
0.00241397
0.00273787
0.00202094
)
;

boundaryField
{
    floor
    {
        Cmu             0.09;
        kappa           0.41;
        E               9.8;
        type            epsilonWallFunction;
        value           nonuniform List<scalar> 
29
(
0.000440973
8.12553e-05
0.000145197
0.000116348
8.58283e-05
6.12911e-05
4.49969e-05
3.28872e-05
2.41487e-05
1.80722e-05
1.38199e-05
1.07795e-05
8.55894e-06
6.89976e-06
5.62272e-06
4.6046e-06
3.77182e-06
3.82163e-06
1.30779e-05
3.51816e-05
3.51816e-05
6.15492e-05
8.15889e-05
0.000102211
0.000440973
8.12553e-05
0.000191144
0.00038893
0.00074646
)
;
    }
    ceiling
    {
        Cmu             0.09;
        kappa           0.41;
        E               9.8;
        type            epsilonWallFunction;
        value           nonuniform List<scalar> 
43
(
0.000848891
0.0010465
0.00127153
0.00162551
0.0016157
0.00145938
0.00130957
0.00117502
0.00109594
0.00114356
0.00127492
0.00144528
0.00161845
0.00185976
0.00215189
0.00228297
0.00226385
0.00218906
0.00210845
0.00205361
0.00201465
0.00198809
0.0019718
0.00196445
0.00196459
0.00197075
0.0019816
0.00199612
0.00201359
0.00203332
0.00205389
0.00207147
0.00207645
0.00205582
0.00200472
0.0019724
0.00208051
0.00241397
0.00273787
0.00202094
0.00566049
0.0102994
0.00145077
)
;
    }
    sWall
    {
        Cmu             0.09;
        kappa           0.41;
        E               9.8;
        type            epsilonWallFunction;
        value           uniform 0.000848891;
    }
    nWall
    {
        Cmu             0.09;
        kappa           0.41;
        E               9.8;
        type            epsilonWallFunction;
        value           nonuniform List<scalar> 6(0.000565317 0.00135162 0.00316521 0.00616302 0.0035604 0.00202094);
    }
    sideWalls
    {
        type            empty;
    }
    glass1
    {
        Cmu             0.09;
        kappa           0.41;
        E               9.8;
        type            epsilonWallFunction;
        value           nonuniform List<scalar> 9(0.000191749 0.000496415 0.000933527 0.0015601 0.00244688 0.00369846 0.0053533 0.00593356 0.00566049);
    }
    glass2
    {
        Cmu             0.09;
        kappa           0.41;
        E               9.8;
        type            epsilonWallFunction;
        value           nonuniform List<scalar> 2(0.00768893 0.0104132);
    }
    sun
    {
        Cmu             0.09;
        kappa           0.41;
        E               9.8;
        type            epsilonWallFunction;
        value           nonuniform List<scalar> 
14
(
0.000191749
0.000241361
0.000252843
0.00028714
0.000319853
0.000351029
0.000381527
0.000412594
0.000446185
0.000476053
0.000497781
0.000506492
0.000498333
0.000474082
)
;
    }
    heatsource1
    {
        Cmu             0.09;
        kappa           0.41;
        E               9.8;
        type            epsilonWallFunction;
        value           nonuniform List<scalar> 3(9.546e-05 0.000178186 0.000565317);
    }
    heatsource2
    {
        Cmu             0.09;
        kappa           0.41;
        E               9.8;
        type            epsilonWallFunction;
        value           nonuniform List<scalar> 4(0.000498597 0.000261851 0.000261851 0.000616859);
    }
    Table_master
    {
        Cmu             0.09;
        kappa           0.41;
        E               9.8;
        type            epsilonWallFunction;
        value           nonuniform List<scalar> 9(9.6071e-05 6.00319e-05 4.0502e-05 2.89049e-05 2.15499e-05 1.66472e-05 1.32619e-05 1.08847e-05 9.25843e-06);
    }
    Table_slave
    {
        Cmu             0.09;
        kappa           0.41;
        E               9.8;
        type            epsilonWallFunction;
        value           nonuniform List<scalar> 9(0.000157654 0.000113131 8.35734e-05 6.35178e-05 4.94993e-05 3.93041e-05 3.14826e-05 2.50585e-05 1.92082e-05);
    }
    inlet
    {
        type            turbulentMixingLengthDissipationRateInlet;
        mixingLength    0.01;
        phi             phi;
        k               k;
        value           uniform 0.000101881;
    }
    outlet
    {
        type            zeroGradient;
    }
}


// ************************************************************************* //
