/*--------------------------------*- C++ -*----------------------------------*\
  =========                 |
  \\      /  F ield         | OpenFOAM: The Open Source CFD Toolbox
   \\    /   O peration     | Website:  https://openfoam.org
    \\  /    A nd           | Version:  6
     \\/     M anipulation  |
\*---------------------------------------------------------------------------*/
FoamFile
{
    version     2.0;
    format      ascii;
    class       volScalarField;
    location    "700";
    object      alphat;
}
// * * * * * * * * * * * * * * * * * * * * * * * * * * * * * * * * * * * * * //

dimensions      [1 -1 -1 0 0 0 0];

internalField   nonuniform List<scalar> 
459
(
0.00131858
0.00144018
0.00147689
0.00155055
0.00161997
0.00168806
0.00175993
0.00182535
0.00187522
0.00189907
0.00188638
0.00182585
0.00160915
0.00134194
0.00111131
0.000610532
0.000710449
0.000803489
0.000836759
0.000825477
0.000797729
0.000748878
0.00069743
0.000650672
0.000609444
0.000573159
0.00054112
0.000512837
0.000487533
0.000464304
0.000442089
0.00041954
0.000407033
0.000375075
0.00176501
0.00402405
0.00373489
0.00428587
0.0048407
0.00538864
0.00581199
0.0062264
0.00664347
0.007015
0.00729287
0.00742493
0.00728559
0.00645325
0.00413061
0.00134073
0.00104424
0.000608769
0.00140426
0.00202804
0.00253673
0.0028535
0.00284927
0.00212175
0.00179066
0.00156691
0.00140081
0.00127213
0.00116908
0.00107977
0.000996414
0.000914242
0.000840838
0.000776095
0.000941968
0.000498583
0.00213162
0.00535762
0.00443525
0.00529834
0.0056306
0.00586586
0.00606415
0.00633302
0.00669654
0.0071441
0.00765332
0.00816266
0.00850075
0.00820936
0.00692335
0.00453478
0.0012962
0.000895285
0.00151274
0.00219033
0.00292901
0.00348499
0.00343086
0.00101899
0.00089647
0.000796533
0.000715797
0.000650333
0.000596827
0.000552877
0.000516935
0.000488585
0.000535853
0.000622294
0.00109334
0.000589313
0.00247939
0.0067458
0.00428083
0.00535837
0.00542866
0.00537042
0.00541482
0.00561161
0.00595321
0.0064497
0.0070913
0.00778225
0.00832088
0.00840247
0.00796104
0.00657059
0.0036117
0.001468
0.00181223
0.00246308
0.00330596
0.00411762
0.00466466
0.00441193
0.00114272
0.00104604
0.000978442
0.00092664
0.000880915
0.000837571
0.000795282
0.000750269
0.00069757
0.00065121
0.000664723
0.00134511
0.000654391
0.00283008
0.00860698
0.00439345
0.00506643
0.00512125
0.0049065
0.00491999
0.00513531
0.00548547
0.00600943
0.0067048
0.00741026
0.00784472
0.00795788
0.00781889
0.00729242
0.00609073
0.00540454
0.00548728
0.00579808
0.00617568
0.0064455
0.00651666
0.0062706
0.00523775
0.00474597
0.00446487
0.0042452
0.00401115
0.00367299
0.0032208
0.00268747
0.00211421
0.00157225
0.00116397
0.00127367
0.000866631
0.000803573
0.000952618
0.00106791
0.00320288
0.0107095
0.0058013
0.00470628
0.00495065
0.00480965
0.00476315
0.00500605
0.00535509
0.00588361
0.00657273
0.00722869
0.00756804
0.00756521
0.00748809
0.00750772
0.00742601
0.0075306
0.0078713
0.0080895
0.00810988
0.00794626
0.00764016
0.00722215
0.00669156
0.0062636
0.00591667
0.00559955
0.00528363
0.00493989
0.00449063
0.00391977
0.00323767
0.00250798
0.00187736
0.0013906
0.00114446
0.00103724
0.00150706
0.00112709
0.00357315
0.0122887
0.0085343
0.0054831
0.00485613
0.00503436
0.00502201
0.00515099
0.00544108
0.00594679
0.00663489
0.0072821
0.00755546
0.00747222
0.00752353
0.00801303
0.00854538
0.00895053
0.00917114
0.00909619
0.00877279
0.00828542
0.00771065
0.00711285
0.00655644
0.00610912
0.00574381
0.00542112
0.00512906
0.00487399
0.0046541
0.00427734
0.00373056
0.00307597
0.00247241
0.00192824
0.00162107
0.00161665
0.00173814
0.00133465
0.00366496
0.0113932
0.00949367
0.00766105
0.00647824
0.00601655
0.00556119
0.00544066
0.00565873
0.00616205
0.00687247
0.00752335
0.00773096
0.00765597
0.00810931
0.00874018
0.00913076
0.00928758
0.0091776
0.00878414
0.00818247
0.00747637
0.00676389
0.00612733
0.00561738
0.0052291
0.00491995
0.00466573
0.00446866
0.00434214
0.00429594
0.00427659
0.0039516
0.00352426
0.00318294
0.00309715
0.00345599
0.00436839
0.00546697
0.00198557
0.00359266
0.00435147
0.0048846
0.00509018
0.00504438
0.00498319
0.00508151
0.00540442
0.00587016
0.00649904
0.0072721
0.00790283
0.00798694
0.00811763
0.00841165
0.00857185
0.00854789
0.00836222
0.00795524
0.00735353
0.0066584
0.00598075
0.00539789
0.00493491
0.00457262
0.00427276
0.00400618
0.00376449
0.00355112
0.00336951
0.00321769
0.00309311
0.00300314
0.00295655
0.00297064
0.00302139
0.00301164
0.00286109
0.00263585
0.00180668
0.00186889
0.00315077
0.00418444
0.00500875
0.00574893
0.00631129
0.00664923
0.00714365
0.00775677
0.00825234
0.00825829
0.00805703
0.00771495
0.00735749
0.00703283
0.00666388
0.00621178
0.00572191
0.00526443
0.00487844
0.00456729
0.00431026
0.00408039
0.00385773
0.00363589
0.00342246
0.00323443
0.00309251
0.00301387
0.00299091
0.003004
0.00304127
0.0030798
0.00307199
0.00295313
0.00269868
0.00232707
0.00146438
0.00256742
0.0050384
0.00627002
0.00709052
0.00747251
0.00692456
0.00635584
0.00663924
0.00669394
0.0066959
0.00659371
0.00632457
0.00603391
0.005793
0.00556611
0.00531032
0.00501659
0.00473674
0.00449275
0.0042856
0.00410683
0.00394575
0.00379436
0.00365016
0.00351596
0.00339688
0.00329594
0.0032109
0.00317786
0.00319409
0.00325076
0.0033317
0.0034102
0.00347279
0.00345827
0.00342464
0.00291206
0.00148542
0.00266706
0.00272239
0.00277654
0.00309635
0.00281938
0.00235027
0.00187681
0.0016705
0.00151928
0.00143519
0.00138283
0.00132902
0.00127735
0.00123591
0.00120479
0.00117878
0.0011539
0.00112961
0.00110888
0.00109046
0.0010752
0.00106335
0.00105498
0.00105036
0.00105009
0.00105504
0.0010663
0.00108513
0.00111313
0.00115264
0.00120116
0.00125953
0.00132768
0.00140577
0.0014929
0.00161403
0.00164406
0.0016011
0.00149244
0.00137433
)
;

boundaryField
{
    floor
    {
        type            compressible::alphatWallFunction;
        Prt             0.85;
        value           nonuniform List<scalar> 
29
(
0.00015778
8.58752e-05
0.000100657
0.000114197
0.000118993
0.00011737
0.000113366
0.000106275
9.87476e-05
9.18478e-05
8.57138e-05
8.02731e-05
7.54337e-05
7.11319e-05
6.72582e-05
6.368e-05
6.02367e-05
5.67191e-05
5.4758e-05
4.97113e-05
4.97106e-05
6.89542e-05
8.27023e-05
9.24017e-05
0.000157779
8.58742e-05
8.56111e-05
0.000127372
0.000206585
)
;
    }
    ceiling
    {
        type            compressible::alphatWallFunction;
        Prt             0.85;
        value           nonuniform List<scalar> 
43
(
0.000362424
0.000369404
0.000376223
0.000416306
0.000381744
0.000322321
0.000261028
0.000233813
0.000213627
0.000202307
0.00019522
0.000187904
0.000180847
0.000175163
0.000170881
0.000167291
0.000163849
0.00016048
0.000157599
0.000155033
0.000152904
0.000151248
0.000150077
0.000149431
0.000149392
0.000150085
0.00015166
0.000154289
0.00015819
0.000163675
0.00017038
0.000178407
0.000187725
0.000198336
0.000210099
0.000226326
0.000230327
0.000224602
0.000210039
0.000194078
0.000477843
0.000569842
0.000349718
)
;
    }
    sWall
    {
        type            compressible::alphatWallFunction;
        Prt             0.85;
        value           uniform 0.000361123;
    }
    nWall
    {
        type            compressible::alphatWallFunction;
        Prt             0.85;
        value           nonuniform List<scalar> 6(0.00015151 0.000159748 0.00018828 0.000205892 0.000208725 0.000193709);
    }
    sideWalls
    {
        type            empty;
    }
    glass1
    {
        type            compressible::alphatWallFunction;
        Prt             0.85;
        value           nonuniform List<scalar> 9(0.000181282 0.000240263 0.000287607 0.000331808 0.00037579 0.00042197 0.000467328 0.00047865 0.000470118);
    }
    glass2
    {
        type            compressible::alphatWallFunction;
        Prt             0.85;
        value           nonuniform List<scalar> 2(0.000272825 0.000249611);
    }
    sun
    {
        type            compressible::alphatWallFunction;
        Prt             0.85;
        value           nonuniform List<scalar> 
14
(
0.000186341
0.000202828
0.000207778
0.000217673
0.000226949
0.000236007
0.000245522
0.000254147
0.000260699
0.000263826
0.000262162
0.000254212
0.000225509
0.000189508
)
;
    }
    heatsource1
    {
        type            compressible::alphatWallFunction;
        Prt             0.85;
        value           nonuniform List<scalar> 3(0.000114408 0.000135728 0.000151948);
    }
    heatsource2
    {
        type            compressible::alphatWallFunction;
        Prt             0.85;
        value           nonuniform List<scalar> 4(0.00018957 0.000148636 0.000148634 0.000183491);
    }
    Table_master
    {
        type            compressible::alphatWallFunction;
        Prt             0.85;
        value           nonuniform List<scalar> 9(0.000145088 0.000127743 0.000113388 0.000101633 9.19842e-05 8.40097e-05 7.73934e-05 7.19339e-05 6.75941e-05);
    }
    Table_slave
    {
        type            compressible::alphatWallFunction;
        Prt             0.85;
        value           nonuniform List<scalar> 9(0.000162364 0.000148888 0.00013938 0.000132042 0.000125525 0.00011931 0.000113209 0.000106673 9.89601e-05);
    }
    inlet
    {
        type            fixedValue;
        value           uniform 1.94e-05;
    }
    outlet
    {
        type            zeroGradient;
    }
}


// ************************************************************************* //
