/*--------------------------------*- C++ -*----------------------------------*\
  =========                 |
  \\      /  F ield         | OpenFOAM: The Open Source CFD Toolbox
   \\    /   O peration     | Website:  https://openfoam.org
    \\  /    A nd           | Version:  6
     \\/     M anipulation  |
\*---------------------------------------------------------------------------*/
FoamFile
{
    version     2.0;
    format      ascii;
    class       volScalarField;
    location    "300";
    object      nut;
}
// * * * * * * * * * * * * * * * * * * * * * * * * * * * * * * * * * * * * * //

dimensions      [0 2 -1 0 0 0 0];

internalField   nonuniform List<scalar> 
459
(
0.00073966
0.00076471
0.000729812
0.000757446
0.000784188
0.000808463
0.00083071
0.000851675
0.000872303
0.000893101
0.000909895
0.000921303
0.00092635
0.00092512
0.000916069
0.000512107
0.000623804
0.000595808
0.000602133
0.000622841
0.000595775
0.000522165
0.000456373
0.000373664
0.000240637
0.000196299
0.000207456
0.000227182
0.000232566
0.000232304
0.000245935
0.000306895
0.000359287
0.000330534
0.00120606
0.0019926
0.00156873
0.0019411
0.00209534
0.00225874
0.00242558
0.0025818
0.00270698
0.00278425
0.00281905
0.00278125
0.00262285
0.00227283
0.00167044
0.000977502
0.000653358
0.000665564
0.00265655
0.00261285
0.00259895
0.00241716
0.0020024
0.00147325
0.00102559
0.000723386
0.000614019
0.000588112
0.000607879
0.00061588
0.000574991
0.000500302
0.000452106
0.000559328
0.000943357
0.00049363
0.00162349
0.00316761
0.00165882
0.00275507
0.00301958
0.00317395
0.00330067
0.00340302
0.00348039
0.00352799
0.00354669
0.00350358
0.00335079
0.00302262
0.00246735
0.00174734
0.00105408
0.000855864
0.00327158
0.00328911
0.00306233
0.00268322
0.00204968
0.000626485
0.00049741
0.000429478
0.000389864
0.000363815
0.000344544
0.000328135
0.000313032
0.000300072
0.000415292
0.000838836
0.00184586
0.0005692
0.00203248
0.00477663
0.00172966
0.00301792
0.00352449
0.00365524
0.00372952
0.00378266
0.00382603
0.00386165
0.0038968
0.00391709
0.00388898
0.00374636
0.00338488
0.00271784
0.00184303
0.00116828
0.00254941
0.00348047
0.00347772
0.00302836
0.00260359
0.00207962
0.00076358
0.000725678
0.000718202
0.000723585
0.000734119
0.000742216
0.0007393
0.000716658
0.000689921
0.000731066
0.0009303
0.00195812
0.000729623
0.00242663
0.00669034
0.00222994
0.00281147
0.00371607
0.00387696
0.00391978
0.0039363
0.00394963
0.0039714
0.00401528
0.00409923
0.00421775
0.00435077
0.00445957
0.00449386
0.00442419
0.00424627
0.00407305
0.00376694
0.00329275
0.00285502
0.00261524
0.0028019
0.00296999
0.00309042
0.00318879
0.00327404
0.00332832
0.00333097
0.00326481
0.00311046
0.00269439
0.00221522
0.00178611
0.00160431
0.00168536
0.00090989
0.000842964
0.000984946
0.00280934
0.00856646
0.00359769
0.00249688
0.00347344
0.00384356
0.00395909
0.00398847
0.0039732
0.00394615
0.00395422
0.00403351
0.00417214
0.00435722
0.00455557
0.00470009
0.00469918
0.00448682
0.00408451
0.00357079
0.00306904
0.00268283
0.00246019
0.00285287
0.00336396
0.00364297
0.00381603
0.00392288
0.00397309
0.00396859
0.00391508
0.00381997
0.00362097
0.00324391
0.00275184
0.00207351
0.00188958
0.0015498
0.00186084
0.00107984
0.00317811
0.010034
0.00623082
0.00330992
0.00271222
0.00307149
0.0035479
0.00387298
0.00401539
0.00391011
0.00386279
0.00389796
0.00398978
0.00413106
0.00429907
0.00443469
0.00444702
0.00426914
0.00391359
0.00347166
0.0030419
0.00263005
0.0022876
0.00283127
0.00347109
0.0037722
0.00392781
0.00400612
0.00403475
0.00402791
0.0040067
0.00399663
0.00399906
0.00385084
0.0035093
0.00306529
0.00277019
0.00256261
0.00241803
0.00130375
0.00326771
0.0101101
0.00798429
0.00612871
0.00447224
0.00351577
0.00333156
0.00357654
0.00389538
0.00385466
0.00377642
0.00374786
0.00377137
0.0038364
0.00392822
0.00401817
0.00404928
0.00395787
0.00373841
0.00346538
0.00315783
0.0026837
0.00212338
0.00283559
0.00362347
0.00389951
0.00397522
0.0039859
0.00396598
0.0039374
0.0039381
0.00400965
0.00418764
0.00445366
0.00443771
0.00445684
0.00468758
0.00475047
0.00500278
0.00174544
0.00318826
0.00383776
0.00426413
0.00441688
0.00426979
0.0039265
0.00361847
0.00344537
0.00338789
0.00337335
0.00339308
0.00343167
0.00347669
0.0035194
0.00355572
0.00358313
0.00359221
0.00356702
0.00350979
0.00344634
0.0033177
0.00279196
0.00195621
0.00283592
0.0038319
0.00406764
0.00403857
0.0039668
0.00386289
0.0037364
0.00362548
0.00355452
0.00351397
0.00347599
0.00342922
0.00333498
0.0031289
0.00281797
0.00253685
0.00161373
0.00222789
0.00366325
0.004024
0.00398958
0.00384121
0.00369254
0.00357794
0.0034916
0.00343053
0.0033839
0.00333937
0.0032902
0.00323803
0.00319276
0.00316921
0.00318175
0.00324276
0.00335775
0.00340188
0.0028494
0.00178181
0.00277561
0.00409533
0.00427104
0.00412581
0.00403389
0.00391803
0.00374889
0.00357371
0.00344276
0.00337544
0.00334024
0.00326639
0.00310418
0.00281128
0.00240387
0.00196662
0.00128457
0.00235887
0.00416063
0.00441247
0.00427399
0.0041022
0.00391371
0.00372512
0.00354535
0.00336165
0.00314776
0.00292949
0.00272609
0.00255463
0.00243279
0.0023806
0.00241725
0.00255022
0.00276193
0.00293209
0.00253951
0.00157022
0.0025336
0.00382411
0.00387349
0.00369567
0.00363623
0.003589
0.00351259
0.0034304
0.00336729
0.00338669
0.00344244
0.00347325
0.00343244
0.0032873
0.00306676
0.00254251
0.00130571
0.00206698
0.00217064
0.00226019
0.00239182
0.00226471
0.00207252
0.00192424
0.00179114
0.00166839
0.00155542
0.0014534
0.00136538
0.00128567
0.00121165
0.00114248
0.00107861
0.00102152
0.000973678
0.000938184
0.000917807
0.000910168
0.000895544
0.000870826
0.000932263
0.000979227
0.00098222
0.000979328
0.000985507
0.000999418
0.00102279
0.00106027
0.00111612
0.0011846
0.00126593
0.00135408
0.00145193
0.00148432
0.00144325
0.00133392
0.00122526
)
;

boundaryField
{
    floor
    {
        type            nutkWallFunction;
        Cmu             0.09;
        kappa           0.41;
        E               9.8;
        value           nonuniform List<scalar> 
29
(
0.000110792
6.12689e-05
7.53195e-05
7.18255e-05
7.26154e-05
7.51974e-05
7.18234e-05
6.25445e-05
5.41127e-05
4.32849e-05
2.51691e-05
1.88831e-05
2.04924e-05
2.32998e-05
2.40588e-05
2.40216e-05
2.59426e-05
3.43566e-05
4.13909e-05
3.75437e-05
3.75436e-05
5.89092e-05
6.84779e-05
8.83613e-05
0.000110792
6.12688e-05
8.04938e-05
0.000103609
0.000140324
)
;
    }
    ceiling
    {
        type            nutkWallFunction;
        Cmu             0.09;
        kappa           0.41;
        E               9.8;
        value           nonuniform List<scalar> 
43
(
0.000240546
0.000251756
0.000261398
0.000275578
0.000261988
0.000241252
0.000225105
0.000210494
0.000196913
0.000184318
0.000172856
0.000162897
0.000153816
0.000145327
0.000137342
0.000129918
0.000123242
0.000117614
0.000113418
0.000111001
0.000110095
0.000108359
0.000105402
0.000112709
0.000118268
0.000118624
0.000118282
0.000119009
0.000120647
0.000123392
0.000127779
0.000134284
0.000142211
0.000151559
0.000161615
0.000172694
0.000176344
0.000171717
0.000159324
0.000146896
0.000359655
0.000426408
0.000271901
)
;
    }
    sWall
    {
        type            nutkWallFunction;
        Cmu             0.09;
        kappa           0.41;
        E               9.8;
        value           uniform 0.000240611;
    }
    nWall
    {
        type            nutkWallFunction;
        Cmu             0.09;
        kappa           0.41;
        E               9.8;
        value           nonuniform List<scalar> 6(0.000118943 0.000130064 0.000155886 0.000153706 0.000156121 0.000146907);
    }
    sideWalls
    {
        type            empty;
    }
    glass1
    {
        type            nutkWallFunction;
        Cmu             0.09;
        kappa           0.41;
        E               9.8;
        value           nonuniform List<scalar> 9(8.95554e-05 0.000144849 0.000192216 0.000237317 0.000279858 0.000320465 0.000359049 0.000368362 0.000360132);
    }
    glass2
    {
        type            nutkWallFunction;
        Cmu             0.09;
        kappa           0.41;
        E               9.8;
        value           nonuniform List<scalar> 2(0.00020557 0.000190943);
    }
    sun
    {
        type            nutkWallFunction;
        Cmu             0.09;
        kappa           0.41;
        E               9.8;
        value           nonuniform List<scalar> 
14
(
8.95771e-05
9.26237e-05
8.83764e-05
9.17411e-05
9.49835e-05
9.79156e-05
0.000100594
0.00010311
0.000105578
0.00010806
0.000110059
0.000111415
0.000112014
0.000111868
)
;
    }
    heatsource1
    {
        type            nutkWallFunction;
        Cmu             0.09;
        kappa           0.41;
        E               9.8;
        value           nonuniform List<scalar> 3(0.000110055 0.000102058 0.000118934);
    }
    heatsource2
    {
        type            nutkWallFunction;
        Cmu             0.09;
        kappa           0.41;
        E               9.8;
        value           nonuniform List<scalar> 4(0.00011806 7.89898e-05 7.89898e-05 0.000127049);
    }
    Table_master
    {
        type            nutkWallFunction;
        Cmu             0.09;
        kappa           0.41;
        E               9.8;
        value           nonuniform List<scalar> 9(7.56539e-05 5.93992e-05 5.06407e-05 4.54547e-05 4.20081e-05 3.94379e-05 3.72347e-05 3.51941e-05 3.34331e-05);
    }
    Table_slave
    {
        type            nutkWallFunction;
        Cmu             0.09;
        kappa           0.41;
        E               9.8;
        value           nonuniform List<scalar> 9(9.24928e-05 8.78773e-05 8.69633e-05 8.76207e-05 8.89063e-05 8.98934e-05 8.9539e-05 8.67764e-05 8.35e-05);
    }
    inlet
    {
        type            calculated;
        value           uniform 0.000100623;
    }
    outlet
    {
        type            calculated;
        value           nonuniform List<scalar> 2(0.00206698 0.00217064);
    }
}


// ************************************************************************* //
