/*--------------------------------*- C++ -*----------------------------------*\
  =========                 |
  \\      /  F ield         | OpenFOAM: The Open Source CFD Toolbox
   \\    /   O peration     | Website:  https://openfoam.org
    \\  /    A nd           | Version:  6
     \\/     M anipulation  |
\*---------------------------------------------------------------------------*/
FoamFile
{
    version     2.0;
    format      ascii;
    class       surfaceScalarField;
    location    "300";
    object      phi;
}
// * * * * * * * * * * * * * * * * * * * * * * * * * * * * * * * * * * * * * //

dimensions      [1 0 -1 0 0 0 0];

internalField   nonuniform List<scalar> 
852
(
-0.00260487
0.00267291
-0.002895
0.000290191
-0.00328936
0.000394428
-0.00370764
0.000418357
-0.00408811
0.000380535
-0.00440177
0.000313731
-0.00462641
0.000224702
-0.00473955
0.000113211
-0.00471684
-2.2636e-05
-0.00453047
-0.000186308
-0.00415717
-0.000373225
-0.00358461
-0.000572496
-0.00278743
-0.000797108
-0.00165145
-0.00113592
-0.00164846
-0.000585629
0.000590302
-0.000497182
-8.83713e-05
-0.000282708
-0.0002144
4.85367e-05
-0.000331173
0.000528992
-0.000480387
0.000935298
-0.000406238
0.000938458
-3.08676e-06
0.000650417
0.000288129
0.000207669
0.000442927
1.60033e-05
0.000191954
-5.40361e-05
7.01338e-05
-5.88855e-05
4.92427e-06
-3.17713e-06
-5.56237e-05
9.96867e-05
-0.000102777
0.000244105
-0.000144335
0.000410288
-0.000166102
0.000607912
-0.000197537
0.000701453
-9.34521e-05
0.000708383
-0.00190272
0.00475315
-0.0025455
0.000933039
-0.00310406
0.000953054
-0.00357144
0.000885803
-0.00397473
0.000783901
-0.00430663
0.000645696
-0.0045517
0.000469842
-0.00469086
0.000252437
-0.00470329
-1.01373e-05
-0.00457078
-0.000318751
-0.00427586
-0.000668078
-0.00380649
-0.0010418
-0.00316804
-0.0014355
-0.00245723
-0.00184666
-0.00193415
-0.00217147
0.000121339
-0.00205547
0.000121356
-0.0001726
0.000774506
-0.000371628
0.00011073
-0.000348311
-0.000237648
-0.000105541
-0.000573876
0.000280936
-0.000866801
0.000681707
-0.000806948
0.000760882
-8.21918e-05
0.000780945
0.000268148
0.000893553
0.000330448
0.000883611
0.000202029
0.000854891
9.89766e-05
0.000811571
4.83631e-05
0.000758603
-2.54209e-06
0.000719494
-6.35633e-05
0.00069562
-0.000120366
0.000678109
-0.000148504
0.000760189
-0.000279519
0.000680697
-1.38607e-05
0.00140506
-0.0014177
0.00643529
-0.00219792
0.00171332
-0.00279457
0.00154978
-0.00326159
0.00135289
-0.00366732
0.0011897
-0.00401191
0.000990356
-0.00428232
0.000740314
-0.00446056
0.000430748
-0.00452755
5.69144e-05
-0.00446801
-0.000378222
-0.0042767
-0.00085932
-0.00396365
-0.00135478
-0.00356732
-0.00183175
-0.00316452
-0.00224939
-0.00282382
-0.0025121
-0.00238454
-0.00249468
-0.00226312
-0.000428764
0.0012193
-0.0006282
0.000310236
-0.000586708
-0.000279074
-0.000365113
-0.000795407
-2.65303e-05
-0.00120532
0.000528936
-0.00136236
0.000446967
0.000715351
0.00104605
0.00124833
0.00134756
0.00139618
0.0013939
0.00133059
0.00121049
0.000738138
0.000323956
1.26339e-05
0.000446135
-0.000309694
0.00030859
0.00111948
-0.001068
0.0078383
-0.00187726
0.00252265
-0.00238146
0.00205405
-0.00278972
0.00176123
-0.003157
0.00155704
-0.00348182
0.00131524
-0.00375297
0.00101153
-0.00395355
0.000631398
-0.00406313
0.000166555
-0.00406466
-0.000376627
-0.00396449
-0.000959424
-0.00379835
-0.00152085
-0.00362478
-0.00200526
-0.00350796
-0.00236614
-0.00347257
-0.00254743
-0.00349214
-0.00247504
-0.00385645
-0.00189874
-0.00288817
-0.000953545
-0.00164751
-2.12906e-05
-0.00125053
-8.66756e-05
-0.00092967
-0.000599874
-0.000615547
-0.00110947
-0.000332056
-0.00148876
-0.000341949
-0.00135242
0.000364178
-0.000706231
0.000826916
-0.00046284
0.00121366
-0.000386841
0.00156988
-0.000356325
0.00190499
-0.000335209
0.00219892
-0.000294026
0.00239755
-0.00019873
0.0024097
-1.22492e-05
0.00213177
0.000277827
0.00176874
0.000687055
0.00109155
0.00112341
-5.90941e-05
0.0014593
0.00108833
-0.000795398
0.00902782
-0.00157854
0.00330586
-0.00187821
0.00235378
-0.00217564
0.00205872
-0.00245793
0.0018394
-0.00271238
0.00156975
-0.00293131
0.00123053
-0.00310313
0.000803288
-0.00320933
0.00027282
-0.00322462
-0.000361273
-0.00315886
-0.00102512
-0.00306531
-0.00161434
-0.00299967
-0.00207083
-0.00299774
-0.002368
-0.0030636
-0.00248151
-0.00317975
-0.00235883
-0.00316955
-0.00190887
-0.00284591
-0.00127712
-0.00209726
-0.000769881
-0.00145262
-0.000731248
-0.00101689
-0.00103554
-0.000670825
-0.00145548
-0.000341178
-0.00181835
-0.000112531
-0.00158101
0.000252675
-0.00107139
0.000594424
-0.000804536
0.000903999
-0.000696361
0.00120476
-0.00065703
0.00150314
-0.000633535
0.00178898
-0.00057981
0.00203201
-0.000441713
0.00218002
-0.000160205
0.00218441
0.000273491
0.00207485
0.000796675
0.00188368
0.00131464
0.0015848
0.00175824
0.00102137
0.0016518
-0.000406898
0.00142813
-0.00115792
0.000750866
-0.00109924
-0.000715363
0.0101881
-0.00141062
0.00400118
-0.00132081
0.00226403
-0.001432
0.00216998
-0.00160991
0.00201738
-0.00176109
0.00172099
-0.00187683
0.00134634
-0.00195983
0.000886356
-0.00200347
0.000316527
-0.0019802
-0.000384485
-0.00191155
-0.0010937
-0.00185838
-0.00166744
-0.0018603
-0.00206885
-0.0019299
-0.00229834
-0.00205411
-0.00235724
-0.00218406
-0.00222881
-0.00218675
-0.00190612
-0.00197576
-0.00148805
-0.00156751
-0.00117807
-0.00116751
-0.00113119
-0.000868246
-0.00133474
-0.000607497
-0.00171617
-0.000296153
-0.00212964
-0.000100267
-0.00177685
9.52106e-05
-0.00126681
0.000303499
-0.00101277
0.000516273
-0.00090908
0.00073817
-0.000878873
0.000975975
-0.000871286
0.00123264
-0.000836426
0.0015036
-0.000712617
0.00176968
-0.000426232
0.00197264
7.05752e-05
0.00210628
0.000663091
0.00223862
0.00118236
0.00242174
0.00157518
0.00254279
0.00153079
0.00267467
0.0012963
0.00223447
0.00119111
0.00120319
-0.000966393
0.0116444
-0.00115004
0.00418488
-0.000468004
0.00158207
-0.000372689
0.00207473
-0.000511211
0.00215597
-0.000603052
0.00181289
-0.000606472
0.00134982
-0.000555612
0.00083556
-0.000458537
0.000219514
-0.000352632
-0.000490328
-0.000284245
-0.00116202
-0.0002922
-0.00165942
-0.000385202
-0.00197578
-0.00055052
-0.00213296
-0.000757163
-0.00215053
-0.000948225
-0.00203769
-0.00104354
-0.00181074
-0.000997545
-0.00153399
-0.000848222
-0.00132734
-0.000693425
-0.00128593
-0.00058758
-0.00144053
-0.0004726
-0.00183109
-0.000235115
-0.00236706
-0.000141472
-0.00187045
-9.43075e-05
-0.00131393
-2.99356e-05
-0.00107709
5.33788e-05
-0.00099234
0.000153584
-0.000979023
0.000277199
-0.000994848
0.000437262
-0.000996437
0.000651873
-0.000927177
0.00093878
-0.000713089
0.00128104
-0.000271641
0.00162651
0.000317678
0.00197334
0.000835571
0.00240332
0.00114524
0.00285317
0.00108099
0.00330527
0.000844256
0.00314693
0.0013495
0.0044195
0.0020605
0.0101297
0.00248302
0.00376242
0.00229748
0.00176768
0.00197374
0.00239853
0.00158854
0.00254123
0.0013589
0.0020426
0.00131992
0.00138887
0.00140047
0.000755075
0.00157382
4.62222e-05
0.00171651
-0.000632954
0.00170411
-0.00114957
0.00155464
-0.00150989
0.0013083
-0.00172938
0.00100081
-0.0018254
0.00066729
-0.00181696
0.000352784
-0.00172313
0.000109136
-0.00156703
-3.473e-05
-0.00139006
-0.000105162
-0.00125685
-0.000164901
-0.00122614
-0.00025352
-0.00135186
-0.000306112
-0.00177844
-0.00015345
-0.00251967
-0.000181951
-0.0018419
-0.00029012
-0.00120571
-0.000384619
-0.000982535
-0.000458203
-0.000918702
-0.00052354
-0.000913633
-0.000582096
-0.00093624
-0.000623035
-0.000955446
-0.000619994
-0.000930168
-0.000519486
-0.000813548
-0.00023143
-0.000559649
0.000185847
-9.95548e-05
0.000591522
0.000429944
0.000956314
0.000780501
0.00121483
0.000822529
0.00138795
0.000671185
0.000777896
0.00195961
0.00553372
0.0107347
0.0144948
0.0118818
0.00438076
0.00967864
0.00460177
0.00789858
0.00432135
0.00666613
0.00327511
0.00586882
0.00218623
0.00538023
0.00124373
0.00496101
0.000465508
0.00449612
-0.000168002
0.00400617
-0.000659555
0.00350231
-0.00100597
0.00299154
-0.00121855
0.00248468
-0.00131849
0.00199773
-0.00132995
0.00155136
-0.0012767
0.00116747
-0.00118309
0.000856067
-0.0010786
0.000597955
-0.000998684
0.000347159
-0.000975289
6.71331e-05
-0.00107178
-0.000150917
-0.00156034
-3.74364e-05
-0.0026331
-0.000184224
-0.00169507
-0.000483035
-0.000906844
-0.000741933
-0.000723582
-0.000966877
-0.000693703
-0.00121022
-0.000670238
-0.0014974
-0.000649011
-0.00184056
-0.000612228
-0.00225053
-0.000520153
-0.00273653
-0.0003275
-0.00330972
1.35915e-05
-0.00392829
0.00051907
-0.00467251
0.00117422
-0.00576662
0.00187467
-0.00737373
0.00242969
-0.00924954
0.00254705
-0.00864639
0.00135652
-0.00273784
0.00516514
0.00517542
0.00478392
0.00498302
0.00553115
0.00357417
0.00585992
0.00294639
0.00590572
0.00214049
0.00584823
0.00130127
0.00570293
0.000610869
0.00543182
0.000103165
0.00502488
-0.000252555
0.00452728
-0.000508324
0.00398361
-0.00067482
0.00343083
-0.000765644
0.00289714
-0.000796207
0.00240227
-0.000781777
0.0019573
-0.000738064
0.00156219
-0.000683443
0.00120222
-0.000638657
0.000835207
-0.000608226
0.000386785
-0.000623305
2.38362e-05
-0.00119734
4.5911e-05
-0.00265512
-0.000223063
-0.00142606
-0.00072691
-0.000402945
-0.00106984
-0.000380595
-0.00132991
-0.000433581
-0.00162352
-0.000376577
-0.00197097
-0.000301503
-0.00235652
-0.00022663
-0.00274745
-0.000129164
-0.00309213
1.72265e-05
-0.00337389
0.000295405
-0.00360871
0.000753937
-0.00381303
0.00137859
-0.00397944
0.00204113
-0.00404592
0.00249622
-0.00380763
0.00230882
-0.00230746
-0.000143595
-0.00494971
-0.000725377
0.00594475
0.00145484
0.00280284
0.00271512
0.00231393
0.0036584
0.00200316
0.00440423
0.00139471
0.00485094
0.000854613
0.00501755
0.000444311
0.00496245
0.000158309
0.00475584
-4.58873e-05
0.00444246
-0.000194892
0.00405926
-0.000291568
0.00364058
-0.000346913
0.00321342
-0.00036899
0.00279797
-0.000366276
0.00240795
-0.000347994
0.00204938
-0.000324821
0.00171804
-0.000307264
0.00139107
-0.000281207
0.00100478
-0.000236959
0.000497975
-0.000690486
-0.000226792
-0.0019303
-0.000787696
-0.000865108
-0.00117023
-2.0361e-05
-0.00141994
-0.00013082
-0.00160881
-0.000244661
-0.00178336
-0.000201976
-0.00195106
-0.000133742
-0.00210989
-6.77542e-05
-0.00225344
1.44432e-05
-0.00235725
0.000121084
-0.00234267
0.000280876
-0.0021583
0.00056962
-0.00178934
0.00100968
-0.00124486
0.0014967
-0.000259552
0.00151096
0.00122384
0.000825481
0.00163953
-0.000559236
-0.00320539
-0.00905354
-0.0115887
-0.00560474
-0.00277704
-0.000442571
0.00157862
0.00299101
0.00386357
0.0043264
0.00450403
0.00447835
0.00430452
0.00403489
0.0037108
0.00336557
0.003024
0.00270164
0.00240329
0.00212314
0.00186942
0.00166007
0.000997479
-0.000904518
-0.00174281
-0.00173733
-0.00184246
-0.00206148
-0.00223801
-0.00234663
-0.00238973
-0.00235132
-0.00220719
-0.0019043
-0.00131378
-0.000284288
0.00123104
0.00276012
0.003604
0.00306426
)
;

boundaryField
{
    floor
    {
        type            calculated;
        value           nonuniform List<scalar> 
29
(
0
0
0
0
0
0
0
0
0
0
0
0
0
0
0
0
0
0
0
0
-6.84037e-06
-1.58861e-05
-2.40252e-05
-2.7903e-05
-2.91768e-06
-4.59472e-06
-1.15279e-05
-1.59572e-05
-1.46639e-05
)
;
    }
    ceiling
    {
        type            calculated;
        value           nonuniform List<scalar> 
43
(
-4.16372e-05
-4.04121e-05
-3.91336e-05
-2.48122e-05
-2.04976e-05
-1.79906e-05
-1.76368e-05
-1.78888e-05
-1.84751e-05
-1.92684e-05
-2.01581e-05
-2.10129e-05
-2.18793e-05
-2.27767e-05
-2.37079e-05
-2.4657e-05
-2.55836e-05
-2.64186e-05
-2.7067e-05
-2.74356e-05
-2.75545e-05
-2.7843e-05
-2.82411e-05
-2.67623e-05
-2.57884e-05
-2.5633e-05
-2.55864e-05
-2.53919e-05
-2.50722e-05
-2.4602e-05
-2.39206e-05
-2.29944e-05
-2.19586e-05
-2.08481e-05
-1.97596e-05
-1.85732e-05
-1.80749e-05
-1.834e-05
-1.94471e-05
-2.01203e-05
4.78133e-06
2.34375e-06
-4.39411e-05
)
;
    }
    sWall
    {
        type            calculated;
        value           uniform -0.000245785;
    }
    nWall
    {
        type            calculated;
        value           nonuniform List<scalar> 6(-5.8848e-05 -6.79036e-05 -6.93308e-05 -9.55299e-05 -0.000104743 -0.000120956);
    }
    sideWalls
    {
        type            empty;
        value           nonuniform 0();
    }
    glass1
    {
        type            calculated;
        value           nonuniform List<scalar> 9(-6.797e-05 -0.000177455 -0.000264375 -0.000334956 -0.000394056 -0.000444849 -0.000489889 -0.000545693 -0.000609743);
    }
    glass2
    {
        type            calculated;
        value           nonuniform List<scalar> 2(-0.000336277 -0.000374781);
    }
    sun
    {
        type            calculated;
        value           uniform 0;
    }
    heatsource1
    {
        type            calculated;
        value           nonuniform List<scalar> 3(2.06327e-07 2.06296e-07 2.06303e-07);
    }
    heatsource2
    {
        type            calculated;
        value           nonuniform List<scalar> 4(5.14196e-08 5.16799e-08 0 0);
    }
    Table_master
    {
        type            calculated;
        value           nonuniform List<scalar> 9(-1.54856e-07 -1.54889e-07 -1.54838e-07 -1.54821e-07 -1.54827e-07 -1.54843e-07 -1.54872e-07 -1.54903e-07 -1.54953e-07);
    }
    Table_slave
    {
        type            calculated;
        value           nonuniform List<scalar> 9(1.54719e-07 1.54715e-07 1.54593e-07 1.54477e-07 1.54366e-07 1.54271e-07 1.5421e-07 1.54216e-07 1.54232e-07);
    }
    inlet
    {
        type            calculated;
        value           uniform -0.00595979;
    }
    outlet
    {
        type            calculated;
        value           nonuniform List<scalar> 2(0.00934099 0.00257555);
    }
}


// ************************************************************************* //
