// -*- C++ -*-
// File generated by PyFoam - sorry for the ugliness

FoamFile
{
 version 2.0;
 format ascii;
 class volVectorField;
 location "150";
 object U;
}

dimensions [ 0 1 -1 0 0 0 0 ];

internalField nonuniform List<vector> 459
(
  (-0.0941887 -0.103168 0)
  (0.147633 -0.0529252 0)
  (0.194918 -0.0451119 0)
  (0.222505 -0.0336133 0)
  (0.24636 -0.0219128 0)
  (0.259176 -0.0137098 0)
  (0.261543 -0.00827902 0)
  (0.257105 -0.00416089 0)
  (0.248762 -0.000701315 0)
  (0.237202 0.00250712 0)
  (0.222059 0.00594397 0)
  (0.20223 0.010358 0)
  (0.175317 0.0173253 0)
  (0.133684 0.0321945 0)
  (0.116321 0.0733725 0)
  (-0.129665 0.00517176 0)
  (0.0213967 0.00784916 0)
  (-0.0131207 -0.0151162 0)
  (0.0188936 -0.0265061 0)
  (0.0393087 -0.020131 0)
  (0.057433 -0.0134692 0)
  (0.0695644 -0.00821836 0)
  (0.0763009 -0.00541198 0)
  (0.0796799 -0.00413026 0)
  (0.081571 -0.00341774 0)
  (0.0827823 -0.00288354 0)
  (0.0834237 -0.00239808 0)
  (0.0833288 -0.00180243 0)
  (0.0820612 -0.00079718 0)
  (0.0786372 0.001219 0)
  (0.0710777 0.00525474 0)
  (0.0591295 0.0109322 0)
  (-0.00452861 0.0239691 0)
  (0.132459 0.00271616 0)
  (-0.240044 -0.141829 0)
  (0.155629 -0.0763896 0)
  (0.147211 -0.0751718 0)
  (0.171694 -0.0478754 0)
  (0.193147 -0.0223507 0)
  (0.202203 -0.00578684 0)
  (0.202397 0.00448992 0)
  (0.197632 0.0113984 0)
  (0.190332 0.0165841 0)
  (0.181095 0.021125 0)
  (0.169925 0.0261178 0)
  (0.156683 0.0328416 0)
  (0.141749 0.043064 0)
  (0.125379 0.0599079 0)
  (0.124809 0.0924758 0)
  (0.114905 0.0823114 0)
  (0.0711871 0.0710584 0)
  (-0.175705 0.00944615 0)
  (0.041388 0.00504009 0)
  (0.0316376 -0.0301208 0)
  (0.0459591 -0.0374053 0)
  (0.0604561 -0.0295532 0)
  (0.0712617 -0.018634 0)
  (0.0759936 -0.00859812 0)
  (0.0772681 -0.00300285 0)
  (0.0775425 -0.000630434 0)
  (0.0779152 0.000523181 0)
  (0.0783442 0.00131859 0)
  (0.07865 0.00208261 0)
  (0.078754 0.00313591 0)
  (0.0785097 0.005058 0)
  (0.0772008 0.00922503 0)
  (0.0713129 0.0196286 0)
  (0.0617607 0.0295356 0)
  (-0.00437988 0.0438715 0)
  (0.197241 0.0271946 0)
  (-0.342766 -0.183381 0)
  (0.171182 -0.133608 0)
  (0.0861398 -0.122573 0)
  (0.114829 -0.0722815 0)
  (0.130813 -0.0349446 0)
  (0.132961 -0.0123903 0)
  (0.129396 0.00190115 0)
  (0.125043 0.0119514 0)
  (0.120831 0.0194825 0)
  (0.116619 0.0259742 0)
  (0.112218 0.032862 0)
  (0.107633 0.0414935 0)
  (0.103352 0.0531591 0)
  (0.098931 0.0688513 0)
  (0.0997363 0.0900258 0)
  (0.0895509 0.086345 0)
  (0.0683668 0.106755 0)
  (-0.225106 0.00373212 0)
  (0.0867314 -0.0486209 0)
  (0.0726951 -0.0564455 0)
  (0.076916 -0.051853 0)
  (0.0833708 -0.0396988 0)
  (0.0874143 -0.0266221 0)
  (0.0838847 -0.0207212 0)
  (0.0759693 -0.0141021 0)
  (0.0702421 -0.0103383 0)
  (0.0673838 -0.00806671 0)
  (0.0659504 -0.00653739 0)
  (0.0651812 -0.0053908 0)
  (0.0652031 -0.00422673 0)
  (0.0669683 -0.00235271 0)
  (0.0727187 0.00283316 0)
  (0.0709798 0.0259181 0)
  (0.0632086 0.04189 0)
  (-0.00776215 0.0591108 0)
  (0.235267 0.0582797 0)
  (-0.412235 -0.20068 0)
  (0.172832 -0.171425 0)
  (0.0116018 -0.150646 0)
  (0.0575388 -0.0781474 0)
  (0.0641763 -0.0325613 0)
  (0.0586402 -0.00721876 0)
  (0.0538442 0.00754961 0)
  (0.0533278 0.0164055 0)
  (0.0545624 0.0225733 0)
  (0.0565362 0.0281832 0)
  (0.0589242 0.0345866 0)
  (0.0617536 0.0427427 0)
  (0.0654141 0.0533527 0)
  (0.0697989 0.0667938 0)
  (0.0793569 0.0843181 0)
  (0.0918503 0.0937718 0)
  (0.107597 0.11602 0)
  (0.138554 0.000312435 0)
  (0.121553 -0.0170019 0)
  (0.124098 -0.0470235 0)
  (0.111802 -0.056095 0)
  (0.102958 -0.0508961 0)
  (0.0981478 -0.039042 0)
  (0.0951586 -0.0238764 0)
  (0.0968513 -0.0134923 0)
  (0.10056 -0.00798553 0)
  (0.100033 -0.00438112 0)
  (0.0954936 -0.00184781 0)
  (0.0885261 0.00013978 0)
  (0.0798962 0.00186586 0)
  (0.0695794 0.00357802 0)
  (0.0569649 0.00565531 0)
  (0.0344737 0.00907692 0)
  (0.0347128 0.0369423 0)
  (0.0462814 0.050519 0)
  (-0.0156601 0.0651678 0)
  (0.260202 0.0981819 0)
  (-0.435771 -0.194867 0)
  (0.133925 -0.182953 0)
  (-0.052743 -0.168011 0)
  (0.00970024 -0.0770879 0)
  (0.00595376 -0.0247876 0)
  (-0.00165203 -0.00116672 0)
  (-0.00289542 0.00886156 0)
  (-2.5207e-05 0.0143042 0)
  (0.00448237 0.0188494 0)
  (0.00997953 0.0237408 0)
  (0.0163572 0.029609 0)
  (0.023749 0.0369487 0)
  (0.032718 0.0460462 0)
  (0.0436146 0.0571235 0)
  (0.0599347 0.0707378 0)
  (0.0807707 0.0788606 0)
  (0.106276 0.0811426 0)
  (0.129988 0.023581 0)
  (0.134689 -0.00861893 0)
  (0.126374 -0.0347833 0)
  (0.112758 -0.043917 0)
  (0.0992702 -0.0405208 0)
  (0.0882273 -0.030834 0)
  (0.0798778 -0.018441 0)
  (0.0746102 -0.00557772 0)
  (0.0701477 0.00287165 0)
  (0.0647541 0.00763264 0)
  (0.0581521 0.0105405 0)
  (0.0509204 0.0127345 0)
  (0.0432504 0.0147819 0)
  (0.0350602 0.0170658 0)
  (0.0266348 0.019977 0)
  (0.0150665 0.0236095 0)
  (0.0135299 0.0351211 0)
  (0.0353634 0.0437733 0)
  (0.00125105 0.0492851 0)
  (0.141314 0.0935991 0)
  (0.109493 0.0829103 0)
  (-0.118585 0.0738889 0)
  (0.404363 -0.0129633 0)
  (-0.449257 -0.169929 0)
  (0.0798539 -0.173634 0)
  (-0.0837622 -0.175811 0)
  (-0.0332285 -0.0835571 0)
  (-0.0339479 -0.0251011 0)
  (-0.0362771 -0.00300501 0)
  (-0.0354281 0.00515054 0)
  (-0.0324717 0.00916826 0)
  (-0.0279227 0.0125782 0)
  (-0.0219299 0.0164357 0)
  (-0.0145239 0.0210601 0)
  (-0.00562378 0.0267042 0)
  (0.00613632 0.0339531 0)
  (0.0197433 0.0419123 0)
  (0.0377671 0.0500832 0)
  (0.0591678 0.0524682 0)
  (0.0848317 0.0452721 0)
  (0.102632 0.0134783 0)
  (0.105622 -0.0125446 0)
  (0.0981265 -0.0275104 0)
  (0.0854971 -0.0317451 0)
  (0.071504 -0.0278817 0)
  (0.058677 -0.0195228 0)
  (0.0480792 -0.00916826 0)
  (0.0394095 0.00139342 0)
  (0.0331291 0.00864214 0)
  (0.0278074 0.0128779 0)
  (0.0224892 0.0157173 0)
  (0.0170605 0.0181752 0)
  (0.0114978 0.0207304 0)
  (0.00596238 0.0236218 0)
  (0.00131731 0.0267973 0)
  (-0.00356757 0.0285658 0)
  (-0.00265007 0.0275864 0)
  (0.0158973 0.026744 0)
  (-0.00664094 0.0156932 0)
  (0.0524002 0.0562347 0)
  (0.056011 0.0698466 0)
  (-0.145756 0.0782505 0)
  (0.384337 -0.0371859 0)
  (-0.473732 -0.134383 0)
  (0.0395374 -0.151258 0)
  (-0.108346 -0.189907 0)
  (-0.0609335 -0.096319 0)
  (-0.0564374 -0.0297844 0)
  (-0.0544053 -0.00549183 0)
  (-0.0525274 0.00224 0)
  (-0.0499777 0.00508707 0)
  (-0.0461681 0.00707961 0)
  (-0.0408953 0.00940818 0)
  (-0.0340926 0.0123254 0)
  (-0.0256685 0.0158574 0)
  (-0.0151255 0.02012 0)
  (-0.00206271 0.0249372 0)
  (0.0148244 0.0291642 0)
  (0.0332767 0.0288236 0)
  (0.0527774 0.0217597 0)
  (0.0636499 0.00481805 0)
  (0.0640915 -0.00943325 0)
  (0.056703 -0.0172802 0)
  (0.044833 -0.0186546 0)
  (0.03168 -0.0147346 0)
  (0.0194798 -0.00765572 0)
  (0.00880702 0.00079931 0)
  (0.00148527 0.00846241 0)
  (-0.00286745 0.013739 0)
  (-0.00621401 0.0171547 0)
  (-0.00934657 0.0198666 0)
  (-0.0124087 0.0224025 0)
  (-0.0152589 0.0249042 0)
  (-0.0173881 0.027175 0)
  (-0.0179136 0.0284195 0)
  (-0.0170743 0.026585 0)
  (-0.0135487 0.0203669 0)
  (-0.00524803 0.0154068 0)
  (-0.0171543 0.00943504 0)
  (0.0107717 0.0442144 0)
  (0.0403117 0.0864668 0)
  (-0.195247 0.0990264 0)
  (0.467508 -0.046448 0)
  (-0.512364 -0.0826779 0)
  (0.020937 -0.113525 0)
  (-0.122903 -0.219499 0)
  (-0.0743016 -0.120359 0)
  (-0.0669084 -0.0373509 0)
  (-0.0627552 -0.00807286 0)
  (-0.0612681 0.000261005 0)
  (-0.0597016 0.00224559 0)
  (-0.0569924 0.00291475 0)
  (-0.0529675 0.00376244 0)
  (-0.0476218 0.0051134 0)
  (-0.0409504 0.00693166 0)
  (-0.0328267 0.00913164 0)
  (-0.0230699 0.0114692 0)
  (-0.0113357 0.0134735 0)
  (0.00170035 0.0134683 0)
  (0.0133589 0.0100134 0)
  (0.0180894 0.00247873 0)
  (0.0164021 -0.00415515 0)
  (0.00928172 -0.0074252 0)
  (-0.00125535 -0.00657283 0)
  (-0.0123701 -0.00243471 0)
  (-0.021903 0.00299368 0)
  (-0.0281775 0.00819138 0)
  (-0.0317206 0.0127032 0)
  (-0.0336029 0.0163465 0)
  (-0.0347309 0.0193314 0)
  (-0.0354844 0.0219316 0)
  (-0.0358471 0.0242135 0)
  (-0.0355396 0.0260257 0)
  (-0.0340474 0.026934 0)
  (-0.0308432 0.0261175 0)
  (-0.0261557 0.0224493 0)
  (-0.0203041 0.0163618 0)
  (-0.0135701 0.0120489 0)
  (-0.0117141 0.0108973 0)
  (0.00734976 0.0348576 0)
  (0.0569528 0.0864069 0)
  (-0.162238 0.0869168 0)
  (0.797638 0.0117742 0)
  (-0.59198 0.198572 0)
  (0.0176573 -0.0714696 0)
  (-0.115218 -0.251378 0)
  (-0.0580381 -0.135685 0)
  (-0.0612486 -0.0324434 0)
  (-0.0651202 -0.00309565 0)
  (-0.0676641 0.00354125 0)
  (-0.0678877 0.00400458 0)
  (-0.0666773 0.00344776 0)
  (-0.064443 0.0031773 0)
  (-0.0613044 0.00342757 0)
  (-0.0573867 0.00413882 0)
  (-0.0527889 0.00520719 0)
  (-0.0474969 0.00646928 0)
  (-0.0415673 0.0077375 0)
  (-0.0355995 0.00850611 0)
  (-0.0310463 0.00815815 0)
  (-0.0302389 0.00623578 0)
  (-0.0332397 0.00439043 0)
  (-0.0387267 0.00401806 0)
  (-0.0454439 0.00547989 0)
  (-0.0512601 0.00794375 0)
  (-0.0552758 0.0107114 0)
  (-0.057496 0.0135648 0)
  (-0.0581717 0.016426 0)
  (-0.0577154 0.0191482 0)
  (-0.0564933 0.0216366 0)
  (-0.0546605 0.0238057 0)
  (-0.0521833 0.0254853 0)
  (-0.0489086 0.0263824 0)
  (-0.0446291 0.0260488 0)
  (-0.0392555 0.023916 0)
  (-0.0331026 0.0195798 0)
  (-0.0265794 0.0137363 0)
  (-0.0196067 0.00842751 0)
  (-0.0122057 0.00565978 0)
  (0.00701792 0.018193 0)
  (0.0523765 0.0579463 0)
  (-0.124276 0.0502856 0)
  (0.782745 0.0526869 0)
  (-0.0497612 -0.184242 0)
  (-0.0112661 -0.111737 0)
  (-0.0520447 -0.00619084 0)
  (-0.0730482 0.0116143 0)
  (-0.0771823 0.0128528 0)
  (-0.0774299 0.0112034 0)
  (-0.0771855 0.00957445 0)
  (-0.076826 0.00846109 0)
  (-0.0763107 0.00827703 0)
  (-0.0755774 0.00880968 0)
  (-0.0745386 0.00980139 0)
  (-0.0732752 0.0108984 0)
  (-0.0718574 0.0121649 0)
  (-0.0704891 0.0135211 0)
  (-0.0696678 0.0146436 0)
  (-0.0701267 0.0152197 0)
  (-0.071918 0.0156274 0)
  (-0.0743735 0.0164117 0)
  (-0.0766531 0.0177125 0)
  (-0.0780755 0.0192388 0)
  (-0.0784138 0.0207849 0)
  (-0.0776763 0.0222886 0)
  (-0.0759319 0.0237129 0)
  (-0.0732893 0.0249457 0)
  (-0.0698657 0.0258467 0)
  (-0.0657486 0.0262717 0)
  (-0.0610042 0.0260489 0)
  (-0.0557114 0.0249533 0)
  (-0.0500121 0.0226913 0)
  (-0.0442081 0.0189408 0)
  (-0.038874 0.0135249 0)
  (-0.0347428 0.00669083 0)
  (-0.0322777 -0.00119206 0)
  (-0.0298092 -0.00520125 0)
  (-0.021675 0.00536028 0)
  (-0.013171 0.0306612 0)
  (-0.170746 0.0260407 0)
  (0.470152 0.0818829 0)
  (-0.236762 -0.172719 0)
  (-0.0851091 -0.110112 0)
  (-0.0973161 -0.104668 0)
  (-0.0931714 -0.10611 0)
  (-0.0887583 -0.106765 0)
  (-0.0867414 -0.107543 0)
  (-0.0865111 -0.108304 0)
  (-0.0873739 -0.108611 0)
  (-0.0888628 -0.108665 0)
  (-0.0905105 -0.108357 0)
  (-0.0919931 -0.107501 0)
  (-0.0931146 -0.105841 0)
  (-0.09378 -0.103623 0)
  (-0.0939324 -0.101351 0)
  (-0.0936939 -0.0996519 0)
  (-0.0933904 -0.0990338 0)
  (-0.0932332 -0.0993633 0)
  (-0.093144 -0.100093 0)
  (-0.0928686 -0.10075 0)
  (-0.0921633 -0.101121 0)
  (-0.0908845 -0.101056 0)
  (-0.0889375 -0.100451 0)
  (-0.086244 -0.0992971 0)
  (-0.0827557 -0.0976962 0)
  (-0.0784692 -0.0958165 0)
  (-0.0734311 -0.0938702 0)
  (-0.0677489 -0.0921434 0)
  (-0.0616182 -0.0910375 0)
  (-0.0553756 -0.0910802 0)
  (-0.0495957 -0.0928441 0)
  (-0.045208 -0.0966731 0)
  (-0.0433931 -0.102093 0)
  (-0.044885 -0.106644 0)
  (-0.0478965 -0.106906 0)
  (-0.0498205 -0.0963436 0)
  (-0.0638279 -0.0679427 0)
  (-0.135978 -0.0529549 0)
  (0.368315 -0.0171959 0)
  (-0.468709 -0.0898686 0)
  (-0.012801 0.0769725 0)
  (-0.0405494 0.498804 0)
  (-0.0624848 0.364646 0)
  (-0.0785183 0.360516 0)
  (-0.0853164 0.365683 0)
  (-0.0889072 0.364748 0)
  (-0.0920884 0.363136 0)
  (-0.095444 0.361927 0)
  (-0.0988706 0.360734 0)
  (-0.102217 0.359749 0)
  (-0.105354 0.35881 0)
  (-0.108128 0.357721 0)
  (-0.110313 0.356252 0)
  (-0.11166 0.354732 0)
  (-0.11201 0.353668 0)
  (-0.111383 0.353566 0)
  (-0.110011 0.354709 0)
  (-0.108166 0.3569 0)
  (-0.105992 0.359676 0)
  (-0.103503 0.36261 0)
  (-0.100658 0.365432 0)
  (-0.0974034 0.367951 0)
  (-0.0936651 0.370052 0)
  (-0.0893656 0.371692 0)
  (-0.0844665 0.372876 0)
  (-0.0790024 0.373607 0)
  (-0.0730979 0.37388 0)
  (-0.0669808 0.373707 0)
  (-0.0609916 0.373172 0)
  (-0.0555988 0.372486 0)
  (-0.0514544 0.372038 0)
  (-0.0494293 0.372361 0)
  (-0.0500522 0.373656 0)
  (-0.0516658 0.373734 0)
  (-0.0512038 0.370065 0)
  (-0.0552508 0.360578 0)
  (-0.0913928 0.342038 0)
  (-0.164862 0.342536 0)
  (0.477495 0.383134 0)
)
;

boundaryField
{
  floor
  {
    type noSlip;
  }
  ceiling
  {
    type noSlip;
  }
  sWall
  {
    type noSlip;
  }
  nWall
  {
    type noSlip;
  }
  sideWalls
  {
    type empty;
  }
  glass1
  {
    type noSlip;
  }
  glass2
  {
    type noSlip;
  }
  sun
  {
    type noSlip;
  }
  heatsource1
  {
    type noSlip;
  }
  heatsource2
  {
    type noSlip;
  }
  Table_master
  {
    type noSlip;
  }
  Table_slave
  {
    type noSlip;
  }
  inlet
  {
    type fixedValue;
    value uniform (0.277164 -0.114805 0);
  }
  outlet
  {
    type zeroGradient;
  }
} 	// ************************************************************************* //

