/*--------------------------------*- C++ -*----------------------------------*\
  =========                 |
  \\      /  F ield         | OpenFOAM: The Open Source CFD Toolbox
   \\    /   O peration     | Website:  https://openfoam.org
    \\  /    A nd           | Version:  6
     \\/     M anipulation  |
\*---------------------------------------------------------------------------*/
FoamFile
{
    version     2.0;
    format      ascii;
    class       volScalarField;
    location    "660";
    object      nut;
}
// * * * * * * * * * * * * * * * * * * * * * * * * * * * * * * * * * * * * * //

dimensions      [0 2 -1 0 0 0 0];

internalField   nonuniform List<scalar> 
459
(
0.000841554
0.00091843
0.000940934
0.000987264
0.00102989
0.00107009
0.00111006
0.00115138
0.00118594
0.00120946
0.00121634
0.0012006
0.00115522
0.00106578
0.000858713
0.000505005
0.000701722
0.000679618
0.000658216
0.000637273
0.000613259
0.000580223
0.000545895
0.000514068
0.000485354
0.0004597
0.000436732
0.000415903
0.000396642
0.000378241
0.000359644
0.000339686
0.000308043
0.000294143
0.00113157
0.00258854
0.00239862
0.00275248
0.00311584
0.00349585
0.00384716
0.0041178
0.00440256
0.00468481
0.00493455
0.00511496
0.00517461
0.00501717
0.00421738
0.000956287
0.000650256
0.000721287
0.00204428
0.00196721
0.00212538
0.00224253
0.00219957
0.0017097
0.00146942
0.00130345
0.00117741
0.00107586
0.000987022
0.000906612
0.000829971
0.00075539
0.000692081
0.000672214
0.000574918
0.000374643
0.00137607
0.00347358
0.00292784
0.00356364
0.0038528
0.00406489
0.00423141
0.00437734
0.00459109
0.00487433
0.00521292
0.00557452
0.00589604
0.00608003
0.00579903
0.00440026
0.00097938
0.000888561
0.00163752
0.00222064
0.00265821
0.00292372
0.00275196
0.000791503
0.000699594
0.000626009
0.000567066
0.00051944
0.000480706
0.000449051
0.000423465
0.000404039
0.000454763
0.000569277
0.000634286
0.000411155
0.00161175
0.0043694
0.00285545
0.00369925
0.00384916
0.00383444
0.00381198
0.00386299
0.0040255
0.00430526
0.00470067
0.00518372
0.00567174
0.00608261
0.00620187
0.00574983
0.00368651
0.00117441
0.00164881
0.00227865
0.00293585
0.00346117
0.0037572
0.00344401
0.000873281
0.000802016
0.000756062
0.000724959
0.000701268
0.000678965
0.000653476
0.000626946
0.000595069
0.000567485
0.000590778
0.000720473
0.000465286
0.00185304
0.00555843
0.00292177
0.00350935
0.00368809
0.00353715
0.00340159
0.00342621
0.00358142
0.00386284
0.0042881
0.0048322
0.00536406
0.00576797
0.00598601
0.00595209
0.00553182
0.00480205
0.00470245
0.00479551
0.00490736
0.00496583
0.00493486
0.00471775
0.00397946
0.00367707
0.00353761
0.0034562
0.00338246
0.0032817
0.00310448
0.00276559
0.00230016
0.00177575
0.0013375
0.00115527
0.000798746
0.000539802
0.000539627
0.000532208
0.00211083
0.00692401
0.0038283
0.00320567
0.0035005
0.00343217
0.00326263
0.00325757
0.00340816
0.00368702
0.00412786
0.00468119
0.00521534
0.00559903
0.00578615
0.00583093
0.0058241
0.00583457
0.00590218
0.00591689
0.00584179
0.00568561
0.00547261
0.00522106
0.00493896
0.00474985
0.00462961
0.00454286
0.00446313
0.00436257
0.00420741
0.00393388
0.00351451
0.00296519
0.00237652
0.00192743
0.00148692
0.00115297
0.00126828
0.000697451
0.00237003
0.00801899
0.00570234
0.00368118
0.00328487
0.00336872
0.0033664
0.00335911
0.00344083
0.00369484
0.0041497
0.00473669
0.00529837
0.00568194
0.00584683
0.00590136
0.00600304
0.00617079
0.0062621
0.00619114
0.00598654
0.00570614
0.005407
0.00513801
0.00493353
0.00480476
0.0047232
0.00466558
0.00461473
0.00454528
0.00442878
0.00425608
0.00400209
0.00361732
0.00314005
0.00266829
0.00219128
0.00176664
0.00165592
0.000833566
0.00244372
0.00778597
0.00639686
0.00519318
0.00438608
0.00408003
0.00377852
0.00355508
0.00355701
0.00383118
0.0043501
0.00500085
0.00559463
0.00597177
0.00611355
0.00615431
0.0062011
0.00622511
0.00612757
0.00591057
0.00563086
0.00534176
0.00508537
0.00488393
0.00473878
0.00463356
0.00454824
0.00447471
0.00440841
0.00432964
0.00420992
0.00406329
0.00395007
0.00381014
0.00354724
0.00326168
0.00295347
0.00247605
0.00263199
0.00108102
0.00240147
0.00290548
0.00321559
0.00333476
0.00330861
0.00322856
0.00318426
0.00326183
0.0035521
0.00407538
0.00476728
0.00549888
0.00607562
0.00636905
0.00641123
0.00633094
0.00614297
0.00593927
0.005728
0.00551072
0.0053027
0.00511792
0.0049631
0.00483237
0.00471146
0.00458402
0.00443939
0.00427815
0.00410597
0.00391086
0.00364812
0.00330641
0.00295968
0.0026781
0.00244715
0.0022365
0.00205122
0.00189245
0.0017831
0.00113245
0.00125567
0.00201287
0.00251869
0.00285159
0.00318086
0.00367786
0.00428858
0.00496226
0.00565156
0.00627596
0.0066325
0.00664104
0.00642547
0.00619556
0.00601867
0.00588529
0.00577023
0.00565918
0.00555026
0.00544875
0.00535426
0.00525782
0.00514427
0.00499479
0.00479095
0.00452095
0.00418752
0.00381254
0.00342427
0.00303071
0.00268036
0.00241023
0.00222247
0.00209743
0.00199752
0.00188646
0.00178314
0.00124684
0.00148059
0.00251035
0.00318429
0.00381434
0.00460039
0.00522696
0.00570243
0.00620126
0.00674157
0.00725489
0.00742366
0.00723328
0.00687947
0.00661563
0.00647583
0.00641333
0.00637774
0.00633371
0.00626328
0.00619729
0.00614358
0.00610209
0.00606487
0.00601326
0.00591665
0.00573699
0.00544167
0.00502275
0.00453279
0.00401739
0.00352564
0.00309498
0.00274824
0.00248797
0.00228882
0.0021439
0.00278825
0.00137773
0.00137365
0.00144655
0.00150845
0.0016523
0.00163024
0.0015564
0.00149338
0.00149522
0.00155408
0.00161297
0.00165446
0.00166254
0.00163198
0.00158595
0.00155177
0.00152785
0.00151339
0.0015039
0.00149597
0.00148878
0.00148493
0.00148232
0.0014807
0.00147868
0.0014737
0.00146224
0.00144072
0.00140723
0.00136387
0.0013186
0.00127455
0.00123594
0.0012052
0.00118404
0.00117351
0.00117232
0.00117382
0.00116292
0.00116371
0.00113175
)
;

boundaryField
{
    floor
    {
        type            nutkWallFunction;
        Cmu             0.09;
        kappa           0.41;
        E               9.8;
        value           nonuniform List<scalar> 
29
(
0.000103953
6.03591e-05
8.49381e-05
8.22224e-05
7.95829e-05
7.699e-05
7.40044e-05
6.98735e-05
6.55508e-05
6.15132e-05
5.7844e-05
5.45432e-05
5.15684e-05
4.88538e-05
4.63281e-05
4.39009e-05
4.14324e-05
3.8765e-05
3.44938e-05
3.2601e-05
3.2601e-05
4.34246e-05
4.82322e-05
5.52632e-05
0.000103953
6.03591e-05
8.73338e-05
0.000107521
0.000141051
)
;
    }
    ceiling
    {
        type            nutkWallFunction;
        Cmu             0.09;
        kappa           0.41;
        E               9.8;
        value           nonuniform List<scalar> 
43
(
0.000163835
0.000172082
0.00017905
0.000195136
0.000192687
0.000184446
0.00017738
0.000177592
0.000184202
0.000190787
0.000195411
0.000196311
0.000192912
0.000187777
0.000183953
0.000181272
0.000179648
0.000178582
0.000177691
0.000176882
0.000176449
0.000176155
0.000175973
0.000175745
0.000175184
0.000173892
0.000171464
0.000167677
0.000162759
0.000157606
0.000152572
0.000148145
0.000144608
0.000142168
0.000140952
0.000140814
0.000140987
0.000139727
0.000139819
0.000136117
0.000276816
0.000330147
0.000175905
)
;
    }
    sWall
    {
        type            nutkWallFunction;
        Cmu             0.09;
        kappa           0.41;
        E               9.8;
        value           uniform 0.000163865;
    }
    nWall
    {
        type            nutkWallFunction;
        Cmu             0.09;
        kappa           0.41;
        E               9.8;
        value           nonuniform List<scalar> 6(6.38028e-05 8.441e-05 0.00010094 0.00014941 0.000164349 0.000136127);
    }
    sideWalls
    {
        type            empty;
    }
    glass1
    {
        type            nutkWallFunction;
        Cmu             0.09;
        kappa           0.41;
        E               9.8;
        value           nonuniform List<scalar> 9(0.000101911 0.000136168 0.000164258 0.000190808 0.000217551 0.000245709 0.000273653 0.000281539 0.000277028);
    }
    glass2
    {
        type            nutkWallFunction;
        Cmu             0.09;
        kappa           0.41;
        E               9.8;
        value           nonuniform List<scalar> 2(0.000130242 0.000136229);
    }
    sun
    {
        type            nutkWallFunction;
        Cmu             0.09;
        kappa           0.41;
        E               9.8;
        value           nonuniform List<scalar> 
14
(
0.000101898
0.000111077
0.000113748
0.000119222
0.000124232
0.000128936
0.000133593
0.000138387
0.000142382
0.000145093
0.000145884
0.000144072
0.000138831
0.000128432
)
;
    }
    heatsource1
    {
        type            nutkWallFunction;
        Cmu             0.09;
        kappa           0.41;
        E               9.8;
        value           nonuniform List<scalar> 3(6.47735e-05 6.47514e-05 6.38107e-05);
    }
    heatsource2
    {
        type            nutkWallFunction;
        Cmu             0.09;
        kappa           0.41;
        E               9.8;
        value           nonuniform List<scalar> 4(0.000115568 7.8597e-05 7.8597e-05 0.000118295);
    }
    Table_master
    {
        type            nutkWallFunction;
        Cmu             0.09;
        kappa           0.41;
        E               9.8;
        value           nonuniform List<scalar> 9(9.58687e-05 8.46756e-05 7.55875e-05 6.82149e-05 6.21894e-05 5.72387e-05 5.3156e-05 4.98297e-05 4.72872e-05);
    }
    Table_slave
    {
        type            nutkWallFunction;
        Cmu             0.09;
        kappa           0.41;
        E               9.8;
        value           nonuniform List<scalar> 9(0.0001057 9.7139e-05 9.15717e-05 8.7781e-05 8.48806e-05 8.21394e-05 7.89935e-05 7.57034e-05 7.17277e-05);
    }
    inlet
    {
        type            calculated;
        value           uniform 0.000100623;
    }
    outlet
    {
        type            calculated;
        value           nonuniform List<scalar> 2(0.00137365 0.00144655);
    }
}


// ************************************************************************* //
