/*--------------------------------*- C++ -*----------------------------------*\
  =========                 |
  \\      /  F ield         | OpenFOAM: The Open Source CFD Toolbox
   \\    /   O peration     | Website:  https://openfoam.org
    \\  /    A nd           | Version:  6
     \\/     M anipulation  |
\*---------------------------------------------------------------------------*/
FoamFile
{
    version     2.0;
    format      ascii;
    class       volScalarField;
    location    "700";
    object      epsilon;
}
// * * * * * * * * * * * * * * * * * * * * * * * * * * * * * * * * * * * * * //

dimensions      [0 2 -3 0 0 0 0];

internalField   nonuniform List<scalar> 
459
(
0.000159779
0.000186753
0.000185011
0.000203593
0.000219945
0.00023417
0.000246724
0.000258168
0.000269193
0.000279451
0.000285757
0.000286649
0.000281918
0.000273984
0.000265279
6.07341e-05
5.01611e-05
4.29353e-05
3.79294e-05
3.40588e-05
3.07876e-05
2.7874e-05
2.53347e-05
2.31492e-05
2.12393e-05
1.95518e-05
1.80447e-05
1.66803e-05
1.5419e-05
1.42111e-05
1.2996e-05
1.16778e-05
1.06434e-05
8.40954e-06
0.000499749
0.00100223
0.000174549
0.000157178
0.000153589
0.000152685
0.000154327
0.000159739
0.000170181
0.000185154
0.000199925
0.000210552
0.000213842
0.000212274
0.00022265
0.000275557
0.000199466
0.000101542
6.0149e-05
4.17171e-05
3.17462e-05
2.54133e-05
2.13067e-05
1.92252e-05
1.71479e-05
1.53798e-05
1.38276e-05
1.24462e-05
1.12106e-05
1.00996e-05
9.10145e-06
8.28997e-06
8.08453e-06
8.58287e-06
2.28518e-05
1.60736e-05
0.00106289
0.00306855
0.00024917
0.00015417
0.000148283
0.000151994
0.000160242
0.000173542
0.000192068
0.000214482
0.000235619
0.000248462
0.000248324
0.000238165
0.000230826
0.000241151
0.000336187
0.000140887
6.31456e-05
3.94005e-05
2.8765e-05
2.30448e-05
2.0576e-05
4.17967e-05
3.25638e-05
2.61471e-05
2.15983e-05
1.82914e-05
1.58296e-05
1.39722e-05
1.25911e-05
1.1668e-05
9.57723e-06
9.14621e-06
4.28111e-05
2.45135e-05
0.00198549
0.00720774
0.000486765
0.00016119
0.000147692
0.000156043
0.000169286
0.000188097
0.000214103
0.000247209
0.000277721
0.000292923
0.000287574
0.000265869
0.000237736
0.000214006
0.000218984
0.000230348
0.000116064
5.45139e-05
3.25778e-05
2.40414e-05
2.08954e-05
2.14646e-05
5.54803e-05
5.13161e-05
4.99118e-05
4.90551e-05
4.73223e-05
4.39253e-05
4.04099e-05
3.64225e-05
3.14733e-05
1.98824e-05
1.41308e-05
7.46236e-05
3.35432e-05
0.00340713
0.0138201
0.00115369
0.000190832
0.000144738
0.000153448
0.00017077
0.000197708
0.000239512
0.000297452
0.000346271
0.000365239
0.000352339
0.000315377
0.000265636
0.000215213
0.000180965
0.000143697
7.49614e-05
4.19157e-05
2.66029e-05
2.18665e-05
2.20094e-05
2.45525e-05
2.95231e-05
3.34785e-05
3.65072e-05
3.80774e-05
3.7581e-05
3.4886e-05
3.17497e-05
2.89564e-05
2.65559e-05
2.22155e-05
1.78218e-05
5.45447e-05
3.75361e-05
8.05772e-05
0.000138479
0.00018858
0.00550539
0.0211736
0.00305638
0.000364617
0.000172971
0.000159801
0.0001717
0.00020262
0.000272663
0.000382265
0.000451751
0.000467551
0.0004404
0.000383372
0.0003098
0.000235978
0.000180851
0.00012372
6.79464e-05
3.64913e-05
2.4817e-05
2.3772e-05
2.6964e-05
3.21093e-05
3.86338e-05
4.55767e-05
5.16594e-05
5.57169e-05
5.64073e-05
5.25046e-05
4.4446e-05
3.65769e-05
2.9973e-05
2.46708e-05
2.19395e-05
3.8325e-05
3.88522e-05
5.50514e-05
0.000258968
0.00021002
0.00843588
0.0254743
0.00784375
0.00164836
0.000638376
0.000363238
0.000290383
0.000295914
0.000425519
0.000568883
0.000622324
0.000608075
0.000550526
0.000464597
0.000362293
0.000264301
0.000194469
0.000133052
6.83304e-05
3.41642e-05
2.6874e-05
2.91654e-05
3.46392e-05
4.19978e-05
5.09974e-05
6.13391e-05
7.14759e-05
8.02886e-05
8.61563e-05
8.64635e-05
7.61426e-05
6.24076e-05
5.04344e-05
4.12731e-05
3.8122e-05
4.67882e-05
6.05452e-05
0.00010654
0.000285263
0.000256788
0.00939686
0.0318073
0.015967
0.00899963
0.00472676
0.00247065
0.00147708
0.00109522
0.00103382
0.00098831
0.000909084
0.000804587
0.000684838
0.000552569
0.000411476
0.000284923
0.000204709
0.00014132
6.51585e-05
3.49275e-05
3.20568e-05
3.62972e-05
4.33366e-05
5.24306e-05
6.34633e-05
7.62859e-05
9.05925e-05
0.000106161
0.000122649
0.00013921
0.000153662
0.000152302
0.000151261
0.000160859
0.000186344
0.000285704
0.000563174
0.00124883
0.00421134
0.00115057
0.00897258
0.0163351
0.0134283
0.0100849
0.00727691
0.00506395
0.00355102
0.00262477
0.00200851
0.00157485
0.00125814
0.00101365
0.000809386
0.000619905
0.000434031
0.000280154
0.000199445
0.000138476
5.89671e-05
3.81942e-05
3.76097e-05
4.24135e-05
4.97555e-05
5.91706e-05
7.06829e-05
8.4467e-05
0.000100883
0.000120618
0.000144819
0.00017525
0.00021447
0.000265771
0.000335484
0.00044812
0.000619652
0.000859129
0.00113863
0.00138267
0.00154886
0.000938586
0.0055931
0.00770179
0.00616293
0.00472158
0.00359257
0.00276331
0.00215542
0.00169252
0.00133499
0.00105201
0.000815428
0.00059915
0.00039131
0.000229881
0.000167591
0.00011872
5.86307e-05
4.31358e-05
4.2522e-05
4.64162e-05
5.25168e-05
6.03673e-05
6.99586e-05
8.14742e-05
9.53161e-05
0.000112222
0.000133443
0.000161
0.000198097
0.000249831
0.00032199
0.000423293
0.000558456
0.00071497
0.000849472
0.000900948
0.000825357
0.000522862
0.00399651
0.00693638
0.00558971
0.00425625
0.00327228
0.0025157
0.00192392
0.00146963
0.00111575
0.000840724
0.00062395
0.000445755
0.000275956
0.000134245
5.38337e-05
4.68738e-05
4.12942e-05
3.83509e-05
3.91783e-05
4.25118e-05
4.7604e-05
5.43293e-05
6.28453e-05
7.34999e-05
8.6853e-05
0.000103754
0.000125468
0.000153871
0.000191661
0.000242277
0.000310709
0.000402442
0.000519009
0.000652517
0.00075683
0.000871725
0.000730824
0.000542288
0.00264714
0.00311452
0.00354312
0.00429975
0.0036602
0.00292166
0.00229915
0.00180575
0.00139179
0.00105786
0.000823791
0.000639714
0.000485216
0.00034856
0.000175703
4.4413e-05
3.86037e-05
3.99752e-05
4.09827e-05
4.4172e-05
4.9235e-05
5.5767e-05
6.36486e-05
7.29305e-05
8.37451e-05
9.62922e-05
0.000110865
0.00012791
0.000148156
0.000172864
0.000204029
0.000242191
0.00028943
0.000348683
0.000423788
0.000534516
0.000580232
0.000547405
0.000451053
0.000361194
)
;

boundaryField
{
    floor
    {
        Cmu             0.09;
        kappa           0.41;
        E               9.8;
        type            epsilonWallFunction;
        value           nonuniform List<scalar> 
29
(
0.000265279
6.07341e-05
5.01611e-05
4.29353e-05
3.79294e-05
3.40588e-05
3.07876e-05
2.7874e-05
2.53347e-05
2.31492e-05
2.12393e-05
1.95518e-05
1.80447e-05
1.66803e-05
1.5419e-05
1.42111e-05
1.2996e-05
1.16778e-05
1.06434e-05
8.40954e-06
8.40954e-06
1.60736e-05
2.45135e-05
3.35432e-05
0.000265279
6.07341e-05
0.000101542
0.000140887
0.000230348
)
;
    }
    ceiling
    {
        Cmu             0.09;
        kappa           0.41;
        E               9.8;
        type            epsilonWallFunction;
        value           nonuniform List<scalar> 
43
(
0.00264714
0.00311452
0.00354312
0.00429975
0.0036602
0.00292166
0.00229915
0.00180575
0.00139179
0.00105786
0.000823791
0.000639714
0.000485216
0.00034856
0.000175703
4.4413e-05
3.86037e-05
3.99752e-05
4.09827e-05
4.4172e-05
4.9235e-05
5.5767e-05
6.36486e-05
7.29305e-05
8.37451e-05
9.62922e-05
0.000110865
0.00012791
0.000148156
0.000172864
0.000204029
0.000242191
0.00028943
0.000348683
0.000423788
0.000534516
0.000580232
0.000547405
0.000451053
0.000361194
0.00897258
0.0163351
0.00399651
)
;
    }
    sWall
    {
        Cmu             0.09;
        kappa           0.41;
        E               9.8;
        type            epsilonWallFunction;
        value           uniform 0.00264714;
    }
    nWall
    {
        Cmu             0.09;
        kappa           0.41;
        E               9.8;
        type            epsilonWallFunction;
        value           nonuniform List<scalar> 6(0.00018858 0.00021002 0.000256788 0.000522862 0.000542288 0.000361194);
    }
    sideWalls
    {
        type            empty;
    }
    glass1
    {
        Cmu             0.09;
        kappa           0.41;
        E               9.8;
        type            epsilonWallFunction;
        value           nonuniform List<scalar> 9(0.000159779 0.000499749 0.00106289 0.00198549 0.00340713 0.00550539 0.00843588 0.00939686 0.00897258);
    }
    glass2
    {
        Cmu             0.09;
        kappa           0.41;
        E               9.8;
        type            epsilonWallFunction;
        value           nonuniform List<scalar> 2(0.00115057 0.000938586);
    }
    sun
    {
        Cmu             0.09;
        kappa           0.41;
        E               9.8;
        type            epsilonWallFunction;
        value           nonuniform List<scalar> 
14
(
0.000159779
0.000186753
0.000185011
0.000203593
0.000219945
0.00023417
0.000246724
0.000258168
0.000269193
0.000279451
0.000285757
0.000286649
0.000281918
0.000273984
)
;
    }
    heatsource1
    {
        Cmu             0.09;
        kappa           0.41;
        E               9.8;
        type            epsilonWallFunction;
        value           nonuniform List<scalar> 3(8.05772e-05 0.000138479 0.00018858);
    }
    heatsource2
    {
        Cmu             0.09;
        kappa           0.41;
        E               9.8;
        type            epsilonWallFunction;
        value           nonuniform List<scalar> 4(0.000275557 0.000199466 0.000199466 0.000336187);
    }
    Table_master
    {
        Cmu             0.09;
        kappa           0.41;
        E               9.8;
        type            epsilonWallFunction;
        value           nonuniform List<scalar> 9(4.17967e-05 3.25638e-05 2.61471e-05 2.15983e-05 1.82914e-05 1.58296e-05 1.39722e-05 1.25911e-05 1.1668e-05);
    }
    Table_slave
    {
        Cmu             0.09;
        kappa           0.41;
        E               9.8;
        type            epsilonWallFunction;
        value           nonuniform List<scalar> 9(5.54803e-05 5.13161e-05 4.99118e-05 4.90551e-05 4.73223e-05 4.39253e-05 4.04099e-05 3.64225e-05 3.14733e-05);
    }
    inlet
    {
        type            turbulentMixingLengthDissipationRateInlet;
        mixingLength    0.01;
        phi             phi;
        k               k;
        value           uniform 0.000101881;
    }
    outlet
    {
        type            zeroGradient;
    }
}


// ************************************************************************* //
