// -*- C++ -*-
// File generated by PyFoam - sorry for the ugliness

FoamFile
{
 version 2.0;
 format ascii;
 class volScalarField;
 location "200";
 object T;
}

dimensions [ 0 0 0 1 0 0 0 ];

internalField nonuniform List<scalar> 459
(
  302.901
  302.641
  302.632
  302.632
  302.631
  302.63
  302.627
  302.622
  302.614
  302.609
  302.608
  302.613
  302.617
  302.618
  302.626
  302.843
  302.817
  302.807
  302.818
  302.834
  302.848
  302.858
  302.867
  302.876
  302.885
  302.895
  302.904
  302.914
  302.924
  302.934
  302.946
  302.959
  302.977
  303.014
  303.072
  302.678
  302.657
  302.662
  302.666
  302.668
  302.662
  302.647
  302.627
  302.612
  302.608
  302.614
  302.62
  302.621
  302.62
  302.614
  302.602
  302.847
  302.785
  302.783
  302.801
  302.824
  302.844
  302.853
  302.86
  302.866
  302.872
  302.879
  302.886
  302.893
  302.901
  302.911
  302.922
  302.937
  302.959
  303.005
  303.253
  302.727
  302.691
  302.705
  302.72
  302.729
  302.719
  302.686
  302.646
  302.617
  302.609
  302.619
  302.63
  302.635
  302.632
  302.626
  302.614
  302.794
  302.765
  302.773
  302.804
  302.842
  302.874
  302.874
  302.876
  302.879
  302.883
  302.888
  302.894
  302.901
  302.908
  302.916
  302.929
  302.942
  302.961
  303.006
  303.438
  302.789
  302.731
  302.756
  302.79
  302.813
  302.795
  302.733
  302.665
  302.619
  302.608
  302.623
  302.644
  302.657
  302.658
  302.651
  302.639
  302.648
  302.672
  302.716
  302.774
  302.837
  302.896
  302.943
  302.981
  303.012
  303.038
  303.062
  303.084
  303.104
  303.122
  303.139
  303.152
  303.074
  303.016
  302.992
  303.017
  303.621
  302.869
  302.78
  302.809
  302.866
  302.909
  302.871
  302.77
  302.675
  302.617
  302.604
  302.627
  302.662
  302.69
  302.702
  302.7
  302.698
  302.716
  302.753
  302.808
  302.873
  302.941
  303.003
  303.056
  303.103
  303.14
  303.169
  303.194
  303.212
  303.223
  303.229
  303.228
  303.218
  303.163
  303.085
  303.031
  303.03
  303.231
  303.302
  303.294
  303.79
  302.976
  302.859
  302.878
  302.966
  302.99
  302.91
  302.783
  302.668
  302.603
  302.596
  302.634
  302.691
  302.74
  302.769
  302.783
  302.796
  302.828
  302.877
  302.94
  303.009
  303.076
  303.135
  303.184
  303.226
  303.259
  303.284
  303.303
  303.314
  303.318
  303.314
  303.302
  303.279
  303.23
  303.155
  303.085
  303.057
  303.142
  303.184
  303.234
  303.952
  303.146
  303.032
  303.046
  303.109
  303.051
  302.905
  302.739
  302.616
  302.564
  302.582
  302.652
  302.743
  302.821
  302.874
  302.908
  302.936
  302.98
  303.037
  303.1
  303.164
  303.223
  303.273
  303.314
  303.346
  303.37
  303.387
  303.398
  303.401
  303.396
  303.384
  303.365
  303.337
  303.291
  303.227
  303.159
  303.118
  303.139
  303.163
  303.202
  304.179
  303.581
  303.454
  303.421
  303.279
  303.039
  302.784
  302.59
  302.496
  302.503
  302.582
  302.707
  302.847
  302.955
  303.03
  303.068
  303.104
  303.153
  303.212
  303.269
  303.321
  303.365
  303.401
  303.427
  303.447
  303.46
  303.467
  303.469
  303.464
  303.454
  303.438
  303.416
  303.389
  303.347
  303.299
  303.248
  303.222
  303.242
  303.265
  303.379
  304.51
  304.222
  303.989
  303.635
  303.063
  302.593
  302.32
  302.24
  302.311
  302.476
  302.662
  302.858
  303.055
  303.151
  303.2
  303.237
  303.277
  303.324
  303.374
  303.42
  303.457
  303.486
  303.506
  303.518
  303.524
  303.524
  303.518
  303.508
  303.495
  303.48
  303.465
  303.451
  303.44
  303.434
  303.436
  303.451
  303.481
  303.513
  303.533
  303.591
  295.744
  296.728
  298.543
  300.003
  301.051
  301.808
  302.381
  302.823
  303.043
  303.176
  303.264
  303.321
  303.361
  303.397
  303.435
  303.474
  303.51
  303.541
  303.562
  303.576
  303.582
  303.582
  303.577
  303.568
  303.556
  303.543
  303.53
  303.517
  303.505
  303.496
  303.489
  303.488
  303.495
  303.511
  303.537
  303.572
  303.617
  303.681
  296.644
  298.634
  300.641
  301.697
  302.34
  302.754
  303.023
  303.2
  303.313
  303.386
  303.437
  303.475
  303.508
  303.538
  303.566
  303.593
  303.614
  303.629
  303.638
  303.639
  303.636
  303.629
  303.619
  303.607
  303.595
  303.582
  303.569
  303.557
  303.546
  303.536
  303.528
  303.525
  303.526
  303.536
  303.553
  303.585
  303.609
  303.661
  300.124
  300.047
  300.037
  301.972
  302.749
  303.059
  303.229
  303.348
  303.435
  303.498
  303.545
  303.58
  303.608
  303.63
  303.649
  303.665
  303.677
  303.687
  303.692
  303.694
  303.691
  303.686
  303.679
  303.67
  303.659
  303.649
  303.637
  303.625
  303.613
  303.601
  303.589
  303.578
  303.568
  303.56
  303.555
  303.558
  303.568
  303.582
  303.597
  303.654
)
;

boundaryField
{
  floor
  {
    type wallHeatTransfer;
    Tinf uniform 305.2;
    alphaWall uniform 0.24;
    value nonuniform List<scalar> 29
(
  302.93
  303.251
  303.186
  303.14
  303.133
  303.147
  303.165
  303.189
  303.214
  303.24
  303.264
  303.288
  303.311
  303.334
  303.356
  303.378
  303.401
  303.426
  303.455
  303.513
  303.513
  303.456
  303.427
  303.416
  302.93
  303.251
  303.26
  303.119
  302.877
)
;
  }
  ceiling
  {
    type wallHeatTransfer;
    Tinf uniform 303.2;
    alphaWall uniform 0.24;
    value nonuniform List<scalar> 43
(
  300.337
  300.255
  300.239
  302.047
  302.778
  303.069
  303.227
  303.337
  303.416
  303.472
  303.513
  303.543
  303.566
  303.584
  303.6
  303.612
  303.622
  303.629
  303.631
  303.63
  303.626
  303.62
  303.612
  303.603
  303.594
  303.584
  303.574
  303.565
  303.556
  303.547
  303.538
  303.531
  303.524
  303.519
  303.517
  303.522
  303.531
  303.543
  303.555
  303.602
  304.45
  304.181
  297.057
)
;
  }
  sWall
  {
    type wallHeatTransfer;
    Tinf uniform 315.2;
    alphaWall uniform 0.36;
    value uniform 301.642;
  }
  nWall
  {
    type wallHeatTransfer;
    Tinf uniform 307.2;
    alphaWall uniform 0.36;
    value nonuniform List<scalar> 6
(
  304.017
  303.945
  303.843
  304.183
  304.159
  304.228
)
;
  }
  sideWalls
  {
    type empty;
  }
  glass1
  {
    type wallHeatTransfer;
    Tinf uniform 315.2;
    alphaWall uniform 4.3;
    value nonuniform List<scalar> 9
(
  311.065
  310.437
  310.047
  309.754
  309.512
  309.292
  309.142
  309.228
  309.473
)
;
  }
  glass2
  {
    type wallHeatTransfer;
    Tinf uniform 307.2;
    alphaWall uniform 4.3;
    value nonuniform List<scalar> 2
(
  305.732
  305.869
)
;
  }
  sun
  {
    type wallHeatTransfer;
    Tinf uniform 305.2;
    alphaWall uniform 0.24;
    value nonuniform List<scalar> 14
(
  303.125
  302.872
  302.859
  302.85
  302.841
  302.833
  302.824
  302.814
  302.807
  302.804
  302.809
  302.827
  302.853
  302.886
)
;
  }
  heatsource1
  {
    type fixedGradient;
    gradient uniform 0;
  }
  heatsource2
  {
    type fixedGradient;
    gradient uniform 0;
  }
  Table_master
  {
    type zeroGradient;
  }
  Table_slave
  {
    type zeroGradient;
  }
  inlet
  {
    type fixedValue;
    value uniform 293.15;
  }
  outlet
  {
    type zeroGradient;
  }
} 	// ************************************************************************* //

