/*--------------------------------*- C++ -*----------------------------------*\
  =========                 |
  \\      /  F ield         | OpenFOAM: The Open Source CFD Toolbox
   \\    /   O peration     | Website:  https://openfoam.org
    \\  /    A nd           | Version:  6
     \\/     M anipulation  |
\*---------------------------------------------------------------------------*/
FoamFile
{
    version     2.0;
    format      ascii;
    class       volScalarField;
    location    "700";
    object      alphat;
}
// * * * * * * * * * * * * * * * * * * * * * * * * * * * * * * * * * * * * * //

dimensions      [1 -1 -1 0 0 0 0];

internalField   nonuniform List<scalar> 
459
(
0.00089087
0.000939311
0.000936414
0.000966776
0.000992001
0.00101295
0.00103074
0.00104645
0.00106115
0.00107447
0.00108251
0.00108366
0.0010777
0.00106753
0.00105613
0.000645965
0.000606097
0.000575483
0.000552191
0.000532732
0.000515099
0.000498309
0.000482693
0.000468395
0.000455143
0.000442757
0.000431077
0.000419928
0.000409067
0.000398096
0.000386412
0.000372882
0.000361534
0.000334222
0.00130188
0.00220025
0.00191711
0.00219133
0.0023635
0.00254476
0.00272342
0.00288347
0.00300122
0.00306663
0.00308936
0.00303427
0.00285155
0.0024732
0.00181923
0.00106966
0.000960437
0.000766741
0.000971953
0.00109128
0.00117212
0.00121804
0.00122455
0.00112669
0.00106359
0.00100765
0.000956294
0.000908081
0.000861602
0.000814518
0.000762879
0.000703542
0.000649631
0.000605438
0.000717598
0.000414793
0.001673
0.00313569
0.00213455
0.00297117
0.00319078
0.00334652
0.00346048
0.00354481
0.00360875
0.00365534
0.00368967
0.00368293
0.00360136
0.00341492
0.00308075
0.00244952
0.00114298
0.000855188
0.00128992
0.00148739
0.00162905
0.00172583
0.00165873
0.000570362
0.00052484
0.000487829
0.00045773
0.000433073
0.000412709
0.000395898
0.000382405
0.000372826
0.00042101
0.000498139
0.000816072
0.000477457
0.00205895
0.00456528
0.0020221
0.00325229
0.00353867
0.00362272
0.00364175
0.00363871
0.00364542
0.00367245
0.00371434
0.00373939
0.00371421
0.00362174
0.00346458
0.00323694
0.00278516
0.0010075
0.00153647
0.00177448
0.00191234
0.00204708
0.00216443
0.00204767
0.00062679
0.000610705
0.000605087
0.00060161
0.000594447
0.000579875
0.000563982
0.000544795
0.000518918
0.000491465
0.000507398
0.000948955
0.000530066
0.00246336
0.00656214
0.00232568
0.00307934
0.00363525
0.00369374
0.00364724
0.00357972
0.00355169
0.00358188
0.00365694
0.00372425
0.00373221
0.00364537
0.00345637
0.00323394
0.00313145
0.00292805
0.0025083
0.00230851
0.00225715
0.00231965
0.0024236
0.00250507
0.00240991
0.00243524
0.00247391
0.00248798
0.00245876
0.00237305
0.00216297
0.00187067
0.00152509
0.00114918
0.000853237
0.00092615
0.000655459
0.000709781
0.000850108
0.000942248
0.00288895
0.00879365
0.00387586
0.00266235
0.00339351
0.00362088
0.00362079
0.00353069
0.00345277
0.00348188
0.00361396
0.00372926
0.00377105
0.00368829
0.00344759
0.00312841
0.00296052
0.00284509
0.00257879
0.00239728
0.00234058
0.00237132
0.00247678
0.00261993
0.00275718
0.00288311
0.00297557
0.00302432
0.00302522
0.00297673
0.00283256
0.00257551
0.00220629
0.001747
0.00131911
0.00100674
0.000822619
0.000770205
0.00117215
0.000976769
0.00332907
0.0106507
0.00710991
0.0036502
0.00281353
0.00287027
0.00315035
0.00337892
0.0033847
0.00348669
0.0036457
0.00376717
0.0038128
0.00372228
0.00343814
0.00304719
0.00283038
0.00276817
0.00256468
0.00240489
0.00232195
0.00234893
0.00246667
0.00261951
0.00277616
0.00291675
0.0030207
0.00308659
0.00311787
0.00312057
0.00309201
0.00289997
0.00255708
0.00211607
0.0017068
0.00133539
0.0011072
0.00106326
0.001147
0.00104454
0.0034484
0.0106587
0.008722
0.00681812
0.00507425
0.00395835
0.00352039
0.00354799
0.0036591
0.00372131
0.00379162
0.00385641
0.00386644
0.00373577
0.00338031
0.00290862
0.00268934
0.00271821
0.00254143
0.00235383
0.00225673
0.00229442
0.00239962
0.0025233
0.00264408
0.00275029
0.00283529
0.0029024
0.00296154
0.00302673
0.00310877
0.00314433
0.00286324
0.0024908
0.00218651
0.00206268
0.00219859
0.00279323
0.00385109
0.00172102
0.00339224
0.00414629
0.00467823
0.00486795
0.00475591
0.00443429
0.00413045
0.00396403
0.00387637
0.00386802
0.00390443
0.00393644
0.00389607
0.00368137
0.00320052
0.00263134
0.00246846
0.00264357
0.00247677
0.00222692
0.00212781
0.00215278
0.00222359
0.00230235
0.0023733
0.00242796
0.00246162
0.00247253
0.00246019
0.00242429
0.00236523
0.00228634
0.00221031
0.00217054
0.00219799
0.00228219
0.00234791
0.00231572
0.00218774
0.00160728
0.00248803
0.00420875
0.00459803
0.00459998
0.004499
0.00440553
0.00433764
0.00426304
0.00417329
0.00404153
0.00381982
0.00341815
0.00276609
0.00212906
0.00212084
0.00251696
0.00228312
0.00200455
0.0018983
0.00190015
0.00193888
0.00198606
0.0020303
0.00206593
0.00209048
0.0021042
0.00211013
0.00211412
0.00212462
0.00215192
0.00218802
0.00223911
0.00230274
0.00235061
0.0023326
0.00222293
0.0020262
0.00132269
0.0026467
0.00484919
0.00513101
0.0050102
0.00484961
0.00467225
0.00447642
0.00424483
0.00391297
0.00352798
0.00309692
0.00257824
0.00193807
0.00137793
0.00151558
0.00176769
0.00160036
0.00141378
0.00135423
0.0013652
0.00140755
0.00146721
0.00153896
0.00162034
0.00170969
0.00180503
0.00190322
0.00199897
0.00208711
0.00218376
0.00228926
0.00240195
0.00251121
0.00260114
0.0026245
0.00270979
0.00259754
0.00133893
0.00229577
0.00242412
0.00253061
0.00268612
0.00254095
0.00235418
0.00217228
0.00200375
0.00183695
0.00167631
0.00154215
0.00141741
0.00129257
0.00115752
0.000920539
0.000581697
0.000555137
0.000561611
0.000566289
0.000580617
0.000602003
0.000627525
0.000655791
0.000686229
0.000718592
0.000752817
0.000789017
0.000827535
0.000869069
0.00091491
0.000966874
0.00102373
0.00108636
0.00115593
0.00123355
0.00133273
0.00136964
0.00134329
0.00125934
0.00116931
)
;

boundaryField
{
    floor
    {
        type            compressible::alphatWallFunction;
        Prt             0.85;
        value           nonuniform List<scalar> 
29
(
0.000150164
9.12241e-05
8.52842e-05
8.06914e-05
7.71773e-05
7.42274e-05
7.1543e-05
6.89761e-05
6.6579e-05
6.43755e-05
6.23257e-05
6.04028e-05
5.85833e-05
5.68407e-05
5.51372e-05
5.34107e-05
5.15653e-05
4.94191e-05
4.76111e-05
4.32299e-05
4.32293e-05
5.60336e-05
6.57693e-05
7.38182e-05
0.000150162
9.1223e-05
0.000108946
0.000121712
0.000143345
)
;
    }
    ceiling
    {
        type            compressible::alphatWallFunction;
        Prt             0.85;
        value           nonuniform List<scalar> 
43
(
0.00031528
0.000331703
0.000345261
0.000365052
0.000346708
0.000322919
0.000299545
0.000277694
0.000255869
0.000234643
0.000216743
0.000199943
0.000182964
0.000164387
0.000131187
8.1739e-05
7.77309e-05
7.87106e-05
7.94158e-05
8.15722e-05
8.47798e-05
8.85899e-05
9.27876e-05
9.72834e-05
0.000102037
0.000107036
0.000112294
0.000117857
0.000123822
0.000130365
0.000137737
0.00014575
0.000154517
0.000164186
0.000174898
0.000188473
0.000193496
0.000189912
0.00017844
0.000166042
0.000453311
0.000545228
0.000359885
)
;
    }
    sWall
    {
        type            compressible::alphatWallFunction;
        Prt             0.85;
        value           uniform 0.000314065;
    }
    nWall
    {
        type            compressible::alphatWallFunction;
        Prt             0.85;
        value           nonuniform List<scalar> 6(0.000133917 0.000138798 0.000148325 0.000186766 0.000188976 0.000165706);
    }
    sideWalls
    {
        type            empty;
    }
    glass1
    {
        type            compressible::alphatWallFunction;
        Prt             0.85;
        value           nonuniform List<scalar> 9(0.000123333 0.000179739 0.000229078 0.000279231 0.00033079 0.000384155 0.000438527 0.000453271 0.000446607);
    }
    glass2
    {
        type            compressible::alphatWallFunction;
        Prt             0.85;
        value           nonuniform List<scalar> 2(0.000238722 0.000223738);
    }
    sun
    {
        type            compressible::alphatWallFunction;
        Prt             0.85;
        value           nonuniform List<scalar> 
14
(
0.000126835
0.000133711
0.000133299
0.0001376
0.00014116
0.000144109
0.000146609
0.00014881
0.000150867
0.000152729
0.000153851
0.000154011
0.000153179
0.000151758
)
;
    }
    heatsource1
    {
        type            compressible::alphatWallFunction;
        Prt             0.85;
        value           nonuniform List<scalar> 3(0.000100754 0.000121112 0.000134259);
    }
    heatsource2
    {
        type            compressible::alphatWallFunction;
        Prt             0.85;
        value           nonuniform List<scalar> 4(0.000152188 0.000136832 0.00013683 0.000162391);
    }
    Table_master
    {
        type            compressible::alphatWallFunction;
        Prt             0.85;
        value           nonuniform List<scalar> 9(8.00355e-05 7.31405e-05 6.74794e-05 6.28358e-05 5.90028e-05 5.58162e-05 5.31704e-05 5.10363e-05 4.95154e-05);
    }
    Table_slave
    {
        type            compressible::alphatWallFunction;
        Prt             0.85;
        value           nonuniform List<scalar> 9(8.8489e-05 8.60893e-05 8.52493e-05 8.47291e-05 8.3656e-05 8.14681e-05 7.90739e-05 7.61722e-05 7.22388e-05);
    }
    inlet
    {
        type            fixedValue;
        value           uniform 1.94e-05;
    }
    outlet
    {
        type            zeroGradient;
    }
}


// ************************************************************************* //
