/*--------------------------------*- C++ -*----------------------------------*\
  =========                 |
  \\      /  F ield         | OpenFOAM: The Open Source CFD Toolbox
   \\    /   O peration     | Website:  https://openfoam.org
    \\  /    A nd           | Version:  6
     \\/     M anipulation  |
\*---------------------------------------------------------------------------*/
FoamFile
{
    version     2.0;
    format      ascii;
    class       volScalarField;
    location    "2000";
    object      epsilon;
}
// * * * * * * * * * * * * * * * * * * * * * * * * * * * * * * * * * * * * * //

dimensions      [0 2 -3 0 0 0 0];

internalField   nonuniform List<scalar> 
459
(
0.000261779
0.000327148
0.000340248
0.000386445
0.000431088
0.000474337
0.0005175
0.000562624
0.000608482
0.000643036
0.00065792
0.000645474
0.00060411
0.000543341
0.000479767
3.24956e-05
6.28814e-05
7.03561e-05
6.43959e-05
5.66757e-05
4.91102e-05
4.21248e-05
3.6276e-05
3.15376e-05
2.77144e-05
2.46124e-05
2.20653e-05
1.99309e-05
1.81026e-05
1.64556e-05
1.48557e-05
1.3131e-05
1.13798e-05
8.39649e-06
0.000710018
0.00118299
0.000308727
0.000294721
0.000302011
0.000315229
0.000335745
0.000367253
0.000410028
0.000453327
0.000484148
0.00048943
0.00046316
0.000415823
0.000393679
0.000501337
0.000164046
8.19857e-05
9.97913e-05
8.92043e-05
7.39768e-05
5.92528e-05
4.74119e-05
4.04914e-05
3.33821e-05
2.74442e-05
2.27055e-05
1.89635e-05
1.59953e-05
1.35939e-05
1.16843e-05
1.02565e-05
9.66368e-06
9.93173e-06
1.85354e-05
1.39394e-05
0.00137177
0.00322932
0.000393735
0.000276052
0.000279855
0.000301219
0.000334622
0.000383059
0.000446039
0.000510195
0.000555789
0.000568904
0.000546248
0.00049824
0.000451934
0.000431101
0.000457506
0.000305225
0.00019019
0.000131317
9.48841e-05
7.11603e-05
5.69084e-05
9.6295e-05
7.09203e-05
5.35529e-05
4.14197e-05
3.27296e-05
2.63549e-05
2.15995e-05
1.80977e-05
1.56672e-05
1.21066e-05
1.06175e-05
2.84502e-05
1.92071e-05
0.00236357
0.00717031
0.000677121
0.000271178
0.000261044
0.000289019
0.000333767
0.000402429
0.000497489
0.000586496
0.000640119
0.000650018
0.000619061
0.00055989
0.00048947
0.000426872
0.000392644
0.000653466
0.000360135
0.000208579
0.000134837
9.41293e-05
7.00014e-05
5.8278e-05
0.000126324
0.00010078
8.47423e-05
7.34369e-05
6.41152e-05
5.6312e-05
4.91643e-05
4.21081e-05
3.45387e-05
2.07478e-05
1.3941e-05
4.0627e-05
2.44813e-05
0.00382781
0.0133563
0.0014919
0.000312985
0.000245251
0.000269445
0.000325378
0.000439125
0.000603888
0.000722464
0.000774204
0.000769365
0.000717126
0.000632266
0.000526821
0.000415492
0.000313429
0.000247283
0.000186107
0.000137401
0.000101512
7.69057e-05
6.11176e-05
5.2508e-05
5.2323e-05
5.12847e-05
4.97241e-05
4.73146e-05
4.38473e-05
3.97734e-05
3.55672e-05
3.14504e-05
2.74873e-05
2.16956e-05
1.6405e-05
3.26779e-05
2.50149e-05
5.67708e-05
0.000104186
0.000141932
0.00596925
0.0202732
0.00376661
0.000644576
0.0003381
0.000310757
0.000353129
0.00059666
0.000846074
0.000959302
0.000979998
0.000941077
0.000858786
0.000741528
0.000597825
0.000446019
0.000310196
0.000213521
0.000154422
0.000114894
8.62253e-05
6.75163e-05
5.7317e-05
5.33973e-05
5.39506e-05
5.59016e-05
5.70575e-05
5.64201e-05
5.3439e-05
4.77526e-05
4.09561e-05
3.41515e-05
2.80258e-05
2.27601e-05
1.95195e-05
2.63426e-05
2.59944e-05
3.87982e-05
0.000191687
0.000154596
0.00874372
0.0244336
0.00869886
0.00270272
0.0014109
0.000982745
0.000917753
0.00122494
0.00135615
0.00135726
0.00128987
0.00118429
0.00104843
0.000882036
0.000690399
0.000495808
0.000325848
0.000206811
0.000137587
9.87603e-05
7.53451e-05
6.31697e-05
5.94331e-05
6.02765e-05
6.38246e-05
6.83198e-05
7.1976e-05
7.41087e-05
7.38627e-05
7.00253e-05
6.10782e-05
5.14791e-05
4.24213e-05
3.47737e-05
3.17373e-05
3.57546e-05
4.37603e-05
7.26713e-05
0.000193883
0.000179126
0.00952119
0.0284395
0.0151817
0.00977971
0.00639143
0.00432556
0.00336276
0.00273073
0.00228694
0.00196484
0.0017131
0.00149296
0.00127389
0.00103634
0.000779564
0.00053311
0.000323557
0.000186061
0.000113872
8.56792e-05
7.28651e-05
6.82844e-05
6.84966e-05
7.1399e-05
7.6067e-05
8.18712e-05
8.83698e-05
9.55145e-05
0.000103208
0.000110915
0.000116215
0.000116103
0.000116478
0.000120405
0.000136094
0.000198994
0.000372872
0.000794331
0.00281031
0.000819011
0.00895448
0.0156423
0.0127522
0.00967029
0.00731886
0.00559028
0.0043771
0.00351945
0.00291669
0.00247217
0.00211605
0.00179977
0.00148546
0.00115218
0.000804577
0.000502002
0.000254546
0.000147031
0.000104979
8.9464e-05
8.37927e-05
8.24093e-05
8.30642e-05
8.49988e-05
8.8199e-05
9.29077e-05
9.95462e-05
0.00010876
0.000121439
0.000138829
0.000162631
0.000195362
0.000244045
0.00032184
0.000442148
0.000615754
0.000829081
0.00102963
0.00117132
0.00072884
0.00433019
0.0066038
0.00600952
0.00522719
0.00455563
0.003951
0.00336937
0.00284507
0.00238035
0.0019512
0.00151307
0.00105443
0.000570202
0.000286253
0.000170628
0.000133548
0.000123871
0.000121812
0.000120428
0.000118462
0.000115493
0.00011174
0.000107894
0.000104938
0.000104047
0.000106534
0.000113871
0.000127844
0.000150386
0.000183852
0.000232759
0.000303667
0.000401784
0.000522724
0.000641315
0.000715803
0.000713983
0.000486075
0.00292387
0.00605551
0.00574906
0.00481233
0.00415129
0.0036632
0.00315218
0.00268238
0.00226832
0.00182652
0.0013026
0.000831114
0.000499228
0.000335502
0.00027826
0.000268438
0.00027179
0.000274898
0.000273143
0.000267236
0.000256887
0.000242429
0.000225157
0.000207067
0.000190434
0.000177433
0.000169948
0.000169644
0.000178923
0.000200164
0.000236262
0.000290729
0.000364723
0.000452159
0.000525583
0.000620839
0.000705166
0.000523929
0.00259375
0.00243627
0.00258378
0.00303036
0.00252775
0.00201054
0.00152485
0.00113481
0.000946983
0.000845189
0.000748839
0.000640703
0.000519194
0.000401479
0.000298417
0.000233264
0.000199399
0.000181206
0.000169865
0.000161563
0.000155474
0.000149262
0.000143072
0.000137556
0.000133504
0.000131676
0.000132709
0.000137142
0.000145569
0.000158919
0.0001769
0.000199966
0.000229669
0.000268138
0.000317461
0.000382924
0.000416068
0.000392367
0.000335097
0.000284156
)
;

boundaryField
{
    floor
    {
        Cmu             0.09;
        kappa           0.41;
        E               9.8;
        type            epsilonWallFunction;
        value           nonuniform List<scalar> 
29
(
0.000479767
3.24956e-05
6.28814e-05
7.03561e-05
6.43959e-05
5.66757e-05
4.91102e-05
4.21248e-05
3.6276e-05
3.15376e-05
2.77144e-05
2.46124e-05
2.20653e-05
1.99309e-05
1.81026e-05
1.64556e-05
1.48557e-05
1.3131e-05
1.13798e-05
8.39649e-06
8.39649e-06
1.39394e-05
1.92071e-05
2.44813e-05
0.000479767
3.24956e-05
8.19857e-05
0.000305225
0.000653466
)
;
    }
    ceiling
    {
        Cmu             0.09;
        kappa           0.41;
        E               9.8;
        type            epsilonWallFunction;
        value           nonuniform List<scalar> 
43
(
0.00259375
0.00243627
0.00258378
0.00303036
0.00252775
0.00201054
0.00152485
0.00113481
0.000946983
0.000845189
0.000748839
0.000640703
0.000519194
0.000401479
0.000298417
0.000233264
0.000199399
0.000181206
0.000169865
0.000161563
0.000155474
0.000149262
0.000143072
0.000137556
0.000133504
0.000131676
0.000132709
0.000137142
0.000145569
0.000158919
0.0001769
0.000199966
0.000229669
0.000268138
0.000317461
0.000382924
0.000416068
0.000392367
0.000335097
0.000284156
0.00895448
0.0156423
0.00292387
)
;
    }
    sWall
    {
        Cmu             0.09;
        kappa           0.41;
        E               9.8;
        type            epsilonWallFunction;
        value           uniform 0.00259375;
    }
    nWall
    {
        Cmu             0.09;
        kappa           0.41;
        E               9.8;
        type            epsilonWallFunction;
        value           nonuniform List<scalar> 6(0.000141932 0.000154596 0.000179126 0.000486075 0.000523929 0.000284156);
    }
    sideWalls
    {
        type            empty;
    }
    glass1
    {
        Cmu             0.09;
        kappa           0.41;
        E               9.8;
        type            epsilonWallFunction;
        value           nonuniform List<scalar> 9(0.000261779 0.000710018 0.00137177 0.00236357 0.00382781 0.00596925 0.00874372 0.00952119 0.00895448);
    }
    glass2
    {
        Cmu             0.09;
        kappa           0.41;
        E               9.8;
        type            epsilonWallFunction;
        value           nonuniform List<scalar> 2(0.000819011 0.00072884);
    }
    sun
    {
        Cmu             0.09;
        kappa           0.41;
        E               9.8;
        type            epsilonWallFunction;
        value           nonuniform List<scalar> 
14
(
0.000261779
0.000327148
0.000340248
0.000386445
0.000431088
0.000474337
0.0005175
0.000562624
0.000608482
0.000643036
0.00065792
0.000645474
0.00060411
0.000543341
)
;
    }
    heatsource1
    {
        Cmu             0.09;
        kappa           0.41;
        E               9.8;
        type            epsilonWallFunction;
        value           nonuniform List<scalar> 3(5.67708e-05 0.000104186 0.000141932);
    }
    heatsource2
    {
        Cmu             0.09;
        kappa           0.41;
        E               9.8;
        type            epsilonWallFunction;
        value           nonuniform List<scalar> 4(0.000501337 0.000164046 0.000164046 0.000457506);
    }
    Table_master
    {
        Cmu             0.09;
        kappa           0.41;
        E               9.8;
        type            epsilonWallFunction;
        value           nonuniform List<scalar> 9(9.6295e-05 7.09203e-05 5.35529e-05 4.14197e-05 3.27296e-05 2.63549e-05 2.15995e-05 1.80977e-05 1.56672e-05);
    }
    Table_slave
    {
        Cmu             0.09;
        kappa           0.41;
        E               9.8;
        type            epsilonWallFunction;
        value           nonuniform List<scalar> 9(0.000126324 0.00010078 8.47423e-05 7.34369e-05 6.41152e-05 5.6312e-05 4.91643e-05 4.21081e-05 3.45387e-05);
    }
    inlet
    {
        type            turbulentMixingLengthDissipationRateInlet;
        mixingLength    0.01;
        phi             phi;
        k               k;
        value           uniform 0.000101881;
    }
    outlet
    {
        type            zeroGradient;
    }
}


// ************************************************************************* //
