/*--------------------------------*- C++ -*----------------------------------*\
  =========                 |
  \\      /  F ield         | OpenFOAM: The Open Source CFD Toolbox
   \\    /   O peration     | Website:  https://openfoam.org
    \\  /    A nd           | Version:  6
     \\/     M anipulation  |
\*---------------------------------------------------------------------------*/
FoamFile
{
    version     2.0;
    format      ascii;
    class       volScalarField;
    location    "600";
    object      nut;
}
// * * * * * * * * * * * * * * * * * * * * * * * * * * * * * * * * * * * * * //

dimensions      [0 2 -1 0 0 0 0];

internalField   nonuniform List<scalar> 
459
(
0.000793403
0.000839
0.000838707
0.000867124
0.000891009
0.000911154
0.000928603
0.000944361
0.000959495
0.000972411
0.000979625
0.000979196
0.000970522
0.000956382
0.000940917
0.000468705
0.000492233
0.000475484
0.00045733
0.000440415
0.000424611
0.000409558
0.000395697
0.000383066
0.000371585
0.000361088
0.000351391
0.000342307
0.000333606
0.000324938
0.00031578
0.000305184
0.000297024
0.000275674
0.00114868
0.00201408
0.00176836
0.00202153
0.00219484
0.00237701
0.00255629
0.00271596
0.00283074
0.0029038
0.00293857
0.0029003
0.00273948
0.00238544
0.00174139
0.000951132
0.00082987
0.000641551
0.000786736
0.000866011
0.000920655
0.000947763
0.00094747
0.000871841
0.000819629
0.000778629
0.000741995
0.000707489
0.000674199
0.000640471
0.000603486
0.00056126
0.000523511
0.000491647
0.000590618
0.000347315
0.0014669
0.0028348
0.00198324
0.00271322
0.00291628
0.00305849
0.00316093
0.0032367
0.00329534
0.00334697
0.00339071
0.00339913
0.00334316
0.00320185
0.00294531
0.00240002
0.0010164
0.000732949
0.000988477
0.00111128
0.00120713
0.0012806
0.00125751
0.000483191
0.000446334
0.000415548
0.000389897
0.000368465
0.000350484
0.00033542
0.000323052
0.00031367
0.00034802
0.000406403
0.000670274
0.000402095
0.00179601
0.00405828
0.00187579
0.00293866
0.00318228
0.00324429
0.00324868
0.00323922
0.00324763
0.00328388
0.00333488
0.00336666
0.00334927
0.00327635
0.00317567
0.00306714
0.00285699
0.000873726
0.00117075
0.00133224
0.00144772
0.00156722
0.00168851
0.00165384
0.000537488
0.000523746
0.000518223
0.000514579
0.000508027
0.000495935
0.000482688
0.000466465
0.0004444
0.000416676
0.00042148
0.000784559
0.000447663
0.00214116
0.00576817
0.00212862
0.00277
0.00323338
0.00326227
0.00320003
0.00313073
0.00311594
0.00316506
0.00325105
0.00331473
0.00331009
0.00321513
0.00306173
0.00292311
0.00282322
0.00248044
0.00210642
0.00192755
0.00189344
0.00196515
0.00207647
0.00216831
0.00210734
0.00213295
0.00216696
0.00217825
0.00215065
0.00206638
0.0018808
0.00162535
0.00132365
0.000994821
0.000730039
0.000771439
0.000555193
0.000605029
0.000725335
0.000804048
0.00250599
0.00768365
0.00347837
0.00240714
0.00300055
0.00317392
0.00314869
0.00305151
0.00299656
0.00307886
0.00321688
0.00331452
0.00332166
0.00319879
0.00298713
0.00278921
0.00265389
0.00241749
0.00214382
0.00203418
0.00204656
0.00211192
0.00221506
0.00234152
0.00246152
0.00256844
0.00264454
0.0026813
0.0026758
0.00262662
0.00249016
0.00225745
0.00192909
0.00152445
0.00114491
0.000853707
0.00069894
0.000654741
0.000996125
0.000832956
0.00288187
0.00926812
0.00624688
0.0032997
0.00255401
0.00255527
0.00276211
0.00296295
0.00297092
0.00311662
0.00326212
0.0033545
0.00334922
0.00319695
0.00293594
0.00269855
0.00255766
0.00234372
0.00210446
0.00205836
0.00205901
0.00211258
0.00222267
0.00235649
0.00249187
0.00261001
0.00269371
0.0027435
0.00276246
0.00275599
0.00272109
0.00254116
0.00223501
0.00184739
0.00148605
0.00115128
0.000949353
0.000909232
0.000979003
0.000890674
0.00298432
0.00921554
0.0075771
0.00599174
0.00453201
0.00358678
0.00321025
0.00324821
0.00330331
0.00334654
0.00340428
0.00344296
0.00339041
0.00316961
0.00283772
0.00257276
0.00246565
0.00227648
0.00207944
0.00200337
0.00198208
0.00204426
0.00214454
0.00225395
0.00235829
0.00244806
0.00251744
0.00257021
0.00261494
0.00266341
0.0027238
0.00273679
0.00248963
0.00216943
0.00190318
0.00178654
0.0018956
0.00239085
0.00327926
0.00146998
0.00293739
0.00358106
0.00404237
0.00421298
0.00413844
0.00389016
0.00365623
0.00353906
0.00347796
0.00348451
0.00351985
0.00352125
0.00339193
0.00304759
0.00261877
0.00234814
0.00232212
0.00215174
0.00196045
0.00184288
0.00182727
0.00187849
0.00195008
0.00202177
0.00208386
0.00213026
0.00215733
0.00216378
0.00214904
0.0021127
0.00205518
0.00198031
0.00191001
0.00187177
0.00189079
0.00195846
0.00201144
0.00198234
0.00187329
0.00137602
0.00208753
0.00359503
0.00397576
0.00401694
0.00396722
0.00392273
0.00388261
0.00382449
0.0037329
0.00356476
0.00323301
0.0026898
0.0021801
0.00195898
0.00206022
0.00195226
0.00171306
0.00158058
0.00156436
0.00159803
0.00164571
0.00169365
0.00173557
0.00176822
0.00179041
0.00180299
0.00180882
0.00181294
0.00182239
0.00184615
0.00187652
0.00191962
0.0019733
0.00201373
0.00199876
0.00190708
0.00174252
0.00113522
0.00223231
0.00415726
0.00444828
0.00437709
0.00425784
0.00411962
0.00395434
0.00372195
0.00339311
0.00299623
0.00249346
0.00189514
0.00145013
0.00126964
0.00139808
0.00130577
0.00114364
0.00107873
0.00108604
0.00112461
0.0011776
0.00123899
0.00130645
0.00137902
0.0014561
0.00153678
0.00161912
0.00169934
0.00177537
0.00185854
0.00194936
0.00204651
0.00214069
0.00221783
0.00223711
0.00231161
0.00223945
0.00114972
0.00194392
0.00205331
0.00214364
0.00228612
0.00216699
0.00201606
0.00185263
0.00170019
0.0015462
0.00140282
0.00128166
0.00116578
0.00104137
0.000803611
0.000496606
0.000453826
0.000452014
0.000452508
0.000463725
0.000482029
0.000503949
0.000528067
0.000553803
0.000580922
0.000609353
0.000639149
0.00067049
0.000703735
0.000739528
0.000779
0.000823467
0.000872074
0.000925623
0.000985191
0.00105178
0.00113617
0.0011675
0.00114471
0.0010737
0.000997722
)
;

boundaryField
{
    floor
    {
        type            nutkWallFunction;
        Cmu             0.09;
        kappa           0.41;
        E               9.8;
        value           nonuniform List<scalar> 
29
(
0.000113744
5.57176e-05
5.87177e-05
5.65684e-05
5.42285e-05
5.20376e-05
4.9981e-05
4.80131e-05
4.61927e-05
4.45268e-05
4.30064e-05
4.16111e-05
4.03173e-05
3.91013e-05
3.79324e-05
3.67641e-05
3.55252e-05
3.4086e-05
3.29729e-05
3.00414e-05
3.00413e-05
3.9771e-05
4.70331e-05
5.29775e-05
0.000113744
5.57175e-05
7.75194e-05
8.87558e-05
0.000105746
)
;
    }
    ceiling
    {
        type            nutkWallFunction;
        Cmu             0.09;
        kappa           0.41;
        E               9.8;
        value           nonuniform List<scalar> 
43
(
0.000227171
0.000239077
0.000248859
0.000264289
0.000251492
0.000235146
0.000217285
0.000200467
0.000183309
0.000167163
0.000153375
0.000140054
0.000125583
9.73695e-05
5.92899e-05
5.37818e-05
5.35474e-05
5.36107e-05
5.50588e-05
5.74137e-05
6.02196e-05
6.32897e-05
6.65469e-05
6.99591e-05
7.35157e-05
7.72216e-05
8.10973e-05
8.51848e-05
8.956e-05
9.43559e-05
9.97246e-05
0.000105554
0.000111934
0.00011898
0.000126799
0.000136628
0.000140256
0.000137618
0.000129361
0.000120456
0.000333567
0.000400254
0.000258337
)
;
    }
    sWall
    {
        type            nutkWallFunction;
        Cmu             0.09;
        kappa           0.41;
        E               9.8;
        value           uniform 0.000227233;
    }
    nWall
    {
        type            nutkWallFunction;
        Cmu             0.09;
        kappa           0.41;
        E               9.8;
        value           nonuniform List<scalar> 6(9.73849e-05 0.000100867 0.000107778 0.000136527 0.000138208 0.000120462);
    }
    sideWalls
    {
        type            empty;
    }
    glass1
    {
        type            nutkWallFunction;
        Cmu             0.09;
        kappa           0.41;
        E               9.8;
        value           nonuniform List<scalar> 9(9.60963e-05 0.000138203 0.000174634 0.000211389 0.000249151 0.000288362 0.000328133 0.000338887 0.000333984);
    }
    glass2
    {
        type            nutkWallFunction;
        Cmu             0.09;
        kappa           0.41;
        E               9.8;
        value           nonuniform List<scalar> 2(0.000174835 0.000164202);
    }
    sun
    {
        type            nutkWallFunction;
        Cmu             0.09;
        kappa           0.41;
        E               9.8;
        value           nonuniform List<scalar> 
14
(
9.60954e-05
0.000101588
0.000101553
0.000104958
0.000107811
0.000110209
0.000112282
0.00011415
0.000115941
0.000117466
0.000118317
0.000118267
0.000117244
0.000115574
)
;
    }
    heatsource1
    {
        type            nutkWallFunction;
        Cmu             0.09;
        kappa           0.41;
        E               9.8;
        value           nonuniform List<scalar> 3(7.29774e-05 8.78284e-05 9.73841e-05);
    }
    heatsource2
    {
        type            nutkWallFunction;
        Cmu             0.09;
        kappa           0.41;
        E               9.8;
        value           nonuniform List<scalar> 4(0.000114953 0.000100499 0.000100499 0.000122651);
    }
    Table_master
    {
        type            nutkWallFunction;
        Cmu             0.09;
        kappa           0.41;
        E               9.8;
        value           nonuniform List<scalar> 9(5.75646e-05 5.28116e-05 4.88039e-05 4.5436e-05 4.26005e-05 4.02054e-05 3.81866e-05 3.65204e-05 3.52512e-05);
    }
    Table_slave
    {
        type            nutkWallFunction;
        Cmu             0.09;
        kappa           0.41;
        E               9.8;
        value           nonuniform List<scalar> 9(6.44852e-05 6.27421e-05 6.20401e-05 6.15765e-05 6.07416e-05 5.91971e-05 5.74999e-05 5.54134e-05 5.25609e-05);
    }
    inlet
    {
        type            calculated;
        value           uniform 0.000100623;
    }
    outlet
    {
        type            calculated;
        value           nonuniform List<scalar> 2(0.00194392 0.00205331);
    }
}


// ************************************************************************* //
