/*--------------------------------*- C++ -*----------------------------------*\
  =========                 |
  \\      /  F ield         | OpenFOAM: The Open Source CFD Toolbox
   \\    /   O peration     | Website:  https://openfoam.org
    \\  /    A nd           | Version:  6
     \\/     M anipulation  |
\*---------------------------------------------------------------------------*/
FoamFile
{
    version     2.0;
    format      ascii;
    class       volScalarField;
    location    "20";
    object      nut;
}
// * * * * * * * * * * * * * * * * * * * * * * * * * * * * * * * * * * * * * //

dimensions      [0 2 -1 0 0 0 0];

internalField   nonuniform List<scalar> 
459
(
0.00130263
0.00151452
0.00157692
0.00167523
0.00176163
0.00182046
0.00183427
0.00177149
0.00167996
0.00157371
0.00146307
0.00138169
0.00131006
0.00123258
0.00113885
0.000823308
0.000990693
0.00107245
0.00109879
0.00107213
0.000977898
0.000803276
0.000688875
0.000638434
0.000621804
0.000617518
0.000617603
0.000621965
0.000637987
0.000685907
0.000786256
0.000832588
0.00083125
0.000777231
0.00169552
0.00677323
0.00819977
0.00917132
0.00992631
0.0106214
0.0112178
0.0115257
0.0112964
0.010722
0.00991767
0.0088302
0.00780244
0.00672549
0.005038
0.00137449
0.000972684
0.00114853
0.00502177
0.00627514
0.00673159
0.00637099
0.00510495
0.00289788
0.00210396
0.00175749
0.00162856
0.001591
0.0015904
0.00162179
0.0017249
0.00203388
0.00309564
0.00363161
0.0035597
0.00100818
0.00197953
0.00925359
0.0108903
0.012191
0.012835
0.0135759
0.01471
0.0159047
0.0164825
0.0163726
0.0157335
0.0146371
0.0133507
0.0118606
0.00969475
0.00585605
0.00136887
0.00143377
0.00718456
0.00968917
0.0103649
0.00952587
0.00681201
0.00114521
0.000767536
0.000652057
0.000624374
0.000618644
0.000619052
0.000627153
0.000670863
0.00088779
0.00408956
0.00536015
0.00497584
0.00121151
0.00221007
0.0103855
0.0112981
0.0121673
0.0121403
0.0126055
0.0142565
0.0165102
0.0181864
0.0189788
0.0189926
0.0183359
0.0172255
0.0157356
0.0136213
0.0103682
0.00594081
0.00165525
0.00584994
0.0099679
0.0124398
0.0130738
0.0119826
0.00841099
0.00150149
0.00132306
0.00127824
0.00126021
0.00125218
0.00125064
0.0012552
0.00127077
0.00134782
0.00535963
0.0071653
0.00625759
0.00140036
0.0023979
0.0109544
0.0108731
0.0107013
0.00971491
0.00983704
0.011973
0.0152105
0.0179508
0.0197479
0.0205757
0.0205231
0.0197962
0.0185629
0.0168076
0.0144193
0.0116065
0.00955386
0.0114082
0.0137231
0.0151776
0.0155302
0.0147402
0.0126833
0.00950858
0.00884471
0.00857007
0.00841819
0.00832648
0.00827152
0.0082438
0.00825228
0.00839858
0.00972439
0.0100075
0.00860444
0.00457801
0.00136584
0.00109621
0.000848103
0.00254341
0.0112038
0.0104423
0.00893742
0.00714151
0.00699155
0.00931941
0.0130339
0.0166461
0.0193776
0.0210169
0.0215882
0.0213091
0.0204347
0.0191272
0.01751
0.0158918
0.0149716
0.0155829
0.0165932
0.0172769
0.0173826
0.0168514
0.0157321
0.014328
0.0135921
0.0131841
0.0129354
0.0127727
0.0126596
0.0125762
0.0125169
0.0125072
0.0126278
0.0122208
0.0108585
0.00824653
0.00532692
0.00381951
0.00100528
0.00260418
0.010866
0.0101299
0.00757797
0.00562082
0.00528139
0.00711277
0.0108015
0.0149266
0.0183735
0.0206818
0.0217654
0.0218631
0.0213126
0.0203883
0.0193006
0.0183074
0.0177441
0.017803
0.0181029
0.0183028
0.0182357
0.0178526
0.0171985
0.0164437
0.0158741
0.0154791
0.0152042
0.0150054
0.0148497
0.0147117
0.0145674
0.0143852
0.0140859
0.013397
0.0120701
0.0100199
0.00748044
0.00485097
0.00107292
0.00255841
0.00832556
0.00757796
0.00581668
0.00454814
0.00435571
0.00582995
0.00919068
0.0133987
0.0171853
0.019818
0.0211272
0.0213875
0.0210253
0.0203505
0.0195629
0.0188419
0.0183432
0.0181199
0.0180408
0.0179591
0.017782
0.0174729
0.01705
0.0165853
0.0161766
0.0158509
0.0155993
0.0154011
0.0152307
0.0150649
0.0148744
0.0146152
0.014199
0.0134497
0.0121098
0.0099024
0.00674991
0.00359481
0.00110565
0.00243674
0.00270612
0.00276599
0.00262867
0.0027422
0.00354042
0.00542279
0.00867172
0.0126299
0.0161352
0.0184703
0.0194405
0.0195769
0.0192589
0.0187096
0.0180692
0.0174456
0.0169268
0.0165538
0.0162878
0.0160681
0.0158447
0.0155893
0.0153001
0.0149995
0.0147198
0.0144782
0.0142763
0.0141056
0.0139532
0.0137992
0.0136167
0.0133738
0.0130013
0.012388
0.011336
0.00949239
0.00658773
0.00342908
0.00134996
0.000440607
0.00132388
0.0032377
0.00535333
0.00758619
0.010184
0.0129146
0.0147652
0.0158048
0.0161831
0.016133
0.0158276
0.015378
0.0148638
0.0143507
0.0138955
0.0135343
0.0132656
0.0130562
0.0128759
0.0127031
0.0125287
0.0123552
0.0121915
0.0120443
0.0119154
0.0118012
0.0116937
0.0115815
0.0114499
0.0112787
0.0110434
0.0107017
0.0101715
0.00927451
0.007727
0.00540546
0.00162904
0.00166127
0.00732187
0.00891117
0.0094378
0.00978201
0.0102128
0.0107513
0.0111142
0.0112842
0.0113156
0.011259
0.0111503
0.0110163
0.0108805
0.0107625
0.0106737
0.0106107
0.0105656
0.0105287
0.0104916
0.010448
0.0103964
0.0103399
0.0102837
0.0102327
0.0101892
0.0101521
0.0101164
0.010074
0.0100142
0.00992286
0.00978082
0.00956027
0.00922556
0.0087268
0.00796896
0.00682781
0.00208654
0.00162498
0.00177524
0.00193598
0.00220299
0.00217579
0.00213282
0.00210259
0.00207704
0.00205411
0.00203122
0.00201396
0.00200252
0.00199527
0.0019907
0.00198788
0.00198624
0.00198522
0.00198376
0.0019818
0.00198054
0.00197957
0.00197827
0.00197678
0.00197513
0.00197343
0.00197178
0.00197032
0.00196907
0.00196794
0.00196685
0.00196523
0.00196224
0.00195708
0.00194811
0.00193268
0.00190733
0.00186783
0.00181357
0.00175767
0.00153383
)
;

boundaryField
{
    floor
    {
        type            nutkWallFunction;
        Cmu             0.09;
        kappa           0.41;
        E               9.8;
        value           nonuniform List<scalar> 
29
(
0.000137103
9.97765e-05
0.000119752
0.000129371
0.00013245
0.000129335
0.000118258
9.73963e-05
8.34509e-05
7.72216e-05
7.51565e-05
7.46237e-05
7.46347e-05
7.51785e-05
7.71718e-05
8.30986e-05
9.53534e-05
0.000100936
0.000100746
9.4198e-05
9.4198e-05
0.000121771
0.000145448
0.000167056
0.000137103
9.97765e-05
0.000138189
0.000170873
0.000195769
)
;
    }
    ceiling
    {
        type            nutkWallFunction;
        Cmu             0.09;
        kappa           0.41;
        E               9.8;
        value           nonuniform List<scalar> 
43
(
0.000192159
0.000208828
0.000226492
0.000255513
0.000252603
0.000247976
0.000244725
0.000241979
0.000239505
0.000237024
0.000235147
0.000233901
0.000233109
0.000232607
0.000232294
0.00023211
0.000231992
0.000231824
0.000231606
0.000231465
0.000231356
0.000231213
0.000231048
0.000230867
0.00023068
0.000230499
0.000230339
0.000230201
0.000230077
0.000229956
0.000229779
0.000229453
0.000228889
0.000227909
0.000226223
0.00022345
0.00021912
0.000213151
0.000206975
0.000182014
0.000280762
0.000309354
0.000196197
)
;
    }
    sWall
    {
        type            nutkWallFunction;
        Cmu             0.09;
        kappa           0.41;
        E               9.8;
        value           uniform 0.000192193;
    }
    nWall
    {
        type            nutkWallFunction;
        Cmu             0.09;
        kappa           0.41;
        E               9.8;
        value           nonuniform List<scalar> 6(0.000102756 0.000121483 0.000129439 0.00019267 0.000242995 0.000182029);
    }
    sideWalls
    {
        type            empty;
    }
    glass1
    {
        type            nutkWallFunction;
        Cmu             0.09;
        kappa           0.41;
        E               9.8;
        value           nonuniform List<scalar> 9(0.00015597 0.000200254 0.000231553 0.000256604 0.000276808 0.000292338 0.000298787 0.000293909 0.000280923);
    }
    glass2
    {
        type            nutkWallFunction;
        Cmu             0.09;
        kappa           0.41;
        E               9.8;
        value           nonuniform List<scalar> 2(0.000133238 0.000161259);
    }
    sun
    {
        type            nutkWallFunction;
        Cmu             0.09;
        kappa           0.41;
        E               9.8;
        value           nonuniform List<scalar> 
14
(
0.000155895
0.000179928
0.000186933
0.000197903
0.000207463
0.000213928
0.000215406
0.000208461
0.000198322
0.000186487
0.000174087
0.000164914
0.000156786
0.000147926
)
;
    }
    heatsource1
    {
        type            nutkWallFunction;
        Cmu             0.09;
        kappa           0.41;
        E               9.8;
        value           nonuniform List<scalar> 3(0.000163164 0.000132111 0.000102756);
    }
    heatsource2
    {
        type            nutkWallFunction;
        Cmu             0.09;
        kappa           0.41;
        E               9.8;
        value           nonuniform List<scalar> 4(0.000164169 0.000117585 0.000117585 0.000163562);
    }
    Table_master
    {
        type            nutkWallFunction;
        Cmu             0.09;
        kappa           0.41;
        E               9.8;
        value           nonuniform List<scalar> 9(0.000137851 9.30625e-05 7.8903e-05 7.54691e-05 7.47566e-05 7.48079e-05 7.58171e-05 8.12381e-05 0.00010758);
    }
    Table_slave
    {
        type            nutkWallFunction;
        Cmu             0.09;
        kappa           0.41;
        E               9.8;
        value           nonuniform List<scalar> 9(0.000178562 0.00015833 0.000153202 0.000151133 0.000150211 0.000150033 0.000150555 0.00015234 0.000161154);
    }
    inlet
    {
        type            calculated;
        value           uniform 0.000100623;
    }
    outlet
    {
        type            calculated;
        value           nonuniform List<scalar> 2(0.00162498 0.00177524);
    }
}


// ************************************************************************* //
