// -*- C++ -*-
// File generated by PyFoam - sorry for the ugliness

FoamFile
{
 version 2.0;
 format ascii;
 class volVectorField;
 location "1200";
 object U;
}

dimensions [ 0 1 -1 0 0 0 0 ];

internalField nonuniform List<vector> 459
(
  (0.377356 -0.15119 0)
  (0.277666 -0.159977 0)
  (0.425041 -0.108234 0)
  (0.53968 -0.0712571 0)
  (0.593299 -0.0497804 0)
  (0.614087 -0.0355236 0)
  (0.621472 -0.0244553 0)
  (0.618637 -0.0149457 0)
  (0.604858 -0.00607121 0)
  (0.579542 0.00292334 0)
  (0.541726 0.0128912 0)
  (0.489376 0.0251453 0)
  (0.418197 0.0427458 0)
  (0.314828 0.0763701 0)
  (0.231908 0.166998 0)
  (0.0390545 0.00772511 0)
  (-0.0129886 -0.00745865 0)
  (0.00162076 -0.00872063 0)
  (0.00821405 -0.00604604 0)
  (0.0121349 -0.00334765 0)
  (0.010932 0.000319734 0)
  (0.00511529 0.00302941 0)
  (-0.00364534 0.00297262 0)
  (-0.00862108 0.00211016 0)
  (-0.0108801 0.00167941 0)
  (-0.0126223 0.00165952 0)
  (-0.0149009 0.000948508 0)
  (-0.0161263 -0.00177823 0)
  (-0.0116172 -0.00559959 0)
  (-0.00404102 -0.00993255 0)
  (0.00950789 -0.0107403 0)
  (0.0163315 -0.0137518 0)
  (0.0290461 -0.00779136 0)
  (-0.0166084 0.0120343 0)
  (0.513015 -0.34571 0)
  (0.22878 -0.274413 0)
  (0.356477 -0.153616 0)
  (0.447241 -0.0799855 0)
  (0.482042 -0.042015 0)
  (0.495457 -0.0175399 0)
  (0.502422 0.00264671 0)
  (0.502296 0.0202847 0)
  (0.492558 0.0363525 0)
  (0.472661 0.0523913 0)
  (0.44211 0.0698881 0)
  (0.400566 0.0905496 0)
  (0.349366 0.117127 0)
  (0.292398 0.155145 0)
  (0.259917 0.222388 0)
  (0.230102 0.193184 0)
  (0.114077 0.136288 0)
  (0.0838834 -0.00782989 0)
  (0.0303312 -0.00595366 0)
  (0.0145468 -0.00445661 0)
  (0.00869666 -0.00196925 0)
  (0.00606709 0.00171558 0)
  (0.00451649 0.00712175 0)
  (0.00300615 0.00921282 0)
  (-0.00103091 0.00596255 0)
  (-0.000958377 0.0039435 0)
  (7.53401e-05 0.00306584 0)
  (0.0010078 0.00302543 0)
  (0.00149107 0.00307324 0)
  (0.00180016 0.00142977 0)
  (0.00398895 -0.00428299 0)
  (0.000296425 -0.0122504 0)
  (0.0117215 -0.01255 0)
  (0.0113514 -0.0165193 0)
  (0.027827 -0.00864157 0)
  (-0.0575097 0.0297529 0)
  (0.567159 -0.536939 0)
  (0.0813303 -0.370658 0)
  (0.241713 -0.202359 0)
  (0.311746 -0.11546 0)
  (0.327455 -0.0724691 0)
  (0.335793 -0.0426231 0)
  (0.343606 -0.0167164 0)
  (0.348755 0.00839713 0)
  (0.346758 0.0342328 0)
  (0.337045 0.0617221 0)
  (0.31919 0.0915731 0)
  (0.293233 0.124376 0)
  (0.260712 0.160736 0)
  (0.222854 0.200727 0)
  (0.192836 0.243685 0)
  (0.15118 0.206139 0)
  (0.0862421 0.166899 0)
  (0.0482466 -0.0155606 0)
  (-0.028025 -0.000625843 0)
  (-0.0267524 0.00385457 0)
  (-0.0259985 0.00267107 0)
  (-0.024255 0.00195899 0)
  (-0.0190846 0.00303032 0)
  (0.00530497 0.00935698 0)
  (0.00682733 0.00126522 0)
  (0.00978999 -0.00213206 0)
  (0.0123635 -0.00413567 0)
  (0.0140198 -0.00527632 0)
  (0.0149152 -0.00600354 0)
  (0.0149718 -0.0073286 0)
  (0.0119851 -0.00970844 0)
  (-0.00609754 -0.012181 0)
  (0.0118866 -0.00854774 0)
  (-0.0105741 0.00334117 0)
  (-0.0459197 0.0150919 0)
  (-0.121164 0.0238817 0)
  (0.592542 -0.659018 0)
  (-0.0664868 -0.420289 0)
  (0.156958 -0.227672 0)
  (0.193974 -0.132765 0)
  (0.186061 -0.0849379 0)
  (0.190701 -0.0493816 0)
  (0.198508 -0.0187071 0)
  (0.206339 0.0109164 0)
  (0.209272 0.0415991 0)
  (0.206727 0.0747318 0)
  (0.198112 0.110767 0)
  (0.183073 0.14952 0)
  (0.162067 0.190189 0)
  (0.134071 0.230998 0)
  (0.109133 0.269376 0)
  (0.0765805 0.254399 0)
  (0.048453 0.224378 0)
  (-0.0384886 0.0943746 0)
  (-0.0642132 0.00706623 0)
  (-0.0670055 0.00459931 0)
  (-0.0695144 0.00344771 0)
  (-0.0735836 0.000804667 0)
  (-0.0772369 -0.00242308 0)
  (-0.0800535 -0.00544224 0)
  (-0.0797418 -0.00620613 0)
  (-0.0744123 -0.00755226 0)
  (-0.0666064 -0.00990421 0)
  (-0.0556694 -0.0126351 0)
  (-0.0416165 -0.0157593 0)
  (-0.0248496 -0.019077 0)
  (-0.00396132 -0.0219047 0)
  (0.0184557 -0.0215828 0)
  (0.038334 -0.0190512 0)
  (0.0487283 -0.0121763 0)
  (0.0508126 0.00516335 0)
  (0.0446918 0.0161007 0)
  (-0.0220167 0.0196345 0)
  (0.585229 -0.724366 0)
  (-0.169605 -0.451376 0)
  (0.102676 -0.24651 0)
  (0.093995 -0.132372 0)
  (0.0604803 -0.0881805 0)
  (0.0693288 -0.055038 0)
  (0.0781381 -0.0257135 0)
  (0.086972 0.00538658 0)
  (0.0912314 0.0399971 0)
  (0.091462 0.0782597 0)
  (0.0874271 0.119872 0)
  (0.0786132 0.163989 0)
  (0.0651105 0.209335 0)
  (0.0452701 0.254059 0)
  (0.0294198 0.295605 0)
  (0.00557659 0.292827 0)
  (-0.00444761 0.253594 0)
  (-0.0538045 0.0910711 0)
  (-0.0545373 0.0191231 0)
  (-0.0664718 0.0110203 0)
  (-0.0724018 0.00872573 0)
  (-0.0755213 0.00588376 0)
  (-0.0772155 0.0023152 0)
  (-0.0775814 -0.00133278 0)
  (-0.0760486 -0.00458111 0)
  (-0.0723824 -0.00845474 0)
  (-0.0667716 -0.0127278 0)
  (-0.0590903 -0.0174315 0)
  (-0.0493239 -0.0224574 0)
  (-0.0377194 -0.0273715 0)
  (-0.0245681 -0.0310674 0)
  (-0.0104632 -0.0319371 0)
  (0.00570903 -0.0281967 0)
  (0.0202829 -0.0194406 0)
  (0.0390906 -0.00117518 0)
  (0.060123 0.0170196 0)
  (0.0608754 0.0314282 0)
  (0.0836078 0.0363382 0)
  (0.0977995 0.0503939 0)
  (-0.337621 -0.0248227 0)
  (0.532659 -0.736584 0)
  (-0.21396 -0.462391 0)
  (0.0409644 -0.24111 0)
  (0.00146924 -0.0990898 0)
  (-0.0447522 -0.0865607 0)
  (-0.0304166 -0.0619803 0)
  (-0.0244722 -0.0347282 0)
  (-0.0187139 -0.00183639 0)
  (-0.0151181 0.0369807 0)
  (-0.0144486 0.0792413 0)
  (-0.0156068 0.124995 0)
  (-0.0194344 0.173311 0)
  (-0.0260318 0.222814 0)
  (-0.0364608 0.270903 0)
  (-0.0417438 0.310864 0)
  (-0.051959 0.308738 0)
  (-0.0468216 0.257321 0)
  (-0.0634162 0.101155 0)
  (-0.0556323 0.033848 0)
  (-0.0636642 0.018062 0)
  (-0.0674812 0.0117331 0)
  (-0.0691125 0.00682544 0)
  (-0.0696341 0.00191137 0)
  (-0.0693206 -0.00293099 0)
  (-0.0682141 -0.00763258 0)
  (-0.066305 -0.0126589 0)
  (-0.0635975 -0.0181898 0)
  (-0.0600568 -0.0242073 0)
  (-0.0557299 -0.0304577 0)
  (-0.0508039 -0.0363456 0)
  (-0.0454819 -0.0409048 0)
  (-0.0398157 -0.0429967 0)
  (-0.0333332 -0.0415365 0)
  (-0.0249437 -0.035887 0)
  (-0.0110447 -0.0256594 0)
  (0.0169255 -0.0127617 0)
  (0.0461413 -0.00208459 0)
  (0.0801643 0.0198683 0)
  (0.114255 0.0586272 0)
  (-0.0399642 0.0652015 0)
  (0.415746 -0.67476 0)
  (-0.215979 -0.424374 0)
  (-0.0809076 -0.210319 0)
  (-0.0846581 -0.0687815 0)
  (-0.144828 -0.0836266 0)
  (-0.132119 -0.0661054 0)
  (-0.127575 -0.0385404 0)
  (-0.122976 -0.00358341 0)
  (-0.118065 0.0361415 0)
  (-0.115086 0.0794644 0)
  (-0.111968 0.126271 0)
  (-0.109116 0.175872 0)
  (-0.106557 0.22669 0)
  (-0.10432 0.274862 0)
  (-0.0970131 0.310513 0)
  (-0.0906378 0.305407 0)
  (-0.0725367 0.244404 0)
  (-0.0673259 0.10109 0)
  (-0.0568732 0.0395947 0)
  (-0.0586111 0.0211331 0)
  (-0.0583022 0.0128154 0)
  (-0.0572412 0.00687546 0)
  (-0.0559502 0.00144949 0)
  (-0.0546884 -0.00370476 0)
  (-0.0539554 -0.00865761 0)
  (-0.0537985 -0.0138092 0)
  (-0.0543007 -0.0194314 0)
  (-0.0555613 -0.0254924 0)
  (-0.0577955 -0.0316384 0)
  (-0.061327 -0.0372253 0)
  (-0.0664181 -0.0414862 0)
  (-0.0729491 -0.043791 0)
  (-0.0800967 -0.0437991 0)
  (-0.0861019 -0.0418899 0)
  (-0.0881897 -0.0398314 0)
  (-0.0836472 -0.0409753 0)
  (-0.0733962 -0.0473491 0)
  (-0.0596276 -0.0490935 0)
  (0.0880165 0.022383 0)
  (-0.0849166 0.141095 0)
  (0.23903 -0.528296 0)
  (-0.32841 -0.335952 0)
  (-0.312256 -0.198729 0)
  (-0.192618 -0.0482261 0)
  (-0.266698 -0.0943785 0)
  (-0.237863 -0.0773804 0)
  (-0.22776 -0.0464169 0)
  (-0.220335 -0.00888636 0)
  (-0.212415 0.0321057 0)
  (-0.205451 0.0753557 0)
  (-0.196456 0.121232 0)
  (-0.18498 0.169536 0)
  (-0.170747 0.218665 0)
  (-0.153587 0.264066 0)
  (-0.131553 0.294725 0)
  (-0.108872 0.286141 0)
  (-0.0804291 0.219978 0)
  (-0.0618982 0.0910059 0)
  (-0.0498867 0.0370488 0)
  (-0.0466633 0.0190461 0)
  (-0.0424294 0.0104485 0)
  (-0.0379929 0.00451253 0)
  (-0.0338368 -0.000423961 0)
  (-0.03124 -0.00453493 0)
  (-0.0303761 -0.00819873 0)
  (-0.0312994 -0.0119264 0)
  (-0.0341729 -0.0159696 0)
  (-0.0392761 -0.0201314 0)
  (-0.0471615 -0.0238013 0)
  (-0.05875 -0.0260914 0)
  (-0.0753251 -0.0262211 0)
  (-0.0979847 -0.023951 0)
  (-0.12671 -0.0195747 0)
  (-0.159379 -0.0139989 0)
  (-0.192119 -0.00888116 0)
  (-0.221455 -0.00638781 0)
  (-0.24404 -0.00698524 0)
  (-0.261423 -0.0036947 0)
  (-0.305753 0.0189266 0)
  (-0.485044 0.0689827 0)
  (-0.0206388 -0.384572 0)
  (-0.661173 -0.336668 0)
  (-0.864468 -0.328399 0)
  (-0.247583 -0.16995 0)
  (-0.369394 -0.135683 0)
  (-0.316475 -0.0966617 0)
  (-0.303682 -0.0570658 0)
  (-0.297166 -0.0179092 0)
  (-0.289354 0.0226097 0)
  (-0.278798 0.0644341 0)
  (-0.263359 0.107375 0)
  (-0.242092 0.151754 0)
  (-0.214651 0.196376 0)
  (-0.181407 0.236973 0)
  (-0.143333 0.263071 0)
  (-0.105404 0.25333 0)
  (-0.0681849 0.188619 0)
  (-0.0398056 0.0757698 0)
  (-0.026703 0.0300576 0)
  (-0.0213892 0.0141227 0)
  (-0.0147158 0.0064229 0)
  (-0.00681876 0.00142196 0)
  (-0.001278 -0.00169791 0)
  (0.00186572 -0.00373651 0)
  (0.00288797 -0.00532627 0)
  (0.00191977 -0.00694661 0)
  (-0.00120607 -0.00880112 0)
  (-0.00652367 -0.0105147 0)
  (-0.0141091 -0.0112954 0)
  (-0.023992 -0.010162 0)
  (-0.0360979 -0.00659996 0)
  (-0.0493118 -0.00123395 0)
  (-0.0623019 0.00435437 0)
  (-0.0763739 0.00746688 0)
  (-0.0928018 0.00531759 0)
  (-0.111198 -0.00468233 0)
  (-0.124062 -0.0262608 0)
  (-0.12022 -0.0651376 0)
  (-0.138427 -0.125416 0)
  (-0.451543 -0.201136 0)
  (-1.83807 -0.355858 0)
  (-0.128785 -0.288447 0)
  (-0.361142 -0.167758 0)
  (-0.343144 -0.100844 0)
  (-0.345635 -0.0494793 0)
  (-0.346705 -0.00747659 0)
  (-0.341703 0.0275888 0)
  (-0.329459 0.0591993 0)
  (-0.30868 0.091868 0)
  (-0.278146 0.126076 0)
  (-0.237648 0.161084 0)
  (-0.188395 0.193727 0)
  (-0.133749 0.215474 0)
  (-0.0805826 0.208623 0)
  (-0.0321037 0.155091 0)
  (0.0137743 0.0537168 0)
  (0.0241289 0.0216041 0)
  (0.0282812 0.00918624 0)
  (0.0353109 0.00115846 0)
  (0.0396657 -0.00293967 0)
  (0.0420876 -0.00424737 0)
  (0.0430743 -0.00431051 0)
  (0.0429108 -0.00406313 0)
  (0.0416835 -0.00389314 0)
  (0.0393206 -0.00386595 0)
  (0.0357747 -0.00373757 0)
  (0.0311896 -0.00296841 0)
  (0.0260609 -0.00091455 0)
  (0.0211739 0.00269509 0)
  (0.0178984 0.00708399 0)
  (0.0150584 0.0122678 0)
  (0.0136591 0.017458 0)
  (0.0138353 0.0207257 0)
  (0.0157112 0.0205053 0)
  (0.0236184 0.0164369 0)
  (0.0510476 0.000710471 0)
  (0.106346 -0.0631386 0)
  (-0.12633 -0.172544 0)
  (-0.220343 0.0841295 0)
  (-0.0808799 -0.257636 0)
  (-0.275814 -0.163121 0)
  (-0.330426 -0.123862 0)
  (-0.363901 -0.0963311 0)
  (-0.379374 -0.070013 0)
  (-0.379603 -0.0402229 0)
  (-0.366189 -0.0071319 0)
  (-0.340231 0.0235066 0)
  (-0.30069 0.0535574 0)
  (-0.247371 0.0839225 0)
  (-0.182099 0.1138 0)
  (-0.110012 0.137544 0)
  (-0.038513 0.137501 0)
  (0.0402733 0.0767761 0)
  (0.0885555 0.00578219 0)
  (0.103224 -0.0331724 0)
  (0.105325 -0.0570895 0)
  (0.103013 -0.0669754 0)
  (0.0989837 -0.0692784 0)
  (0.0946713 -0.068079 0)
  (0.0907276 -0.0656078 0)
  (0.0872961 -0.0629022 0)
  (0.0842194 -0.0603068 0)
  (0.0812291 -0.0577971 0)
  (0.0781198 -0.0551548 0)
  (0.0749124 -0.052099 0)
  (0.0720327 -0.0483786 0)
  (0.0705685 -0.0428929 0)
  (0.0707393 -0.0355345 0)
  (0.0730921 -0.0278641 0)
  (0.0777866 -0.0218698 0)
  (0.0841961 -0.0202186 0)
  (0.0910025 -0.0261226 0)
  (0.097515 -0.0374224 0)
  (0.0973255 -0.0516937 0)
  (0.121578 -0.0775867 0)
  (-0.155615 -0.113968 0)
  (0.698845 0.20257 0)
  (0.116263 -0.290616 0)
  (-0.222857 0.162959 0)
  (-0.111559 0.0527628 0)
  (-0.251057 0.0937629 0)
  (-0.315676 0.116592 0)
  (-0.358354 0.128278 0)
  (-0.381687 0.133333 0)
  (-0.387519 0.133583 0)
  (-0.375894 0.132056 0)
  (-0.346909 0.134854 0)
  (-0.300206 0.141271 0)
  (-0.235717 0.151237 0)
  (-0.156974 0.164804 0)
  (-0.0743133 0.180264 0)
  (0.0445203 0.181893 0)
  (0.117985 0.163883 0)
  (0.163895 0.160075 0)
  (0.180835 0.166599 0)
  (0.181938 0.176234 0)
  (0.17646 0.179821 0)
  (0.170037 0.178987 0)
  (0.16383 0.175923 0)
  (0.157859 0.172122 0)
  (0.152176 0.168417 0)
  (0.146909 0.165144 0)
  (0.142188 0.162266 0)
  (0.138166 0.159459 0)
  (0.13505 0.156247 0)
  (0.133168 0.152176 0)
  (0.132698 0.145641 0)
  (0.134178 0.13665 0)
  (0.138067 0.126832 0)
  (0.14399 0.117708 0)
  (0.150469 0.110367 0)
  (0.154943 0.105754 0)
  (0.152004 0.0997435 0)
  (0.137908 0.0905915 0)
  (0.143031 0.0726561 0)
  (-0.175588 0.045671 0)
)
;

boundaryField
{
  floor
  {
    type noSlip;
  }
  ceiling
  {
    type noSlip;
  }
  sWall
  {
    type noSlip;
  }
  nWall
  {
    type noSlip;
  }
  sideWalls
  {
    type empty;
  }
  glass1
  {
    type noSlip;
  }
  glass2
  {
    type noSlip;
  }
  sun
  {
    type noSlip;
  }
  heatsource1
  {
    type noSlip;
  }
  heatsource2
  {
    type noSlip;
  }
  Table_master
  {
    type noSlip;
  }
  Table_slave
  {
    type noSlip;
  }
  inlet
  {
    type fixedValue;
    value uniform (0.1 0 0);
  }
  outlet
  {
    type zeroGradient;
  }
} 	// ************************************************************************* //

