/*--------------------------------*- C++ -*----------------------------------*\
  =========                 |
  \\      /  F ield         | OpenFOAM: The Open Source CFD Toolbox
   \\    /   O peration     | Website:  https://openfoam.org
    \\  /    A nd           | Version:  6
     \\/     M anipulation  |
\*---------------------------------------------------------------------------*/
FoamFile
{
    version     2.0;
    format      ascii;
    class       volScalarField;
    location    "440";
    object      epsilon;
}
// * * * * * * * * * * * * * * * * * * * * * * * * * * * * * * * * * * * * * //

dimensions      [0 2 -3 0 0 0 0];

internalField   nonuniform List<scalar> 
459
(
0.00028743
0.000373831
0.000396335
0.000457946
0.000520919
0.000585733
0.000655536
0.000729459
0.000789324
0.000822625
0.000816969
0.000764742
0.000664998
0.000517924
0.000327975
7.44394e-05
0.000166001
0.000145385
0.000127094
0.000112424
9.83404e-05
8.18633e-05
6.70905e-05
5.51913e-05
4.58043e-05
3.84443e-05
3.25823e-05
2.78263e-05
2.38757e-05
2.04823e-05
1.74123e-05
1.46681e-05
1.16664e-05
1.63178e-05
0.000726658
0.00105007
0.000347293
0.000336381
0.000351526
0.000377457
0.000417317
0.000471765
0.000526859
0.00056645
0.00057576
0.000547634
0.000485572
0.000401332
0.000310453
0.000376906
8.77618e-05
0.000196857
0.000384477
0.000192765
0.000134601
0.000105301
8.75603e-05
8.11588e-05
6.63754e-05
5.31214e-05
4.25071e-05
3.42414e-05
2.78601e-05
2.29062e-05
1.9083e-05
1.64215e-05
1.52215e-05
1.9421e-05
2.26189e-05
3.19932e-05
0.00132896
0.00256732
0.000424247
0.000314793
0.000325961
0.000362545
0.000419554
0.00049471
0.000569539
0.000622808
0.000641472
0.000620875
0.000566001
0.000488604
0.000404952
0.000353906
0.000416793
0.000340755
0.000262957
0.000187141
0.000143721
0.000115567
0.00010296
0.000213465
0.000143332
0.000100468
7.33939e-05
5.56452e-05
4.3623e-05
3.52536e-05
2.93708e-05
2.5411e-05
2.01981e-05
2.16774e-05
3.13371e-05
4.21074e-05
0.00215809
0.00530144
0.000659839
0.000313328
0.000311362
0.000359788
0.000440514
0.000549119
0.000643889
0.000702887
0.000722599
0.00070154
0.000644353
0.00056037
0.000475961
0.000406919
0.000368924
0.000754445
0.000460109
0.000295311
0.000208921
0.000158298
0.00012716
0.000116405
0.000286613
0.000216856
0.000178462
0.000155281
0.000139343
0.000125941
0.000111741
9.83688e-05
8.40138e-05
5.11323e-05
3.6438e-05
5.37389e-05
5.9871e-05
0.00329932
0.00942936
0.00127209
0.000357555
0.000305703
0.000365886
0.000501295
0.000670898
0.000778019
0.000828692
0.000837131
0.000802754
0.000727858
0.000623338
0.000510773
0.000410111
0.000333968
0.000305486
0.000264724
0.000224565
0.000188505
0.000158396
0.000135038
0.000119471
0.000120019
0.000114667
0.000109513
0.00010466
9.93292e-05
9.26306e-05
8.39515e-05
7.44266e-05
6.5278e-05
5.38258e-05
4.31371e-05
5.69696e-05
6.2779e-05
8.64856e-05
8.1461e-05
7.02551e-05
0.00488428
0.0140265
0.00281821
0.000631085
0.00039976
0.000439928
0.000723029
0.000931652
0.00100988
0.00102625
0.00100737
0.000951022
0.000849407
0.000710189
0.000559518
0.000426919
0.000332245
0.000279308
0.000246733
0.000219878
0.000195273
0.000173216
0.000154978
0.000141901
0.000136204
0.000134819
0.000134416
0.000132524
0.000127997
0.00012043
0.000109732
9.55836e-05
8.09187e-05
6.76707e-05
5.61896e-05
5.62631e-05
6.3914e-05
7.11662e-05
0.000172729
0.000132272
0.00680419
0.0168872
0.00606912
0.00205261
0.00122607
0.00110176
0.00136174
0.00141908
0.00138388
0.00132495
0.00125773
0.00116315
0.0010204
0.000834937
0.000640686
0.000475528
0.000363479
0.000302608
0.000270061
0.000247038
0.000227269
0.000210414
0.000197783
0.000190656
0.000189632
0.000192182
0.000193624
0.000190753
0.000182788
0.000171043
0.000157742
0.000144004
0.000126252
0.000110853
9.99415e-05
9.44068e-05
9.60741e-05
0.000103754
0.000276667
0.000216824
0.00733343
0.0202951
0.0106455
0.0065543
0.00438457
0.00335936
0.00267587
0.00222145
0.00192567
0.00173824
0.00160265
0.00145427
0.00125081
0.000999787
0.000751984
0.000552692
0.000426911
0.000363477
0.000333217
0.000315077
0.000302883
0.000295057
0.000292147
0.000294304
0.000299938
0.000305189
0.000304766
0.000294788
0.000275062
0.000250548
0.000229993
0.000220464
0.000223329
0.000228968
0.000252421
0.000291428
0.000353621
0.000430885
0.00158753
0.000421341
0.00685016
0.0118058
0.00977153
0.0072859
0.00545836
0.0042116
0.00335442
0.00278018
0.0024244
0.00221456
0.00205384
0.0018462
0.00154939
0.00120092
0.00089792
0.000681018
0.000571109
0.000526309
0.000509751
0.000505695
0.000508471
0.00051454
0.000523485
0.000535527
0.000547678
0.000554081
0.000546792
0.000518535
0.000467247
0.000401471
0.000341064
0.000305272
0.000303016
0.000332665
0.000389993
0.000482139
0.000610776
0.000774311
0.000954429
0.000521951
0.00453943
0.00616902
0.00498236
0.0041409
0.00355739
0.00319961
0.00302306
0.00291686
0.00275033
0.00243339
0.00198455
0.00151097
0.00124704
0.00112743
0.00109344
0.00109322
0.00110618
0.00112682
0.00115168
0.00117153
0.00118741
0.00120565
0.00122374
0.00123312
0.00121897
0.00116229
0.0010476
0.000877733
0.000690407
0.000539957
0.000446151
0.000404219
0.000418304
0.000486036
0.000597202
0.000728805
0.000885469
0.0008949
0.0028422
0.00424719
0.00423105
0.00430238
0.00442151
0.00463876
0.00490045
0.00506642
0.00497535
0.00455326
0.00396799
0.00343072
0.00310761
0.00295094
0.00290817
0.00293381
0.00298792
0.0030456
0.00309109
0.00311903
0.00313641
0.00316745
0.00321627
0.00327443
0.0033157
0.0032936
0.00315307
0.00286378
0.00246611
0.00201997
0.00158799
0.00122815
0.000970612
0.000821605
0.000758215
0.000760183
0.00189437
0.00132454
0.00115207
0.0014834
0.00190233
0.00203381
0.00178845
0.0018067
0.00197168
0.00219452
0.00240108
0.00254149
0.0025684
0.00246798
0.00231574
0.00216346
0.00204144
0.00196602
0.00192518
0.00190234
0.00188618
0.00187023
0.00185257
0.00183647
0.00182805
0.00182176
0.00181372
0.00179469
0.00175175
0.00167346
0.00155904
0.00142724
0.00128967
0.00115779
0.00104229
0.000948165
0.000878677
0.000832099
0.000798096
0.000761421
0.000838531
0.000763287
)
;

boundaryField
{
    floor
    {
        Cmu             0.09;
        kappa           0.41;
        E               9.8;
        type            epsilonWallFunction;
        value           nonuniform List<scalar> 
29
(
0.000327975
7.44394e-05
0.000166001
0.000145385
0.000127094
0.000112424
9.83404e-05
8.18633e-05
6.70905e-05
5.51913e-05
4.58043e-05
3.84443e-05
3.25823e-05
2.78263e-05
2.38757e-05
2.04823e-05
1.74123e-05
1.46681e-05
1.16664e-05
1.63178e-05
1.63178e-05
3.19932e-05
4.21074e-05
5.9871e-05
0.000327975
7.44394e-05
0.000196857
0.000340755
0.000754445
)
;
    }
    ceiling
    {
        Cmu             0.09;
        kappa           0.41;
        E               9.8;
        type            epsilonWallFunction;
        value           nonuniform List<scalar> 
43
(
0.00115207
0.0014834
0.00190233
0.00203381
0.00178845
0.0018067
0.00197168
0.00219452
0.00240108
0.00254149
0.0025684
0.00246798
0.00231574
0.00216346
0.00204144
0.00196602
0.00192518
0.00190234
0.00188618
0.00187023
0.00185257
0.00183647
0.00182805
0.00182176
0.00181372
0.00179469
0.00175175
0.00167346
0.00155904
0.00142724
0.00128967
0.00115779
0.00104229
0.000948165
0.000878677
0.000832099
0.000798096
0.000761421
0.000838531
0.000763287
0.00685016
0.0118058
0.0028422
)
;
    }
    sWall
    {
        Cmu             0.09;
        kappa           0.41;
        E               9.8;
        type            epsilonWallFunction;
        value           uniform 0.00115207;
    }
    nWall
    {
        Cmu             0.09;
        kappa           0.41;
        E               9.8;
        type            epsilonWallFunction;
        value           nonuniform List<scalar> 6(7.02551e-05 0.000132272 0.000216824 0.0008949 0.00132454 0.000763287);
    }
    sideWalls
    {
        type            empty;
    }
    glass1
    {
        Cmu             0.09;
        kappa           0.41;
        E               9.8;
        type            epsilonWallFunction;
        value           nonuniform List<scalar> 9(0.00028743 0.000726658 0.00132896 0.00215809 0.00329932 0.00488428 0.00680419 0.00733343 0.00685016);
    }
    glass2
    {
        Cmu             0.09;
        kappa           0.41;
        E               9.8;
        type            epsilonWallFunction;
        value           nonuniform List<scalar> 2(0.000421341 0.000521951);
    }
    sun
    {
        Cmu             0.09;
        kappa           0.41;
        E               9.8;
        type            epsilonWallFunction;
        value           nonuniform List<scalar> 
14
(
0.00028743
0.000373831
0.000396335
0.000457946
0.000520919
0.000585733
0.000655536
0.000729459
0.000789324
0.000822625
0.000816969
0.000764742
0.000664998
0.000517924
)
;
    }
    heatsource1
    {
        Cmu             0.09;
        kappa           0.41;
        E               9.8;
        type            epsilonWallFunction;
        value           nonuniform List<scalar> 3(8.64856e-05 8.1461e-05 7.02551e-05);
    }
    heatsource2
    {
        Cmu             0.09;
        kappa           0.41;
        E               9.8;
        type            epsilonWallFunction;
        value           nonuniform List<scalar> 4(0.000376906 8.77618e-05 8.77618e-05 0.000416793);
    }
    Table_master
    {
        Cmu             0.09;
        kappa           0.41;
        E               9.8;
        type            epsilonWallFunction;
        value           nonuniform List<scalar> 9(0.000213465 0.000143332 0.000100468 7.33939e-05 5.56452e-05 4.3623e-05 3.52536e-05 2.93708e-05 2.5411e-05);
    }
    Table_slave
    {
        Cmu             0.09;
        kappa           0.41;
        E               9.8;
        type            epsilonWallFunction;
        value           nonuniform List<scalar> 9(0.000286613 0.000216856 0.000178462 0.000155281 0.000139343 0.000125941 0.000111741 9.83688e-05 8.40138e-05);
    }
    inlet
    {
        type            turbulentMixingLengthDissipationRateInlet;
        mixingLength    0.01;
        phi             phi;
        k               k;
        value           uniform 3.01869e-05;
    }
    outlet
    {
        type            zeroGradient;
    }
}


// ************************************************************************* //
