/*--------------------------------*- C++ -*----------------------------------*\
  =========                 |
  \\      /  F ield         | OpenFOAM: The Open Source CFD Toolbox
   \\    /   O peration     | Website:  https://openfoam.org
    \\  /    A nd           | Version:  6
     \\/     M anipulation  |
\*---------------------------------------------------------------------------*/
FoamFile
{
    version     2.0;
    format      ascii;
    class       volVectorField;
    location    "440";
    object      U;
}
// * * * * * * * * * * * * * * * * * * * * * * * * * * * * * * * * * * * * * //

dimensions      [0 1 -1 0 0 0 0];

internalField   nonuniform List<vector> 
459
(
(0.030843 0.0733774 0)
(-0.142925 0.0215411 0)
(-0.163565 0.0152911 0)
(-0.190247 0.0105761 0)
(-0.209807 0.00523802 0)
(-0.221225 -0.000507828 0)
(-0.223025 -0.00671 0)
(-0.213966 -0.0134061 0)
(-0.194386 -0.0200881 0)
(-0.165675 -0.0256505 0)
(-0.130894 -0.0291647 0)
(-0.094075 -0.0300814 0)
(-0.059365 -0.0280256 0)
(-0.0275585 -0.0220604 0)
(0.0248812 -0.0114143 0)
(-0.112111 0.00340972 0)
(0.0372858 -0.00827838 0)
(0.0280904 -0.0108347 0)
(0.0364625 -0.0105098 0)
(0.0493987 -0.0087823 0)
(0.06011 -0.0064857 0)
(0.0666653 -0.00371989 0)
(0.0696079 -0.00213885 0)
(0.070402 -0.00157818 0)
(0.0703932 -0.00139032 0)
(0.0701284 -0.00124291 0)
(0.0696083 -0.00103913 0)
(0.0686403 -0.000675405 0)
(0.0668215 9.22577e-05 0)
(0.0632613 0.00184255 0)
(0.0562023 0.00557684 0)
(0.0467578 0.0111511 0)
(-0.0211691 0.0219648 0)
(0.126833 -0.0141998 0)
(0.181347 0.150544 0)
(-0.13529 0.0571554 0)
(-0.133335 0.0454222 0)
(-0.161116 0.0357181 0)
(-0.180578 0.0244618 0)
(-0.192255 0.0116502 0)
(-0.194702 -0.00298516 0)
(-0.186542 -0.0190556 0)
(-0.168598 -0.0344379 0)
(-0.142677 -0.0464644 0)
(-0.112051 -0.0532593 0)
(-0.0805014 -0.0540795 0)
(-0.0516133 -0.0490804 0)
(-0.0280523 -0.0385784 0)
(-0.0091547 -0.0220332 0)
(0.000205944 -0.00282914 0)
(6.19474e-05 0.0142544 0)
(-0.142893 0.001704 0)
(0.040327 -0.0291371 0)
(0.0374779 -0.0254855 0)
(0.0463323 -0.0212564 0)
(0.0569096 -0.0166716 0)
(0.0651071 -0.0115481 0)
(0.0691992 -0.00436782 0)
(0.0700381 -0.000146157 0)
(0.0699371 0.00151582 0)
(0.070038 0.00219182 0)
(0.070289 0.00262475 0)
(0.0704547 0.00305719 0)
(0.070469 0.00374486 0)
(0.0702703 0.00519048 0)
(0.0692349 0.00860874 0)
(0.0645256 0.0174845 0)
(0.0574607 0.0271578 0)
(-0.00129791 0.0382302 0)
(0.169437 0.0211473 0)
(0.319546 0.225701 0)
(-0.151014 0.0914352 0)
(-0.101741 0.0737849 0)
(-0.129108 0.0562543 0)
(-0.146727 0.0376317 0)
(-0.157891 0.0168054 0)
(-0.16041 -0.0069825 0)
(-0.151951 -0.0327307 0)
(-0.134296 -0.0566421 0)
(-0.110084 -0.0742055 0)
(-0.0828272 -0.0828915 0)
(-0.0558823 -0.0821196 0)
(-0.0317532 -0.0727694 0)
(-0.0122416 -0.0559901 0)
(0.00258875 -0.0334161 0)
(0.0128042 -0.00989608 0)
(0.012371 0.0190249 0)
(-0.0385221 -0.0303362 0)
(0.0400561 -0.0406229 0)
(0.053286 -0.0379853 0)
(0.0579291 -0.031251 0)
(0.0634802 -0.0245801 0)
(0.0684956 -0.0195568 0)
(0.0704828 -0.0146805 0)
(0.0666979 -0.00970039 0)
(0.0636974 -0.00710387 0)
(0.0628285 -0.00568705 0)
(0.0629978 -0.0047562 0)
(0.0635565 -0.00400263 0)
(0.064584 -0.00317652 0)
(0.0668476 -0.00178319 0)
(0.0721517 0.00265823 0)
(0.0731369 0.0230436 0)
(0.0686666 0.0391668 0)
(0.012459 0.0551515 0)
(0.195868 0.0528666 0)
(0.444504 0.286556 0)
(-0.181619 0.122221 0)
(-0.0678052 0.0983706 0)
(-0.0943852 0.0741889 0)
(-0.107715 0.0503052 0)
(-0.116668 0.0230304 0)
(-0.117556 -0.00976976 0)
(-0.106817 -0.045865 0)
(-0.0887266 -0.0779712 0)
(-0.0667973 -0.0998941 0)
(-0.0440814 -0.109411 0)
(-0.0230555 -0.106737 0)
(-0.00463953 -0.0938297 0)
(0.0110651 -0.0724815 0)
(0.024429 -0.0472473 0)
(0.0386295 -0.0217512 0)
(0.056362 -0.00199561 0)
(0.0845124 -0.0618709 0)
(0.0892541 -0.0479216 0)
(0.0820103 -0.0439011 0)
(0.0725877 -0.0394039 0)
(0.066524 -0.0325371 0)
(0.0637559 -0.025623 0)
(0.0620517 -0.018635 0)
(0.0636048 -0.011372 0)
(0.0704555 -0.00842169 0)
(0.0766242 -0.00690453 0)
(0.0813776 -0.00602788 0)
(0.0854061 -0.00527571 0)
(0.0886647 -0.00430801 0)
(0.0903706 -0.00272759 0)
(0.0885073 6.06001e-05 0)
(0.0807433 0.0046252 0)
(0.073111 0.0268833 0)
(0.0749201 0.0470642 0)
(0.0288518 0.0684421 0)
(0.211196 0.103536 0)
(0.55328 0.334053 0)
(-0.218722 0.147673 0)
(-0.0333275 0.113211 0)
(-0.0573046 0.0850865 0)
(-0.0640037 0.0582451 0)
(-0.0685136 0.0267614 0)
(-0.0638454 -0.0139616 0)
(-0.0484991 -0.0600975 0)
(-0.0309551 -0.0977414 0)
(-0.0136493 -0.12096 0)
(0.00202575 -0.129069 0)
(0.0147695 -0.123357 0)
(0.025012 -0.107738 0)
(0.0337951 -0.0853625 0)
(0.0424604 -0.0600031 0)
(0.0528797 -0.0360371 0)
(0.0666158 -0.0198702 0)
(0.0772855 -0.0217879 0)
(0.0775537 -0.0268962 0)
(0.0693531 -0.0300972 0)
(0.06123 -0.0295136 0)
(0.055146 -0.0261422 0)
(0.0510784 -0.0216905 0)
(0.0488406 -0.0164615 0)
(0.0495548 -0.0100632 0)
(0.0531894 -0.00699105 0)
(0.0572933 -0.00608735 0)
(0.0613077 -0.00577615 0)
(0.0653249 -0.00515442 0)
(0.0691581 -0.00358018 0)
(0.0723431 -0.000240608 0)
(0.0743454 0.00550647 0)
(0.0742319 0.0143472 0)
(0.0740752 0.0298379 0)
(0.082279 0.0470473 0)
(0.0678772 0.0629515 0)
(0.150381 0.101333 0)
(0.14015 0.0823569 0)
(0.116866 0.061798 0)
(-0.119416 0.0647932 0)
(0.633123 0.373944 0)
(-0.255227 0.165155 0)
(-0.00622645 0.11172 0)
(-0.0189905 0.0877134 0)
(-0.0170477 0.0615754 0)
(-0.015634 0.0277398 0)
(0.00343353 -0.0245746 0)
(0.0226511 -0.0774926 0)
(0.0362115 -0.114065 0)
(0.0456342 -0.133971 0)
(0.0510845 -0.138617 0)
(0.0533435 -0.130536 0)
(0.0536602 -0.113193 0)
(0.0532257 -0.0901973 0)
(0.0533384 -0.0655897 0)
(0.0551811 -0.043476 0)
(0.0589229 -0.0283375 0)
(0.0604779 -0.0244389 0)
(0.0567127 -0.0256661 0)
(0.0494526 -0.0256814 0)
(0.0421 -0.0240473 0)
(0.0360075 -0.0214358 0)
(0.0316016 -0.0184127 0)
(0.0291951 -0.0150791 0)
(0.0292524 -0.0117783 0)
(0.0315175 -0.0104262 0)
(0.0347976 -0.010359 0)
(0.0385321 -0.0104554 0)
(0.0425567 -0.00997956 0)
(0.0467739 -0.00832945 0)
(0.0511115 -0.00467761 0)
(0.0559999 0.00204315 0)
(0.0603393 0.0119652 0)
(0.0649636 0.0250908 0)
(0.0739659 0.0386093 0)
(0.0737663 0.0455137 0)
(0.0996588 0.0641561 0)
(0.0972405 0.0541586 0)
(0.10799 0.0547627 0)
(-0.12918 0.0952028 0)
(0.677705 0.409736 0)
(-0.274782 0.153599 0)
(0.0161012 0.072476 0)
(0.0297 0.0721594 0)
(0.0397507 0.0546689 0)
(0.0523202 0.0137692 0)
(0.0837826 -0.0458389 0)
(0.101261 -0.0928148 0)
(0.10771 -0.122821 0)
(0.106337 -0.136865 0)
(0.0993135 -0.137053 0)
(0.0887684 -0.126166 0)
(0.0768312 -0.107545 0)
(0.0651568 -0.0846591 0)
(0.0550682 -0.0613492 0)
(0.0474505 -0.0411406 0)
(0.0423036 -0.0271336 0)
(0.0375432 -0.0209612 0)
(0.0313542 -0.0193329 0)
(0.0241765 -0.01851 0)
(0.0173296 -0.0175079 0)
(0.0116011 -0.0163278 0)
(0.00740167 -0.0151033 0)
(0.0050318 -0.0139385 0)
(0.00471801 -0.013132 0)
(0.00613012 -0.0133217 0)
(0.00850535 -0.0140527 0)
(0.0113874 -0.0146075 0)
(0.0146071 -0.0144585 0)
(0.0181722 -0.0131713 0)
(0.0223122 -0.0101538 0)
(0.0275716 -0.00432673 0)
(0.0356479 0.00544649 0)
(0.0437044 0.0172433 0)
(0.0532788 0.0287333 0)
(0.0584624 0.0358736 0)
(0.0705845 0.0499756 0)
(0.0752133 0.0587168 0)
(0.116577 0.0788159 0)
(-0.109924 0.151462 0)
(0.773378 0.413851 0)
(-0.0767714 0.127217 0)
(0.085353 -0.00187795 0)
(0.135825 -0.00796208 0)
(0.141742 -0.0161558 0)
(0.165882 -0.0488249 0)
(0.186563 -0.0811395 0)
(0.190949 -0.105968 0)
(0.181248 -0.12076 0)
(0.16221 -0.125181 0)
(0.137901 -0.119985 0)
(0.111651 -0.106971 0)
(0.0861862 -0.0885697 0)
(0.0631648 -0.0673976 0)
(0.0437565 -0.0468768 0)
(0.0285716 -0.029902 0)
(0.0176626 -0.0186043 0)
(0.00951855 -0.0132675 0)
(0.00234574 -0.0115781 0)
(-0.00451399 -0.0112459 0)
(-0.0104532 -0.0113305 0)
(-0.0153274 -0.0115617 0)
(-0.0189787 -0.0119471 0)
(-0.0213214 -0.0125711 0)
(-0.0223465 -0.0135311 0)
(-0.0223289 -0.0148882 0)
(-0.0216783 -0.016334 0)
(-0.0206576 -0.0174398 0)
(-0.0194138 -0.0178436 0)
(-0.0180295 -0.0173137 0)
(-0.0163896 -0.0157449 0)
(-0.0139039 -0.0128483 0)
(-0.00881299 -0.00761999 0)
(0.00338076 0.00124022 0)
(0.0133548 0.00982749 0)
(0.0202344 0.0147342 0)
(0.029947 0.0224037 0)
(0.0383688 0.0284561 0)
(0.11444 0.0833697 0)
(-0.36703 0.217655 0)
(0.904022 0.407324 0)
(0.431712 0.28238 0)
(0.432252 0.187278 0)
(0.433884 0.123597 0)
(0.402876 0.0774113 0)
(0.367482 0.0289027 0)
(0.326816 -0.0186812 0)
(0.283776 -0.0549111 0)
(0.238106 -0.0764113 0)
(0.191553 -0.084313 0)
(0.1466 -0.0814509 0)
(0.105307 -0.0711828 0)
(0.0693657 -0.0564642 0)
(0.0391163 -0.0395781 0)
(0.015336 -0.0239819 0)
(-0.00237714 -0.0119713 0)
(-0.0138051 -0.00540939 0)
(-0.0215137 -0.00292408 0)
(-0.0276061 -0.00249349 0)
(-0.0328881 -0.00295692 0)
(-0.0374623 -0.00382721 0)
(-0.0413658 -0.00485898 0)
(-0.0447095 -0.00603051 0)
(-0.0475883 -0.00741461 0)
(-0.0500617 -0.00901408 0)
(-0.0522658 -0.0107587 0)
(-0.0543328 -0.0124268 0)
(-0.0563358 -0.0137378 0)
(-0.0584263 -0.0144432 0)
(-0.0610705 -0.0143571 0)
(-0.0651195 -0.013262 0)
(-0.0715 -0.0103089 0)
(-0.0809552 -0.00346797 0)
(-0.0924982 0.00861821 0)
(-0.106148 0.0252908 0)
(-0.129269 0.0479294 0)
(-0.161257 0.0786074 0)
(-0.202971 0.11443 0)
(-0.272277 0.147812 0)
(-0.541081 0.167425 0)
(-0.228031 0.074044 0)
(0.12206 0.0653749 0)
(0.204405 0.0273596 0)
(0.194248 -0.00567394 0)
(0.184976 -0.0276295 0)
(0.17135 -0.041695 0)
(0.147006 -0.0490617 0)
(0.114974 -0.0501185 0)
(0.0797876 -0.0456122 0)
(0.045424 -0.0371893 0)
(0.0150882 -0.026085 0)
(-0.0110564 -0.0128487 0)
(-0.0279848 -0.00307641 0)
(-0.038869 0.00304514 0)
(-0.0455202 0.00578131 0)
(-0.0498877 0.00665939 0)
(-0.0532792 0.00659952 0)
(-0.0563244 0.00589926 0)
(-0.0593158 0.0047061 0)
(-0.0623892 0.00350329 0)
(-0.0657258 0.00244396 0)
(-0.0694735 0.00148091 0)
(-0.0737288 0.00077212 0)
(-0.0785932 0.000559347 0)
(-0.0840724 0.001215 0)
(-0.0900018 0.0032345 0)
(-0.0960787 0.00717237 0)
(-0.102107 0.0133797 0)
(-0.108242 0.0210516 0)
(-0.1149 0.0279914 0)
(-0.121531 0.0336939 0)
(-0.127109 0.0410701 0)
(-0.131639 0.0528438 0)
(-0.134733 0.0707887 0)
(-0.133879 0.0941437 0)
(-0.126023 0.109778 0)
(-0.114782 0.0742932 0)
(-0.16702 -0.170581 0)
(-0.167328 0.126491 0)
(0.103647 0.0391344 0)
(0.10254 -0.0345051 0)
(0.0897807 -0.065602 0)
(0.081525 -0.072166 0)
(0.0673418 -0.0722468 0)
(0.0465083 -0.0713256 0)
(0.0223474 -0.069516 0)
(-0.00225638 -0.068101 0)
(-0.0234348 -0.0690385 0)
(-0.0403373 -0.0703906 0)
(-0.0525593 -0.0718274 0)
(-0.0598194 -0.074393 0)
(-0.0639218 -0.0768934 0)
(-0.0661885 -0.0793767 0)
(-0.0677185 -0.0820728 0)
(-0.0690484 -0.0847673 0)
(-0.0705154 -0.0872485 0)
(-0.0723805 -0.0893679 0)
(-0.0747371 -0.0910525 0)
(-0.0775078 -0.0922638 0)
(-0.0806947 -0.0938994 0)
(-0.084473 -0.0963067 0)
(-0.0890953 -0.099857 0)
(-0.0948276 -0.104821 0)
(-0.101806 -0.111082 0)
(-0.109739 -0.117681 0)
(-0.117712 -0.122267 0)
(-0.124453 -0.123134 0)
(-0.129021 -0.118049 0)
(-0.130841 -0.105411 0)
(-0.128551 -0.0855633 0)
(-0.119537 -0.0588254 0)
(-0.100859 -0.0270244 0)
(-0.0713678 0.00458147 0)
(-0.0355168 0.019935 0)
(0.0775376 -0.0921918 0)
(-0.12044 -0.15884 0)
(0.260822 -0.157729 0)
(-0.246352 -0.0540376 0)
(-0.166549 0.188096 0)
(-0.0431824 0.187916 0)
(-0.0529069 0.223674 0)
(-0.0479499 0.250944 0)
(-0.0486418 0.24922 0)
(-0.0564031 0.240983 0)
(-0.0674006 0.238945 0)
(-0.0778935 0.242305 0)
(-0.086123 0.248531 0)
(-0.0913584 0.256271 0)
(-0.0934869 0.263769 0)
(-0.0933171 0.271218 0)
(-0.0920138 0.278576 0)
(-0.090418 0.284245 0)
(-0.0890447 0.28837 0)
(-0.088281 0.291653 0)
(-0.088302 0.294313 0)
(-0.0891335 0.296381 0)
(-0.0907347 0.29777 0)
(-0.0930515 0.298297 0)
(-0.0959878 0.297899 0)
(-0.0994937 0.298051 0)
(-0.103458 0.299372 0)
(-0.1077 0.302677 0)
(-0.111982 0.308703 0)
(-0.116026 0.317612 0)
(-0.119522 0.328325 0)
(-0.122042 0.337839 0)
(-0.123103 0.344637 0)
(-0.121899 0.347195 0)
(-0.117043 0.34471 0)
(-0.106593 0.338518 0)
(-0.088624 0.330474 0)
(-0.0630654 0.324218 0)
(-0.0329866 0.325118 0)
(0.00976768 0.335563 0)
(0.124271 0.411155 0)
(-0.285401 0.425141 0)
)
;

boundaryField
{
    floor
    {
        type            noSlip;
    }
    ceiling
    {
        type            noSlip;
    }
    sWall
    {
        type            noSlip;
    }
    nWall
    {
        type            noSlip;
    }
    sideWalls
    {
        type            empty;
    }
    glass1
    {
        type            noSlip;
    }
    glass2
    {
        type            noSlip;
    }
    sun
    {
        type            noSlip;
    }
    heatsource1
    {
        type            noSlip;
    }
    heatsource2
    {
        type            noSlip;
    }
    Table_master
    {
        type            noSlip;
    }
    Table_slave
    {
        type            noSlip;
    }
    inlet
    {
        type            fixedValue;
        value           uniform (0.2 0 0);
    }
    outlet
    {
        type            zeroGradient;
    }
}


// ************************************************************************* //
