/*--------------------------------*- C++ -*----------------------------------*\
  =========                 |
  \\      /  F ield         | OpenFOAM: The Open Source CFD Toolbox
   \\    /   O peration     | Website:  https://openfoam.org
    \\  /    A nd           | Version:  6
     \\/     M anipulation  |
\*---------------------------------------------------------------------------*/
FoamFile
{
    version     2.0;
    format      ascii;
    class       volScalarField;
    location    "210";
    object      epsilon;
}
// * * * * * * * * * * * * * * * * * * * * * * * * * * * * * * * * * * * * * //

dimensions      [0 2 -3 0 0 0 0];

internalField   nonuniform List<scalar> 
459
(
0.000352032
0.000482173
0.000545952
0.000645493
0.000754866
0.000883814
0.001012
0.00111311
0.00115979
0.00112788
0.000939116
0.000725367
0.000524301
0.000356988
0.000234966
5.00184e-05
0.000117943
0.000158703
0.000188383
0.000182532
0.000165767
0.000136587
0.000109743
8.87164e-05
7.26352e-05
6.0239e-05
5.05493e-05
4.28994e-05
3.67101e-05
3.14915e-05
2.68362e-05
2.24078e-05
1.6774e-05
1.28712e-05
0.000736542
0.000924442
0.000441467
0.000449606
0.000495522
0.000578147
0.000681479
0.000770432
0.000810689
0.000787151
0.000676954
0.000540205
0.000421604
0.000328335
0.000245858
0.000399142
0.000219695
0.000180968
0.000389314
0.000215156
0.00017223
0.000149713
0.000134257
0.000133805
0.000108283
8.48133e-05
6.64454e-05
5.24888e-05
4.19276e-05
3.39131e-05
2.77676e-05
2.31818e-05
2.05804e-05
2.23453e-05
2.01574e-05
2.32317e-05
0.00120928
0.00186425
0.000474628
0.00042101
0.000478543
0.000586936
0.000712504
0.000808416
0.000851613
0.000833155
0.000736064
0.00060996
0.000488189
0.000383548
0.000293599
0.000280168
0.000357292
0.000229243
0.000415936
0.00025659
0.000197114
0.000164688
0.000153409
0.000334685
0.000218446
0.00014757
0.000103624
7.55058e-05
5.69129e-05
4.43692e-05
3.59399e-05
3.0593e-05
2.31971e-05
2.29229e-05
2.6299e-05
3.16366e-05
0.00181093
0.00354516
0.000632196
0.00042873
0.000497318
0.000654577
0.000801138
0.000891578
0.000933277
0.000912394
0.000819304
0.000684505
0.000546898
0.000432318
0.000340297
0.000290157
0.000287906
0.000488162
0.000385632
0.000287847
0.000233391
0.000199847
0.000175301
0.000169395
0.000444137
0.000328586
0.000257555
0.000209072
0.000173345
0.000145149
0.000120916
9.87409e-05
7.72013e-05
4.3316e-05
3.01281e-05
4.45845e-05
4.57322e-05
0.00260265
0.00615108
0.00107696
0.000500988
0.000577894
0.000847366
0.000985776
0.00105122
0.00108007
0.00104613
0.000932096
0.00076227
0.000588633
0.000448456
0.000348758
0.000289491
0.000275948
0.000293149
0.000272467
0.000257725
0.000241896
0.000221687
0.000197462
0.000174407
0.000171135
0.000157372
0.000143827
0.000130494
0.000116878
0.00010271
8.78944e-05
7.29345e-05
5.8463e-05
4.30281e-05
3.21399e-05
4.67905e-05
5.12611e-05
6.46193e-05
5.99884e-05
5.18482e-05
0.00367991
0.00924008
0.00227894
0.000858486
0.000989986
0.00125545
0.00129825
0.00130861
0.00130955
0.00124593
0.00108507
0.000855861
0.000627001
0.000449489
0.000336621
0.000281934
0.000275598
0.000291261
0.000299795
0.000298006
0.00028389
0.000258396
0.000225594
0.000191656
0.00016574
0.000148599
0.000136445
0.000124954
0.000112417
9.85876e-05
8.38834e-05
6.93886e-05
5.62117e-05
4.52333e-05
3.66908e-05
4.10796e-05
5.08084e-05
5.48969e-05
0.000124396
9.15007e-05
0.00488609
0.0112862
0.00480424
0.00244365
0.00219354
0.00195662
0.00177393
0.00168865
0.00163894
0.00151956
0.00128269
0.000966962
0.00066711
0.000450195
0.000330167
0.000288988
0.000299079
0.00032765
0.000345924
0.000343211
0.000321996
0.000287029
0.000245516
0.000205398
0.000174721
0.0001557
0.000143498
0.000132771
0.000121419
0.00010908
9.62659e-05
8.41391e-05
7.35435e-05
6.55425e-05
5.99511e-05
5.90106e-05
6.39895e-05
7.16104e-05
0.000200799
0.000146279
0.00518749
0.0127175
0.00724173
0.00500073
0.00365508
0.00279658
0.00235619
0.00218464
0.00207989
0.00186903
0.00151108
0.0010718
0.000692812
0.000453691
0.000350728
0.000333347
0.000356649
0.000386968
0.000399856
0.000387073
0.000353689
0.000310306
0.000266392
0.000229251
0.000202929
0.000186273
0.000174748
0.000164962
0.00015508
0.000145442
0.000137869
0.000133965
0.00013476
0.000142066
0.00016145
0.000186066
0.000226947
0.000291122
0.00124766
0.00026592
0.0048592
0.00807934
0.00610624
0.00462583
0.00354897
0.00296876
0.00278834
0.00276688
0.00263209
0.00223812
0.00167769
0.001077
0.000683803
0.00051995
0.000461897
0.000457333
0.000475304
0.000492063
0.000491431
0.000471126
0.000436839
0.000400004
0.000367671
0.000342921
0.000325089
0.000311076
0.000297402
0.000282225
0.000261255
0.000235358
0.000210016
0.000195199
0.000198948
0.000221863
0.000266952
0.000335927
0.000431702
0.000555553
0.000693686
0.000383295
0.00119713
0.00152746
0.00232278
0.00323547
0.00374113
0.00368907
0.00308027
0.00208711
0.00138442
0.00103206
0.000878337
0.000821359
0.000808662
0.000815701
0.000828182
0.000835566
0.000833544
0.000824807
0.000814794
0.000808467
0.000807955
0.000812147
0.000817376
0.00081801
0.000806796
0.000775778
0.000722431
0.000646656
0.000554544
0.000458655
0.000377292
0.000330253
0.000328109
0.000372452
0.00045511
0.00055926
0.000687993
0.000755401
0.000939893
0.00489887
0.00722498
0.00725372
0.00645265
0.00521317
0.00390416
0.00284681
0.00222163
0.0019231
0.00180572
0.00177392
0.00178211
0.00181534
0.00186832
0.00193372
0.00200002
0.00205915
0.00210998
0.00215695
0.00220564
0.00225922
0.00231734
0.00237507
0.00242131
0.00243833
0.00240222
0.00229122
0.00209479
0.0018234
0.00150939
0.00119873
0.0009405
0.000763079
0.000664528
0.000644857
0.00156401
0.00114211
0.00129067
0.0015832
0.00189442
0.00297367
0.00313605
0.00302296
0.00291003
0.00266344
0.00234338
0.00201902
0.00177784
0.0016344
0.00156059
0.00152954
0.00152297
0.00152787
0.00153449
0.00153631
0.00153144
0.00152187
0.00151106
0.00150162
0.0014944
0.00148848
0.00148128
0.00146887
0.00144632
0.00140854
0.00135182
0.00127507
0.00118146
0.00107819
0.00097457
0.000879706
0.000799838
0.000736155
0.000682022
0.000634574
0.000697592
0.000641158
)
;

boundaryField
{
    floor
    {
        Cmu             0.09;
        kappa           0.41;
        E               9.8;
        type            epsilonWallFunction;
        value           nonuniform List<scalar> 
29
(
0.000234966
5.00184e-05
0.000117943
0.000158703
0.000188383
0.000182532
0.000165767
0.000136587
0.000109743
8.87164e-05
7.26352e-05
6.0239e-05
5.05493e-05
4.28994e-05
3.67101e-05
3.14915e-05
2.68362e-05
2.24078e-05
1.6774e-05
1.28712e-05
1.28712e-05
2.32317e-05
3.16366e-05
4.57322e-05
0.000234966
5.00184e-05
0.000180968
0.000229243
0.000488162
)
;
    }
    ceiling
    {
        Cmu             0.09;
        kappa           0.41;
        E               9.8;
        type            epsilonWallFunction;
        value           nonuniform List<scalar> 
43
(
0.00129067
0.0015832
0.00189442
0.00297367
0.00313605
0.00302296
0.00291003
0.00266344
0.00234338
0.00201902
0.00177784
0.0016344
0.00156059
0.00152954
0.00152297
0.00152787
0.00153449
0.00153631
0.00153144
0.00152187
0.00151106
0.00150162
0.0014944
0.00148848
0.00148128
0.00146887
0.00144632
0.00140854
0.00135182
0.00127507
0.00118146
0.00107819
0.00097457
0.000879706
0.000799838
0.000736155
0.000682022
0.000634574
0.000697592
0.000641158
0.0048592
0.00807934
0.000939893
)
;
    }
    sWall
    {
        Cmu             0.09;
        kappa           0.41;
        E               9.8;
        type            epsilonWallFunction;
        value           uniform 0.00129067;
    }
    nWall
    {
        Cmu             0.09;
        kappa           0.41;
        E               9.8;
        type            epsilonWallFunction;
        value           nonuniform List<scalar> 6(5.18482e-05 9.15007e-05 0.000146279 0.000755401 0.00114211 0.000641158);
    }
    sideWalls
    {
        type            empty;
    }
    glass1
    {
        Cmu             0.09;
        kappa           0.41;
        E               9.8;
        type            epsilonWallFunction;
        value           nonuniform List<scalar> 9(0.000352032 0.000736542 0.00120928 0.00181093 0.00260265 0.00367991 0.00488609 0.00518749 0.0048592);
    }
    glass2
    {
        Cmu             0.09;
        kappa           0.41;
        E               9.8;
        type            epsilonWallFunction;
        value           nonuniform List<scalar> 2(0.00026592 0.000383295);
    }
    sun
    {
        Cmu             0.09;
        kappa           0.41;
        E               9.8;
        type            epsilonWallFunction;
        value           nonuniform List<scalar> 
14
(
0.000352032
0.000482173
0.000545952
0.000645493
0.000754866
0.000883814
0.001012
0.00111311
0.00115979
0.00112788
0.000939116
0.000725367
0.000524301
0.000356988
)
;
    }
    heatsource1
    {
        Cmu             0.09;
        kappa           0.41;
        E               9.8;
        type            epsilonWallFunction;
        value           nonuniform List<scalar> 3(6.46193e-05 5.99884e-05 5.18482e-05);
    }
    heatsource2
    {
        Cmu             0.09;
        kappa           0.41;
        E               9.8;
        type            epsilonWallFunction;
        value           nonuniform List<scalar> 4(0.000399142 0.000219695 0.000219695 0.000357292);
    }
    Table_master
    {
        Cmu             0.09;
        kappa           0.41;
        E               9.8;
        type            epsilonWallFunction;
        value           nonuniform List<scalar> 9(0.000334685 0.000218446 0.00014757 0.000103624 7.55058e-05 5.69129e-05 4.43692e-05 3.59399e-05 3.0593e-05);
    }
    Table_slave
    {
        Cmu             0.09;
        kappa           0.41;
        E               9.8;
        type            epsilonWallFunction;
        value           nonuniform List<scalar> 9(0.000444137 0.000328586 0.000257555 0.000209072 0.000173345 0.000145149 0.000120916 9.87409e-05 7.72013e-05);
    }
    inlet
    {
        type            turbulentMixingLengthDissipationRateInlet;
        mixingLength    0.01;
        phi             phi;
        k               k;
        value           uniform 0.000101881;
    }
    outlet
    {
        type            zeroGradient;
    }
}


// ************************************************************************* //
