/*--------------------------------*- C++ -*----------------------------------*\
  =========                 |
  \\      /  F ield         | OpenFOAM: The Open Source CFD Toolbox
   \\    /   O peration     | Website:  https://openfoam.org
    \\  /    A nd           | Version:  6
     \\/     M anipulation  |
\*---------------------------------------------------------------------------*/
FoamFile
{
    version     2.0;
    format      ascii;
    class       volScalarField;
    location    "400";
    object      alphat;
}
// * * * * * * * * * * * * * * * * * * * * * * * * * * * * * * * * * * * * * //

dimensions      [1 -1 -1 0 0 0 0];

internalField   nonuniform List<scalar> 
459
(
0.000779256
0.000806619
0.000743545
0.000769361
0.000798215
0.000825961
0.000852678
0.000879053
0.00090618
0.000933171
0.00095641
0.000974719
0.000987191
0.000992963
0.00098759
0.000358359
0.000335241
0.000294986
0.000263103
0.000246286
0.000238892
0.000241207
0.000256132
0.00027268
0.000286714
0.000294894
0.000293109
0.000290045
0.000292357
0.000304365
0.000329045
0.00032702
0.000294242
0.000281604
0.00130999
0.00244093
0.00189144
0.00251751
0.00277384
0.00301079
0.00324482
0.00345837
0.00362573
0.00374071
0.00379368
0.00374547
0.00352961
0.00303323
0.0021314
0.00106968
0.000672621
0.00046
0.00135805
0.00117213
0.0010013
0.00082059
0.000695873
0.000661495
0.000759358
0.000868942
0.000952916
0.000999246
0.000999666
0.00099701
0.00104142
0.00118437
0.00153951
0.0014809
0.00122918
0.000387057
0.00179358
0.00409398
0.00204077
0.00351551
0.00418719
0.0045005
0.00475119
0.00495959
0.00511881
0.00523011
0.0052894
0.00525675
0.00505724
0.00456767
0.00364782
0.00234795
0.00111598
0.000665799
0.00180164
0.0014988
0.00111167
0.000814965
0.000563219
0.000344868
0.000364725
0.000390011
0.000417258
0.000448573
0.000487451
0.00053864
0.000611465
0.000722588
0.00233271
0.00248171
0.00225586
0.000593304
0.00226348
0.00625322
0.00250943
0.00352305
0.00480568
0.00521516
0.00545454
0.00564646
0.00580668
0.0059394
0.0060813
0.00621025
0.00626112
0.00610803
0.00554723
0.00434527
0.00252034
0.00106033
0.00247214
0.00295998
0.00247182
0.00194454
0.00148661
0.00105517
0.00071804
0.000710913
0.000709378
0.000712668
0.000722042
0.000739415
0.000767813
0.000812982
0.00088863
0.00282698
0.00298238
0.00280485
0.000858808
0.00271002
0.00867344
0.00388756
0.00328042
0.00468773
0.00529779
0.00557709
0.0057665
0.00591438
0.00604818
0.00627341
0.00659063
0.0069706
0.00734529
0.00760011
0.0076091
0.00729813
0.00669474
0.00626545
0.00573372
0.00530689
0.00498946
0.00469788
0.00443214
0.00419274
0.0040428
0.00390817
0.00378032
0.00365908
0.00355067
0.00346846
0.00342922
0.00344408
0.00353215
0.00338463
0.00318905
0.00291022
0.00112116
0.000964697
0.000828499
0.00313553
0.0109501
0.00658622
0.00413994
0.00415765
0.00472238
0.00517563
0.0054829
0.00563734
0.00575053
0.00598721
0.00635844
0.00687526
0.00750884
0.00814523
0.00861592
0.00877557
0.00855497
0.00808961
0.00757075
0.00713688
0.00679447
0.00651661
0.00628172
0.00606874
0.00587245
0.0056877
0.00550571
0.00531144
0.00508894
0.00483231
0.00455469
0.00427564
0.00399223
0.00368675
0.003374
0.00302767
0.00250384
0.00184408
0.000856729
0.00350579
0.0125078
0.0100524
0.0069469
0.00515383
0.00457498
0.00479665
0.00520809
0.00540722
0.00551474
0.00567525
0.00593291
0.00634819
0.00697163
0.00773875
0.0084326
0.00887823
0.00897295
0.00877203
0.00843003
0.00807621
0.00775686
0.00747806
0.0072324
0.00700937
0.00680846
0.00663539
0.00648909
0.00635494
0.00620001
0.0059765
0.00564742
0.00522172
0.00474081
0.00423276
0.0037124
0.00317331
0.00258506
0.00193196
0.000909063
0.00355098
0.0115569
0.010383
0.0094895
0.00776416
0.00647092
0.00588139
0.0057164
0.0056656
0.00561633
0.00561389
0.00569945
0.0059185
0.00631595
0.00689566
0.00756254
0.00814754
0.00849937
0.00858472
0.00848009
0.00828328
0.00805516
0.00782591
0.00760634
0.00739919
0.00721345
0.00706291
0.00695869
0.00690691
0.00690035
0.00690273
0.00683579
0.00660782
0.00618919
0.00560416
0.00491479
0.00420201
0.00353199
0.0029808
0.00163829
0.0034111
0.00396727
0.00736562
0.00813458
0.00780757
0.00716518
0.00658174
0.0061528
0.00585091
0.00564903
0.00555559
0.00557222
0.00570414
0.00595121
0.00630558
0.00674087
0.00719344
0.007571
0.00780734
0.00789785
0.00787766
0.00778633
0.00765882
0.00751706
0.00737366
0.00724043
0.00712939
0.00705238
0.00702193
0.00705097
0.00714724
0.00729708
0.00744622
0.00756008
0.00761479
0.00760646
0.00739987
0.00679289
0.00611301
0.00177399
0.0156558
0.0155755
0.0103011
0.00839542
0.00735018
0.00668172
0.00623717
0.00595221
0.0058052
0.00579558
0.0058953
0.00606442
0.00627231
0.00650332
0.00674594
0.00697948
0.00717597
0.00731484
0.00739143
0.00741207
0.00739778
0.00736275
0.00731679
0.00726938
0.00722754
0.00719735
0.00718557
0.00720092
0.00725301
0.00734438
0.00746295
0.00758746
0.00765073
0.00759051
0.00733293
0.00678227
0.00565312
0.00184023
0.00598559
0.0123106
0.00968788
0.00815708
0.0072261
0.00663085
0.00627712
0.00612712
0.00615426
0.00631806
0.0065632
0.0068307
0.00707316
0.00725906
0.00738181
0.0074511
0.00748391
0.0074971
0.00750318
0.00750907
0.0075178
0.00752909
0.00754114
0.00755169
0.00755852
0.00756003
0.00755567
0.00754657
0.00753593
0.00752645
0.007504
0.00744036
0.00731452
0.00708738
0.00670107
0.00607385
0.00528855
0.0019971
0.00195487
0.00267564
0.0043269
0.00362978
0.00312333
0.00288439
0.00258735
0.00233054
0.0021244
0.00196455
0.00184687
0.00176938
0.00172759
0.00171373
0.00171791
0.00173101
0.0017453
0.00175623
0.00176209
0.00176314
0.0017607
0.0017564
0.00175138
0.00174658
0.00174245
0.00173901
0.00173605
0.00173327
0.00173025
0.0017265
0.00172141
0.0017142
0.00170478
0.00169296
0.00167684
0.00165367
0.00161774
0.00155849
0.00150854
0.00148329
)
;

boundaryField
{
    floor
    {
        type            compressible::alphatWallFunction;
        Prt             0.85;
        value           nonuniform List<scalar> 
29
(
0.000140701
4.71933e-05
4.34744e-05
3.69254e-05
3.16538e-05
2.88383e-05
2.75944e-05
2.79869e-05
3.04933e-05
3.32488e-05
3.55678e-05
3.69123e-05
3.66196e-05
3.61158e-05
3.64957e-05
3.8463e-05
4.24746e-05
4.21479e-05
3.68074e-05
3.47321e-05
3.47316e-05
5.17738e-05
8.34948e-05
0.000122387
0.0001407
4.71927e-05
6.31742e-05
9.42713e-05
0.000150907
)
;
    }
    ceiling
    {
        type            compressible::alphatWallFunction;
        Prt             0.85;
        value           nonuniform List<scalar> 
43
(
0.000271635
0.000364095
0.00056706
0.000482548
0.000420129
0.000390316
0.000352885
0.000320156
0.000293605
0.000272824
0.000257409
0.000247197
0.00024167
0.000239834
0.000240386
0.00024212
0.000244011
0.000245456
0.00024623
0.000246368
0.000246045
0.000245475
0.000244811
0.000244176
0.000243628
0.000243171
0.000242779
0.000242409
0.000242008
0.00024151
0.000240835
0.000239877
0.000238627
0.000237058
0.000234916
0.000231835
0.000227047
0.000219128
0.000212424
0.000209027
0.000455783
0.000523728
0.000763088
)
;
    }
    sWall
    {
        type            compressible::alphatWallFunction;
        Prt             0.85;
        value           uniform 0.000270683;
    }
    nWall
    {
        type            compressible::alphatWallFunction;
        Prt             0.85;
        value           nonuniform List<scalar> 6(0.000117899 0.000121956 0.000129434 0.000256224 0.00027675 0.000208751);
    }
    sideWalls
    {
        type            empty;
    }
    glass1
    {
        type            compressible::alphatWallFunction;
        Prt             0.85;
        value           nonuniform List<scalar> 9(0.000108339 0.000181874 0.000246064 0.00030674 0.000363232 0.000416208 0.00046174 0.000467368 0.000450422);
    }
    glass2
    {
        type            compressible::alphatWallFunction;
        Prt             0.85;
        value           nonuniform List<scalar> 2(0.000229063 0.000247023);
    }
    sun
    {
        type            compressible::alphatWallFunction;
        Prt             0.85;
        value           nonuniform List<scalar> 
14
(
0.00011093
0.000114879
0.000105722
0.000109481
0.000113665
0.00011767
0.000121512
0.000125291
0.000129163
0.000133002
0.000136297
0.000138887
0.000140647
0.00014146
)
;
    }
    heatsource1
    {
        type            compressible::alphatWallFunction;
        Prt             0.85;
        value           nonuniform List<scalar> 3(0.000159377 0.000137442 0.000118009);
    }
    heatsource2
    {
        type            compressible::alphatWallFunction;
        Prt             0.85;
        value           nonuniform List<scalar> 4(0.000152197 9.52859e-05 9.52848e-05 0.00015865);
    }
    Table_master
    {
        type            compressible::alphatWallFunction;
        Prt             0.85;
        value           nonuniform List<scalar> 9(4.50448e-05 4.82238e-05 5.22394e-05 5.65291e-05 6.14148e-05 6.74205e-05 7.5237e-05 8.62004e-05 0.000102628);
    }
    Table_slave
    {
        type            compressible::alphatWallFunction;
        Prt             0.85;
        value           nonuniform List<scalar> 9(0.000101965 0.000100921 0.000100696 0.000101178 0.000102552 0.000105092 0.000109228 0.00011577 0.00012663);
    }
    inlet
    {
        type            fixedValue;
        value           uniform 1.94e-05;
    }
    outlet
    {
        type            zeroGradient;
    }
}


// ************************************************************************* //
