// -*- C++ -*-
// File generated by PyFoam - sorry for the ugliness

FoamFile
{
 version 2.0;
 format ascii;
 class volScalarField;
 location "200";
 object T;
}

dimensions [ 0 0 0 1 0 0 0 ];

internalField nonuniform List<scalar> 459
(
  302.483
  302.411
  302.406
  302.405
  302.413
  302.455
  302.552
  302.612
  302.653
  302.68
  302.695
  302.709
  302.721
  302.733
  302.741
  303.405
  303.343
  303.298
  303.3
  303.325
  303.35
  303.37
  303.389
  303.407
  303.425
  303.443
  303.461
  303.479
  303.498
  303.517
  303.538
  303.562
  303.596
  303.659
  302.51
  302.402
  302.38
  302.37
  302.372
  302.435
  302.58
  302.691
  302.766
  302.809
  302.829
  302.836
  302.832
  302.816
  302.792
  302.804
  302.826
  303.408
  303.298
  303.243
  303.262
  303.305
  303.346
  303.373
  303.398
  303.422
  303.446
  303.469
  303.493
  303.517
  303.541
  303.563
  303.584
  303.604
  303.628
  303.683
  302.539
  302.4
  302.364
  302.342
  302.33
  302.407
  302.599
  302.769
  302.884
  302.945
  302.966
  302.963
  302.943
  302.909
  302.869
  302.852
  302.85
  303.326
  303.149
  303.169
  303.232
  303.307
  303.371
  303.39
  303.413
  303.438
  303.465
  303.493
  303.522
  303.552
  303.581
  303.606
  303.627
  303.642
  303.657
  303.7
  302.57
  302.407
  302.361
  302.329
  302.293
  302.377
  302.61
  302.846
  303.01
  303.092
  303.113
  303.096
  303.056
  303.004
  302.948
  302.908
  302.883
  302.897
  302.958
  303.029
  303.136
  303.256
  303.368
  303.457
  303.525
  303.576
  303.621
  303.664
  303.706
  303.747
  303.788
  303.83
  303.871
  303.79
  303.736
  303.708
  303.723
  302.603
  302.425
  302.376
  302.331
  302.264
  302.347
  302.616
  302.922
  303.139
  303.242
  303.261
  303.224
  303.162
  303.095
  303.029
  302.981
  302.951
  302.966
  303.026
  303.132
  303.265
  303.401
  303.521
  303.617
  303.695
  303.754
  303.803
  303.844
  303.88
  303.912
  303.941
  303.964
  303.976
  303.912
  303.829
  303.773
  303.755
  303.775
  303.807
  303.866
  302.638
  302.455
  302.411
  302.336
  302.24
  302.32
  302.625
  303.001
  303.273
  303.389
  303.397
  303.338
  303.263
  303.19
  303.126
  303.084
  303.07
  303.117
  303.218
  303.351
  303.492
  303.622
  303.731
  303.815
  303.879
  303.929
  303.965
  303.996
  304.024
  304.048
  304.068
  304.08
  304.074
  304.008
  303.927
  303.87
  303.826
  303.829
  303.849
  303.889
  302.682
  302.504
  302.468
  302.333
  302.204
  302.296
  302.653
  303.1
  303.422
  303.535
  303.519
  303.458
  303.39
  303.326
  303.276
  303.259
  303.285
  303.375
  303.502
  303.636
  303.763
  303.87
  303.954
  304.018
  304.063
  304.088
  304.109
  304.13
  304.148
  304.162
  304.169
  304.166
  304.145
  304.095
  304.023
  303.969
  303.905
  303.893
  303.896
  303.914
  302.742
  302.61
  302.521
  302.28
  302.134
  302.284
  302.729
  303.254
  303.609
  303.687
  303.667
  303.621
  303.575
  303.538
  303.519
  303.534
  303.599
  303.709
  303.831
  303.939
  304.036
  304.11
  304.162
  304.194
  304.211
  304.222
  304.233
  304.242
  304.247
  304.244
  304.231
  304.204
  304.163
  304.11
  304.056
  304.011
  303.979
  303.972
  303.969
  303.978
  302.829
  302.763
  302.452
  302.056
  301.991
  302.32
  302.936
  303.543
  303.817
  303.873
  303.865
  303.847
  303.832
  303.827
  303.841
  303.882
  303.953
  304.047
  304.139
  304.213
  304.268
  304.303
  304.323
  304.333
  304.337
  304.338
  304.338
  304.333
  304.323
  304.304
  304.277
  304.241
  304.2
  304.158
  304.124
  304.105
  304.109
  304.149
  304.227
  304.361
  300.421
  301.022
  301.8
  302.633
  303.597
  303.94
  304.053
  304.087
  304.099
  304.106
  304.116
  304.133
  304.161
  304.203
  304.257
  304.315
  304.366
  304.404
  304.428
  304.44
  304.444
  304.443
  304.438
  304.432
  304.422
  304.409
  304.391
  304.368
  304.34
  304.307
  304.27
  304.233
  304.2
  304.178
  304.176
  304.208
  304.28
  304.393
  303.136
  303.24
  303.526
  303.831
  304.066
  304.196
  304.256
  304.287
  304.308
  304.326
  304.344
  304.366
  304.391
  304.421
  304.453
  304.482
  304.505
  304.52
  304.527
  304.527
  304.523
  304.516
  304.507
  304.495
  304.481
  304.464
  304.445
  304.422
  304.396
  304.368
  304.338
  304.307
  304.277
  304.252
  304.239
  304.263
  304.316
  304.377
  304.02
  303.999
  303.984
  304.116
  304.218
  304.298
  304.363
  304.412
  304.444
  304.467
  304.486
  304.502
  304.518
  304.533
  304.548
  304.562
  304.573
  304.582
  304.587
  304.587
  304.584
  304.578
  304.57
  304.56
  304.547
  304.534
  304.518
  304.5
  304.48
  304.458
  304.435
  304.411
  304.387
  304.364
  304.343
  304.327
  304.321
  304.352
  304.418
  304.497
)
;

boundaryField
{
  floor
  {
    type wallHeatTransfer;
    Tinf uniform 300.35;
    alphaWall uniform 0.24;
    value nonuniform List<scalar> 29
(
  302.459
  302.889
  302.913
  302.909
  302.925
  302.945
  302.958
  302.959
  302.956
  302.952
  302.948
  302.945
  302.943
  302.941
  302.94
  302.94
  302.939
  302.938
  302.931
  302.937
  302.937
  303
  303.045
  303.105
  302.459
  302.889
  302.98
  302.929
  302.577
)
;
  }
  ceiling
  {
    type wallHeatTransfer;
    Tinf uniform 300.35;
    alphaWall uniform 0.24;
    value nonuniform List<scalar> 43
(
  303.738
  303.735
  303.738
  303.871
  303.959
  304.023
  304.072
  304.108
  304.134
  304.154
  304.171
  304.187
  304.201
  304.216
  304.23
  304.243
  304.254
  304.262
  304.265
  304.263
  304.258
  304.251
  304.242
  304.232
  304.22
  304.208
  304.194
  304.178
  304.16
  304.14
  304.117
  304.093
  304.066
  304.038
  304.009
  303.983
  303.963
  303.986
  304.057
  304.119
  302.676
  302.623
  302.982
)
;
  }
  sWall
  {
    type wallHeatTransfer;
    Tinf uniform 306.167;
    alphaWall uniform 0.36;
    value uniform 304.26;
  }
  nWall
  {
    type wallHeatTransfer;
    Tinf uniform 305.15;
    alphaWall uniform 0.36;
    value nonuniform List<scalar> 6
(
  304.189
  304.184
  304.177
  304.491
  304.465
  304.583
)
;
  }
  sideWalls
  {
    type empty;
  }
  glass1
  {
    type wallHeatTransfer;
    Tinf uniform 306.167;
    alphaWall uniform 4.3;
    value nonuniform List<scalar> 9
(
  305.015
  304.866
  304.758
  304.668
  304.595
  304.54
  304.531
  304.57
  304.643
)
;
  }
  glass2
  {
    type wallHeatTransfer;
    Tinf uniform 305.15;
    alphaWall uniform 4.3;
    value nonuniform List<scalar> 2
(
  304.863
  304.89
)
;
  }
  sun
  {
    type wallHeatTransfer;
    Tinf uniform 300.35;
    alphaWall uniform 0.24;
    value nonuniform List<scalar> 14
(
  302.252
  302.209
  302.214
  302.226
  302.242
  302.286
  302.373
  302.422
  302.452
  302.468
  302.472
  302.474
  302.474
  302.471
)
;
  }
  heatsource1
  {
    type fixedGradient;
    gradient uniform 0;
  }
  heatsource2
  {
    type fixedGradient;
    gradient uniform 0;
  }
  Table_master
  {
    type zeroGradient;
  }
  Table_slave
  {
    type zeroGradient;
  }
  inlet
  {
    type fixedValue;
    value uniform 300.15;
  }
  outlet
  {
    type zeroGradient;
  }
} 	// ************************************************************************* //

