/*--------------------------------*- C++ -*----------------------------------*\
  =========                 |
  \\      /  F ield         | OpenFOAM: The Open Source CFD Toolbox
   \\    /   O peration     | Website:  https://openfoam.org
    \\  /    A nd           | Version:  6
     \\/     M anipulation  |
\*---------------------------------------------------------------------------*/
FoamFile
{
    version     2.0;
    format      ascii;
    class       surfaceScalarField;
    location    "1500";
    object      phi;
}
// * * * * * * * * * * * * * * * * * * * * * * * * * * * * * * * * * * * * * //

dimensions      [1 0 -1 0 0 0 0];

internalField   nonuniform List<scalar> 
852
(
-0.00293628
0.00299254
-0.00397384
0.00103756
-0.00476269
0.000788852
-0.00538003
0.000617343
-0.00579674
0.000416709
-0.00599021
0.000193471
-0.00593856
-5.16482e-05
-0.00562411
-0.000314452
-0.00505886
-0.000565246
-0.00429437
-0.000764493
-0.00341106
-0.000883312
-0.00249767
-0.000913391
-0.00162901
-0.000868663
-0.000827103
-0.000801902
-0.000825663
-0.000674993
0.000677679
-0.000344457
-0.000330536
0.000262931
-0.000607388
0.000734956
-0.000472025
0.00104732
-0.000312365
0.00124082
-0.000193494
0.00134587
-0.000105057
0.00139798
-5.21035e-05
0.00142723
-2.92575e-05
0.0014453
-1.80693e-05
0.00145532
-1.00162e-05
0.00145824
-2.92549e-06
0.00145254
5.70374e-06
0.00142965
2.28901e-05
0.00136712
6.25319e-05
0.00122715
0.000139965
0.000995253
0.000231901
0.000705662
0.000289591
0.000709274
-0.00209468
0.00523871
-0.00309927
0.00204215
-0.003905
0.00159458
-0.00450907
0.00122142
-0.00491582
0.000823458
-0.00511171
0.000389364
-0.0050715
-9.1864e-05
-0.00478049
-0.000605456
-0.00426175
-0.00108399
-0.00357638
-0.00144986
-0.00280645
-0.00165325
-0.00203252
-0.00168731
-0.00132698
-0.00157421
-0.000778293
-0.00135059
-0.000575236
-0.00102872
-7.9256e-05
-0.000496031
-7.93072e-05
0.000380163
0.000305162
0.000803602
-0.000753975
0.00105121
-0.000854993
0.00125882
-0.000679633
0.00141287
-0.000466421
0.00150261
-0.000283232
0.00151631
-0.00011876
0.00152005
-5.58391e-05
0.00152464
-3.38493e-05
0.00152847
-2.1904e-05
0.00153096
-1.25026e-05
0.00153223
-4.19614e-06
0.00153135
6.5862e-06
0.00152472
2.95182e-05
0.00148364
0.000103617
0.00130913
0.000314472
0.00100744
0.000533586
0.00062709
0.000669945
0.00134567
-0.00146601
0.0069364
-0.00232883
0.00290497
-0.00303724
0.00230299
-0.00354849
0.00173267
-0.00389844
0.0011734
-0.00406917
0.000560098
-0.00401602
-0.000145016
-0.0037166
-0.000904873
-0.00321556
-0.00158503
-0.00258857
-0.00207685
-0.00191736
-0.00232446
-0.0012662
-0.00233847
-0.000685987
-0.00215442
-0.000228464
-0.00180811
7.61755e-05
-0.00133336
0.000277486
-0.000697342
0.000198179
0.00148311
-0.00116993
0.00169698
-0.000967851
0.00167605
-0.000834062
0.00167632
-0.000679908
0.00169758
-0.000487678
0.00170778
-0.000293435
0.00158918
0.00153349
0.00149979
0.00147804
0.00146569
0.00146165
0.00146839
0.00149806
0.00160183
0.00132172
0.000594579
0.000981185
0.000874125
0.000548257
0.00110287
0.00190812
-0.00102395
0.00826031
-0.00170564
0.00358666
-0.00216666
0.00276402
-0.00249376
0.00205977
-0.00271742
0.00139706
-0.00280564
0.00064832
-0.00268368
-0.000266977
-0.0023387
-0.00124985
-0.00185395
-0.00206978
-0.00131276
-0.00261804
-0.000782399
-0.00285482
-0.000298606
-0.00282227
0.000120744
-0.00257377
0.000470415
-0.00215778
0.000777363
-0.00164031
0.00114593
-0.00106591
0.00190451
-0.000560401
0.00244074
-0.000528957
0.00203913
-0.000768324
0.00191289
-0.000841612
0.00180382
-0.000724988
0.00171112
-0.000587205
0.00166128
-0.000437838
0.00164255
-0.000274711
0.00175537
-0.000112974
0.0018272
-7.19769e-05
0.00188553
-5.84821e-05
0.00193076
-4.53859e-05
0.001949
-1.83898e-05
0.00191906
2.97861e-05
0.00181597
0.000102938
0.00160766
0.000208157
0.00124015
0.000367355
0.00110947
0.000725259
0.000823385
0.00116021
0.000386069
0.00154019
0.00231281
-0.000718096
0.00933634
-0.00123454
0.0041031
-0.00132091
0.00285039
-0.00137232
0.00211117
-0.00139327
0.00141802
-0.00130436
0.000559404
-0.00102471
-0.000546626
-0.000616081
-0.00165848
-0.00018414
-0.00250172
0.000204611
-0.00300679
0.000523269
-0.00317348
0.000769147
-0.00306814
0.000955112
-0.00275974
0.00110941
-0.00231208
0.0012626
-0.00179349
0.0014662
-0.00126951
0.00175035
-0.000844552
0.00188821
-0.000666817
0.00179127
-0.000671388
0.00161724
-0.00066758
0.00147125
-0.000578998
0.00135239
-0.000468343
0.00127139
-0.000356835
0.00124126
-0.000244581
0.00128267
-0.000154391
0.00133008
-0.000119384
0.00138245
-0.000110849
0.00143647
-9.94103e-05
0.00148163
-6.35472e-05
0.00149837
1.30451e-05
0.00146608
0.000135227
0.00137282
0.000301421
0.00121927
0.000520897
0.00108527
0.000859268
0.00094169
0.00130379
0.00062291
0.00185897
0.000552196
0.00238352
-0.000966092
0.00151808
-0.00142943
0.000463138
-0.00138245
-0.000626888
0.01037
-0.000980566
0.00445678
-0.000553175
0.002423
-0.000187138
0.00174514
9.47067e-05
0.00113617
0.000484458
0.000169653
0.000982954
-0.00104512
0.00140383
-0.00207935
0.00168995
-0.00278785
0.00183712
-0.00315396
0.00187479
-0.00321115
0.00183136
-0.00302471
0.00173699
-0.00266537
0.00162781
-0.00220289
0.00153691
-0.00170259
0.00148997
-0.00122257
0.00148116
-0.000835746
0.00142692
-0.000612569
0.00128328
-0.000527748
0.00109359
-0.000477897
0.000926985
-0.00041239
0.000800208
-0.000341566
0.000719095
-0.000275722
0.000691245
-0.000216731
0.000713581
-0.000176727
0.000761745
-0.000167547
0.000825175
-0.000174279
0.000899272
-0.000173508
0.000978487
-0.000142762
0.00105088
-5.93472e-05
0.00109882
8.72861e-05
0.00111793
0.000282307
0.00111635
0.000522482
0.00114121
0.000834412
0.00124024
0.00120475
0.00142682
0.00167239
0.00186992
0.00194042
0.00213211
0.00125589
0.00174335
0.000851904
0.000417458
-0.000681684
0.0115028
-0.000560715
0.00433581
0.000576041
0.00128624
0.00137234
0.000948841
0.00205817
0.000450342
0.00275983
-0.000532016
0.00330397
-0.00158925
0.00359096
-0.00236635
0.00362557
-0.00282246
0.00345325
-0.00298164
0.00313603
-0.00289394
0.00273503
-0.00262371
0.00230347
-0.00223381
0.00188807
-0.00178749
0.00152434
-0.00133886
0.00122847
-0.000926693
0.000998986
-0.000606266
0.000800748
-0.000414331
0.000601095
-0.000328094
0.000411272
-0.000288074
0.000256273
-0.000257392
0.000145767
-0.000231059
8.08147e-05
-0.00021077
6.18055e-05
-0.000197721
8.20063e-05
-0.000196928
0.000126441
-0.000211982
0.000185899
-0.000233736
0.000259293
-0.000246902
0.000350762
-0.000234231
0.000465189
-0.000173775
0.000590383
-3.79075e-05
0.000715812
0.000156878
0.000852364
0.00038593
0.00103783
0.000648946
0.00132042
0.000922156
0.00176194
0.00123087
0.00242892
0.00127345
0.00297069
0.000714117
0.00299179
0.00083081
0.00347031
0.00259577
0.00941172
0.00330047
0.00363111
0.0037034
0.000883317
0.00439441
0.000257831
0.00521049
-0.000365744
0.00583983
-0.00116135
0.00606087
-0.0018103
0.00590267
-0.00220814
0.00544203
-0.00236183
0.00477111
-0.00231072
0.00398523
-0.00210805
0.00316837
-0.00180686
0.00238203
-0.00144747
0.00167526
-0.00108073
0.00108094
-0.000744535
0.00060549
-0.000451247
0.000254318
-0.000255094
-1.06842e-06
-0.000158944
-0.000197243
-0.00013192
-0.000350924
-0.000134393
-0.000466891
-0.000141425
-0.00054753
-0.00015042
-0.000596416
-0.000161884
-0.000617231
-0.000176907
-0.000616701
-0.000197458
-0.000604685
-0.000223998
-0.000587117
-0.000251304
-0.00056312
-0.0002709
-0.000524366
-0.000272985
-0.000452163
-0.000245977
-0.000317482
-0.000172589
-0.000136028
-2.45755e-05
7.73688e-05
0.000172533
0.000346207
0.000380107
0.000681671
0.000586692
0.00112405
0.000788488
0.00161019
0.000787307
0.00181673
0.000507581
0.00108052
0.00156702
0.00480014
0.0099653
0.0135884
0.012458
0.00201369
0.0117515
0.000964293
0.0110958
0.000290018
0.0102152
-0.000280768
0.00906978
-0.000664888
0.0077642
-0.000902557
0.00639249
-0.000990122
0.00502815
-0.000946377
0.0037382
-0.000818092
0.00257532
-0.000643979
0.00156045
-0.000432598
0.000718268
-0.000238549
5.55638e-05
-8.18308e-05
-0.000411619
1.59358e-05
-0.000700359
3.36466e-05
-0.000879152
1.98487e-05
-0.00100548
-5.58884e-06
-0.00110664
-3.32399e-05
-0.001189
-5.90628e-05
-0.00125531
-8.41107e-05
-0.00130933
-0.00010786
-0.0013555
-0.000130739
-0.00140034
-0.000152615
-0.00145203
-0.000172309
-0.00151825
-0.000185086
-0.00160613
-0.00018302
-0.00172422
-0.000154891
-0.00188273
-8.74701e-05
-0.00208711
3.1785e-05
-0.00232449
0.000212808
-0.00262156
0.000469604
-0.00306015
0.000818694
-0.00373172
0.00125827
-0.0047029
0.00175967
-0.0060902
0.00217461
-0.00777482
0.0021922
-0.00730236
0.00109456
-0.00222637
0.00467867
0.00351245
0.00379159
0.00185137
0.00417341
-9.18016e-05
0.0041801
-0.000287463
0.00377628
-0.000261065
0.00314546
-0.000271743
0.00239425
-0.000238911
0.00159054
-0.000142665
0.000776451
-4.00479e-06
4.30018e-06
0.000128172
-0.00063499
0.000206692
-0.00108667
0.00021313
-0.00137353
0.000205033
-0.00153711
0.000179511
-0.00163984
0.000136378
-0.00171338
9.33875e-05
-0.00177445
5.54858e-05
-0.00183181
2.41191e-05
-0.00189033
-5.43622e-07
-0.00195184
-2.26063e-05
-0.00201715
-4.25408e-05
-0.00208823
-5.96623e-05
-0.00216831
-7.25319e-05
-0.00225986
-8.07653e-05
-0.00236375
-8.11947e-05
-0.00247893
-6.78351e-05
-0.00260147
-3.23572e-05
-0.00272359
3.46523e-05
-0.00283325
0.000141445
-0.0029273
0.000306856
-0.0030135
0.000555805
-0.00309733
0.000902525
-0.00317452
0.00133546
-0.00319979
0.00178494
-0.00312066
0.00209547
-0.00275745
0.00182899
-0.00149682
-0.000166065
-0.00365121
-0.000539473
0.00411665
0.000297079
0.00101482
-8.14909e-05
0.000286769
-0.000455408
8.64539e-05
-0.000785619
6.91464e-05
-0.00114635
8.89858e-05
-0.00151299
0.00012773
-0.0018326
0.000176952
-0.00205846
0.000221846
-0.00218434
0.000254052
-0.00224098
0.000263335
-0.002266
0.00023815
-0.00226423
0.000203268
-0.00225217
0.000167444
-0.00224862
0.000132838
-0.00225844
0.000103207
-0.00228148
7.85254e-05
-0.00231552
5.8159e-05
-0.00235732
4.12519e-05
-0.00240791
2.79816e-05
-0.00246619
1.57454e-05
-0.00253007
4.21164e-06
-0.00259689
-5.71115e-06
-0.0026645
-1.31548e-05
-0.0027292
-1.64986e-05
-0.00278428
-1.27503e-05
-0.00281895
2.31569e-06
-0.00282301
3.87056e-05
-0.00278621
0.000104646
-0.00268694
0.000207589
-0.00249403
0.000362899
-0.00218085
0.000589339
-0.0017283
0.000882908
-0.00110845
0.00116509
-0.000150254
0.00113727
0.00114242
0.00053632
0.00157811
-0.000601757
-0.00199425
-0.00723137
-0.0101327
-0.00597323
-0.00493846
-0.00464052
-0.00454715
-0.00447371
-0.0043824
-0.00425396
-0.00407766
-0.00385769
-0.00360665
-0.00334744
-0.00311447
-0.00291727
-0.00275662
-0.00263113
-0.00253569
-0.00246527
-0.00241547
-0.00238277
-0.00236347
-0.00235649
-0.00236107
-0.00237556
-0.00239741
-0.00242248
-0.00244365
-0.00244954
-0.0024188
-0.00232183
-0.00212164
-0.00176585
-0.00118334
-0.000307005
0.00085172
0.0019826
0.00251229
0.00190351
)
;

boundaryField
{
    floor
    {
        type            calculated;
        value           nonuniform List<scalar> 
29
(
0
0
0
0
0
0
0
0
0
0
0
0
0
0
0
0
0
0
0
0
-3.61234e-06
-9.30683e-06
-1.41936e-05
-1.86161e-05
-1.43978e-06
-2.68656e-06
-7.64629e-06
-8.01263e-06
-7.27217e-06
)
;
    }
    ceiling
    {
        type            calculated;
        value           nonuniform List<scalar> 
43
(
-4.54154e-05
-4.4097e-05
-4.27897e-05
-1.99493e-05
-1.11703e-05
-6.91727e-06
-4.29712e-06
-2.31826e-06
-7.12321e-07
6.51488e-07
1.87025e-06
3.01471e-06
4.13157e-06
5.17416e-06
6.06963e-06
6.78891e-06
7.34709e-06
7.77563e-06
8.10538e-06
8.35663e-06
8.54976e-06
8.68195e-06
8.76512e-06
8.79612e-06
8.77137e-06
8.69692e-06
8.57761e-06
8.41475e-06
8.20886e-06
7.95922e-06
7.68388e-06
7.39489e-06
7.10516e-06
6.82894e-06
6.57641e-06
6.36713e-06
6.39257e-06
6.62979e-06
7.02146e-06
8.24961e-06
1.10879e-05
8.03878e-06
-6.47295e-05
)
;
    }
    sWall
    {
        type            calculated;
        value           uniform -0.000274897;
    }
    nWall
    {
        type            calculated;
        value           nonuniform List<scalar> 6(-4.71869e-05 -5.65616e-05 -6.10669e-05 -7.1988e-05 -7.88479e-05 -9.89843e-05);
    }
    sideWalls
    {
        type            empty;
        value           nonuniform 0();
    }
    glass1
    {
        type            calculated;
        value           nonuniform List<scalar> 9(-5.62614e-05 -0.000151492 -0.000231684 -0.000299959 -0.000357927 -0.000406817 -0.000451072 -0.000504691 -0.000564672);
    }
    glass2
    {
        type            calculated;
        value           nonuniform List<scalar> 2(-0.000249304 -0.000275858);
    }
    sun
    {
        type            calculated;
        value           uniform 0;
    }
    heatsource1
    {
        type            calculated;
        value           nonuniform List<scalar> 3(2.03964e-07 2.03919e-07 2.03937e-07);
    }
    heatsource2
    {
        type            calculated;
        value           nonuniform List<scalar> 4(5.10989e-08 5.12211e-08 0 0);
    }
    Table_master
    {
        type            calculated;
        value           nonuniform List<scalar> 9(-1.52972e-07 -1.53053e-07 -1.53082e-07 -1.53102e-07 -1.53115e-07 -1.53125e-07 -1.53129e-07 -1.53122e-07 -1.5309e-07);
    }
    Table_slave
    {
        type            calculated;
        value           nonuniform List<scalar> 9(1.52849e-07 1.52874e-07 1.52858e-07 1.52844e-07 1.52839e-07 1.52842e-07 1.52858e-07 1.529e-07 1.5298e-07);
    }
    inlet
    {
        type            calculated;
        value           uniform -0.00617743;
    }
    outlet
    {
        type            calculated;
        value           nonuniform List<scalar> 2(0.00755168 0.0029454);
    }
}


// ************************************************************************* //
