/*--------------------------------*- C++ -*----------------------------------*\
  =========                 |
  \\      /  F ield         | OpenFOAM: The Open Source CFD Toolbox
   \\    /   O peration     | Website:  https://openfoam.org
    \\  /    A nd           | Version:  6
     \\/     M anipulation  |
\*---------------------------------------------------------------------------*/
FoamFile
{
    version     2.0;
    format      ascii;
    class       volScalarField;
    location    "510";
    object      epsilon;
}
// * * * * * * * * * * * * * * * * * * * * * * * * * * * * * * * * * * * * * //

dimensions      [0 2 -3 0 0 0 0];

internalField   nonuniform List<scalar> 
459
(
0.000178249
0.00024214
0.000272939
0.000321045
0.000372093
0.000429137
0.000493407
0.000552183
0.000594547
0.000606963
0.000576728
0.000456915
0.000326741
0.000207285
0.000131344
2.90666e-05
7.93751e-05
0.000101236
0.000108027
0.000107261
0.000100102
8.53695e-05
7.08275e-05
5.88334e-05
4.92639e-05
4.1621e-05
3.553e-05
3.05766e-05
2.6448e-05
2.28848e-05
1.96434e-05
1.64501e-05
1.22783e-05
8.49649e-06
0.000377294
0.000479849
0.000221206
0.000223182
0.00023946
0.000269625
0.000315191
0.000365231
0.000404345
0.000417062
0.000396427
0.000334665
0.000261083
0.000200483
0.000146091
0.000240906
0.000123074
9.87729e-05
0.000190872
0.000114495
9.49902e-05
8.42054e-05
7.71419e-05
7.8716e-05
6.60277e-05
5.35997e-05
4.33597e-05
3.52132e-05
2.88498e-05
2.38592e-05
1.99309e-05
1.70427e-05
1.56012e-05
1.65697e-05
1.33396e-05
1.45815e-05
0.000627179
0.000982476
0.00023327
0.000201458
0.000218637
0.000256837
0.000312727
0.000371422
0.000416253
0.00043536
0.000421302
0.000368987
0.000302777
0.000241473
0.00018445
0.000172506
0.000221147
0.000145678
0.00014333
0.000118645
0.000102912
9.11065e-05
8.89274e-05
0.000209013
0.00014113
9.8836e-05
7.19684e-05
5.43439e-05
4.24459e-05
3.42188e-05
2.84908e-05
2.4709e-05
1.93983e-05
1.83509e-05
1.58727e-05
1.86649e-05
0.000949261
0.00188222
0.000303139
0.000193005
0.0002088
0.000258433
0.000333419
0.000399843
0.000447766
0.000472324
0.000459999
0.000408148
0.000338386
0.000272732
0.000219192
0.00018727
0.000183971
0.000330714
0.000224276
0.00016686
0.000136437
0.000117021
0.000102999
0.000101297
0.00027585
0.000210826
0.000173717
0.000150161
0.000132987
0.000117922
0.000103603
8.99141e-05
7.53281e-05
4.51885e-05
3.03582e-05
2.65646e-05
2.6369e-05
0.00137927
0.00330086
0.00051078
0.000205172
0.000210063
0.000289916
0.000400984
0.000468848
0.000515202
0.000539768
0.000521043
0.000456505
0.000367353
0.000283861
0.000222393
0.000185255
0.000175183
0.000183038
0.000172389
0.000160964
0.000148093
0.00013338
0.000118118
0.000105581
0.000106758
0.00010209
9.75865e-05
9.30612e-05
8.78234e-05
8.12192e-05
7.31968e-05
6.48396e-05
5.67206e-05
4.58574e-05
3.5372e-05
3.42051e-05
2.98244e-05
4.11929e-05
4.32954e-05
4.83803e-05
0.00197666
0.00503165
0.00109293
0.000319646
0.000263834
0.000429567
0.000548183
0.00059526
0.000629315
0.000645778
0.000613463
0.0005233
0.000402138
0.000291122
0.000214167
0.000174946
0.000167412
0.000175672
0.000181502
0.000179164
0.000169103
0.000153656
0.00013608
0.000120142
0.000110854
0.000107144
0.000105682
0.00010381
0.000100435
9.4891e-05
8.6547e-05
7.53153e-05
6.39702e-05
5.34228e-05
4.36694e-05
3.96602e-05
3.73153e-05
4.14309e-05
0.000172131
0.000119841
0.00270328
0.00623965
0.00240578
0.000965255
0.000717921
0.000812709
0.000811915
0.000797054
0.000803939
0.000802832
0.000742655
0.000612016
0.000447231
0.000304082
0.000213221
0.000175349
0.000175508
0.000191135
0.000201995
0.000201114
0.000190273
0.000173701
0.00015596
0.000141295
0.000133227
0.000131088
0.000130706
0.000129574
0.000127386
0.000124367
0.000120048
0.000111796
9.96651e-05
8.87996e-05
8.08851e-05
7.72658e-05
7.75284e-05
8.73275e-05
0.000260089
0.000205718
0.00292365
0.00768776
0.00410793
0.0026074
0.00194236
0.00148659
0.0012054
0.00108029
0.00105092
0.00102131
0.000910034
0.000715499
0.000492835
0.00031949
0.000225678
0.000197852
0.000205431
0.000222055
0.000230378
0.00022701
0.000215682
0.000201592
0.000189057
0.000180668
0.000176744
0.000175176
0.000173067
0.000169622
0.000166557
0.00016684
0.000172847
0.000185053
0.000197991
0.000212909
0.000245339
0.000300178
0.000393352
0.000493312
0.00174476
0.00049007
0.00277239
0.00471867
0.00355613
0.00265942
0.00204118
0.00161585
0.0013989
0.00135382
0.00136864
0.0013045
0.00109005
0.000793566
0.00050584
0.000341954
0.000281878
0.000268618
0.000275317
0.000285343
0.000289036
0.00028682
0.000281834
0.000277108
0.000274169
0.000273156
0.000271974
0.000267535
0.000257468
0.000242219
0.000226066
0.000216072
0.000218624
0.000236944
0.000271961
0.000324585
0.000400848
0.000507818
0.00064547
0.00080579
0.000976956
0.000535711
0.000767384
0.00101701
0.00119736
0.00144345
0.00172664
0.00191849
0.00188951
0.00159447
0.00110081
0.000713948
0.000544157
0.000483242
0.0004688
0.000473336
0.000484858
0.00049649
0.000505237
0.000510837
0.000517587
0.000526493
0.000533861
0.000539553
0.000539395
0.000527325
0.000497671
0.000448272
0.000384165
0.00031953
0.000271937
0.000255454
0.000262691
0.000295417
0.000355032
0.000441814
0.000545185
0.000636377
0.000698817
0.000573386
0.000554963
0.00294569
0.00370681
0.00400023
0.00382849
0.00344102
0.00285537
0.00219755
0.00163512
0.00128265
0.00111494
0.00105734
0.00105241
0.00107322
0.00110989
0.00115653
0.00120645
0.00125386
0.00129405
0.00132554
0.00135088
0.00137665
0.00139773
0.00140149
0.00137076
0.00129053
0.00115863
0.000994835
0.000828265
0.000677412
0.000564665
0.000495936
0.000471626
0.000483555
0.000514536
0.000550803
0.000997705
0.00071469
0.000899675
0.00104236
0.00118573
0.00188581
0.00190789
0.00173287
0.00160772
0.00154787
0.00142424
0.00126141
0.00109112
0.000960754
0.000885814
0.000849547
0.000835307
0.000832237
0.000832874
0.000832419
0.000828774
0.000821873
0.00081312
0.000804389
0.000798207
0.000788335
0.00077058
0.000740859
0.000697327
0.000642919
0.000586426
0.00053532
0.00049292
0.000463458
0.000446351
0.00044197
0.000449767
0.000466737
0.000483249
0.000467116
0.000430584
0.000391736
)
;

boundaryField
{
    floor
    {
        Cmu             0.09;
        kappa           0.41;
        E               9.8;
        type            epsilonWallFunction;
        value           nonuniform List<scalar> 
29
(
0.000131344
2.90666e-05
7.93751e-05
0.000101236
0.000108027
0.000107261
0.000100102
8.53695e-05
7.08275e-05
5.88334e-05
4.92639e-05
4.1621e-05
3.553e-05
3.05766e-05
2.6448e-05
2.28848e-05
1.96434e-05
1.64501e-05
1.22783e-05
8.49649e-06
8.49649e-06
1.45815e-05
1.86649e-05
2.6369e-05
0.000131344
2.90666e-05
9.87729e-05
0.000145678
0.000330714
)
;
    }
    ceiling
    {
        Cmu             0.09;
        kappa           0.41;
        E               9.8;
        type            epsilonWallFunction;
        value           nonuniform List<scalar> 
43
(
0.000899675
0.00104236
0.00118573
0.00188581
0.00190789
0.00173287
0.00160772
0.00154787
0.00142424
0.00126141
0.00109112
0.000960754
0.000885814
0.000849547
0.000835307
0.000832237
0.000832874
0.000832419
0.000828774
0.000821873
0.00081312
0.000804389
0.000798207
0.000788335
0.00077058
0.000740859
0.000697327
0.000642919
0.000586426
0.00053532
0.00049292
0.000463458
0.000446351
0.00044197
0.000449767
0.000466737
0.000483249
0.000467116
0.000430584
0.000391736
0.00277239
0.00471867
0.000554963
)
;
    }
    sWall
    {
        Cmu             0.09;
        kappa           0.41;
        E               9.8;
        type            epsilonWallFunction;
        value           uniform 0.000899675;
    }
    nWall
    {
        Cmu             0.09;
        kappa           0.41;
        E               9.8;
        type            epsilonWallFunction;
        value           nonuniform List<scalar> 6(4.83803e-05 0.000119841 0.000205718 0.000573386 0.00071469 0.000391736);
    }
    sideWalls
    {
        type            empty;
    }
    glass1
    {
        Cmu             0.09;
        kappa           0.41;
        E               9.8;
        type            epsilonWallFunction;
        value           nonuniform List<scalar> 9(0.000178249 0.000377294 0.000627179 0.000949261 0.00137927 0.00197666 0.00270328 0.00292365 0.00277239);
    }
    glass2
    {
        Cmu             0.09;
        kappa           0.41;
        E               9.8;
        type            epsilonWallFunction;
        value           nonuniform List<scalar> 2(0.00049007 0.000535711);
    }
    sun
    {
        Cmu             0.09;
        kappa           0.41;
        E               9.8;
        type            epsilonWallFunction;
        value           nonuniform List<scalar> 
14
(
0.000178249
0.00024214
0.000272939
0.000321045
0.000372093
0.000429137
0.000493407
0.000552183
0.000594547
0.000606963
0.000576728
0.000456915
0.000326741
0.000207285
)
;
    }
    heatsource1
    {
        Cmu             0.09;
        kappa           0.41;
        E               9.8;
        type            epsilonWallFunction;
        value           nonuniform List<scalar> 3(4.11929e-05 4.32954e-05 4.83803e-05);
    }
    heatsource2
    {
        Cmu             0.09;
        kappa           0.41;
        E               9.8;
        type            epsilonWallFunction;
        value           nonuniform List<scalar> 4(0.000240906 0.000123074 0.000123074 0.000221147);
    }
    Table_master
    {
        Cmu             0.09;
        kappa           0.41;
        E               9.8;
        type            epsilonWallFunction;
        value           nonuniform List<scalar> 9(0.000209013 0.00014113 9.8836e-05 7.19684e-05 5.43439e-05 4.24459e-05 3.42188e-05 2.84908e-05 2.4709e-05);
    }
    Table_slave
    {
        Cmu             0.09;
        kappa           0.41;
        E               9.8;
        type            epsilonWallFunction;
        value           nonuniform List<scalar> 9(0.00027585 0.000210826 0.000173717 0.000150161 0.000132987 0.000117922 0.000103603 8.99141e-05 7.53281e-05);
    }
    inlet
    {
        type            turbulentMixingLengthDissipationRateInlet;
        mixingLength    0.01;
        phi             phi;
        k               k;
        value           uniform 0.000101881;
    }
    outlet
    {
        type            zeroGradient;
    }
}


// ************************************************************************* //
