/*--------------------------------*- C++ -*----------------------------------*\
  =========                 |
  \\      /  F ield         | OpenFOAM: The Open Source CFD Toolbox
   \\    /   O peration     | Website:  https://openfoam.org
    \\  /    A nd           | Version:  6
     \\/     M anipulation  |
\*---------------------------------------------------------------------------*/
FoamFile
{
    version     2.0;
    format      ascii;
    class       volScalarField;
    location    "1500";
    object      alphat;
}
// * * * * * * * * * * * * * * * * * * * * * * * * * * * * * * * * * * * * * //

dimensions      [1 -1 -1 0 0 0 0];

internalField   nonuniform List<scalar> 
459
(
0.00286597
0.00274097
0.00262794
0.00253276
0.0024531
0.0023843
0.00232328
0.00226689
0.00221243
0.00215751
0.00209959
0.00203541
0.00195974
0.00186159
0.0017325
0.000209479
0.000217414
0.000221294
0.000210439
0.00020191
0.000190764
0.000177561
0.000172492
0.000167075
0.000173094
0.000186946
0.000208781
0.000235922
0.000249814
0.000250585
0.000254608
0.000250064
0.000239331
0.00022046
0.00324879
0.0034951
0.00348458
0.0033748
0.0033113
0.00329399
0.00330366
0.00329541
0.00325723
0.00318734
0.00308518
0.00294763
0.00276105
0.00247875
0.00209511
0.00164226
0.0014186
0.000328723
0.000528042
0.000685882
0.000819401
0.000839663
0.000579124
0.000257222
0.000220223
0.000231057
0.000288555
0.000392555
0.000533567
0.000690071
0.000796651
0.000847804
0.000973198
0.00079714
0.000551306
0.000294223
0.00350231
0.00385598
0.00352618
0.0031826
0.00305896
0.00307216
0.00315436
0.00325078
0.00332563
0.00335899
0.0033377
0.00325169
0.00308778
0.00281113
0.00245001
0.00211715
0.0014273
0.000490106
0.00144026
0.00146668
0.0013679
0.00118438
0.000925128
0.000340919
0.000240232
0.000253747
0.000288087
0.000322924
0.000359958
0.000401355
0.000450771
0.0005193
0.00144077
0.00142276
0.00122935
0.000476014
0.00370365
0.00415481
0.00321305
0.0026182
0.00261825
0.00285557
0.00313764
0.00333648
0.00344492
0.00347867
0.00345764
0.00338297
0.00323856
0.00298351
0.00264811
0.00235374
0.00173544
0.000781048
0.00190758
0.00196319
0.00167789
0.00134945
0.00103951
0.000781833
0.000594578
0.000610583
0.00062708
0.000643057
0.0006579
0.000674611
0.000696677
0.000729058
0.000780709
0.00208503
0.00208865
0.00184727
0.000786769
0.00388989
0.00430173
0.00264736
0.0022218
0.00311344
0.00394892
0.0044379
0.00447551
0.00413701
0.00381216
0.00359692
0.00344576
0.00328204
0.00302196
0.0026735
0.00238301
0.00191494
0.00207957
0.00279327
0.00302321
0.00292277
0.00284081
0.00282823
0.00289255
0.00301431
0.00315959
0.00322037
0.00320221
0.00314375
0.00305613
0.00295127
0.00284449
0.00275121
0.00268339
0.0024799
0.00223961
0.00192175
0.000972652
0.000894267
0.000760107
0.00408441
0.00428303
0.00211386
0.00267649
0.00427722
0.00486733
0.00502423
0.00488942
0.00429896
0.00384272
0.00356689
0.00338354
0.00319435
0.00292682
0.00261983
0.00238841
0.00217217
0.00297764
0.00372448
0.00405252
0.00413792
0.0042373
0.00436548
0.00450786
0.00463896
0.00472867
0.00474851
0.00470837
0.00461392
0.00445973
0.00424027
0.00395823
0.00363072
0.0032856
0.00294868
0.00263966
0.00234035
0.00198647
0.00158329
0.000782024
0.00431268
0.00416832
0.00213751
0.0024636
0.00399357
0.0043883
0.00433021
0.0041534
0.00388936
0.00361206
0.00339736
0.00322422
0.00303773
0.00280384
0.00257551
0.00246463
0.00254843
0.0038095
0.00453779
0.00483574
0.00503204
0.00521495
0.00538094
0.00551889
0.00561927
0.00568154
0.00570342
0.00569443
0.00565383
0.00557104
0.00542539
0.00518886
0.00483832
0.00437752
0.00384887
0.00331175
0.00282201
0.00242152
0.00204288
0.00129942
0.00463193
0.00453515
0.00297422
0.00183044
0.00315268
0.00364034
0.00361767
0.00352304
0.00344263
0.00332354
0.0031955
0.0030647
0.00291421
0.00274024
0.0026029
0.00263405
0.00301692
0.00450408
0.00517739
0.00555403
0.00585133
0.00606753
0.00622024
0.00631116
0.00635196
0.00636383
0.00635987
0.00634998
0.00633921
0.00632742
0.00630738
0.00626088
0.00615439
0.00593796
0.00555441
0.00496005
0.00419663
0.00354742
0.00317854
0.00159472
0.00515885
0.00592533
0.00596938
0.0026033
0.00275581
0.0033694
0.00338477
0.00330393
0.0032298
0.00317577
0.00311129
0.00303257
0.00293322
0.00281978
0.00275324
0.00289589
0.00351471
0.00493381
0.00573737
0.00630975
0.00668734
0.00692038
0.00702759
0.00704039
0.00699999
0.00693757
0.00687217
0.00681447
0.00676972
0.00673945
0.00672214
0.00671259
0.00670038
0.00666928
0.00660063
0.00647459
0.00624018
0.00576798
0.00527564
0.00171049
0.00964536
0.00402931
0.00353406
0.00384564
0.00380514
0.00372761
0.003598
0.0034781
0.00340557
0.00334717
0.00328036
0.00320309
0.00317226
0.00339658
0.00424564
0.00529072
0.00628853
0.00702982
0.00750726
0.00777319
0.00785802
0.0078197
0.00771638
0.00759159
0.00747208
0.00737081
0.0072911
0.00723017
0.00718152
0.00713621
0.00708294
0.00700809
0.00689662
0.00673109
0.00647549
0.00604916
0.00514209
0.00181282
0.00432913
0.00343204
0.00467582
0.00456006
0.0043938
0.00412823
0.00384571
0.00355228
0.00340537
0.00334603
0.0033194
0.00328951
0.0032803
0.0034551
0.00405772
0.00498696
0.00608377
0.00713934
0.0078661
0.00822243
0.0082943
0.00820307
0.00804879
0.00789471
0.00777146
0.00768648
0.00763319
0.00759799
0.00756505
0.00751887
0.00744503
0.00732941
0.0071561
0.00690346
0.00653713
0.00598701
0.00525964
0.00203413
0.00125348
0.00127274
0.00253995
0.00185563
0.00147592
0.0014184
0.00140148
0.00139486
0.00139754
0.00140849
0.00141608
0.00142547
0.0014363
0.00144528
0.00144856
0.00143747
0.00143708
0.00146107
0.00150872
0.00157903
0.00167208
0.00175682
0.0018164
0.00184841
0.0018583
0.00185379
0.00184186
0.00182759
0.00181397
0.00180211
0.00179175
0.00178172
0.00177046
0.00175622
0.00173712
0.00171051
0.00167178
0.00161198
0.00155508
0.00148513
)
;

boundaryField
{
    floor
    {
        type            compressible::alphatWallFunction;
        Prt             0.85;
        value           nonuniform List<scalar> 
29
(
0.000242326
2.25845e-05
2.3945e-05
2.46077e-05
2.27494e-05
2.12805e-05
1.93473e-05
1.70369e-05
1.6143e-05
1.51832e-05
1.62482e-05
1.86798e-05
2.24621e-05
2.7088e-05
2.94276e-05
2.95568e-05
3.02314e-05
2.94707e-05
2.76651e-05
2.4463e-05
2.44625e-05
3.68011e-05
6.5669e-05
0.00011202
0.000242324
2.25841e-05
4.24208e-05
6.78239e-05
0.000111178
)
;
    }
    ceiling
    {
        type            compressible::alphatWallFunction;
        Prt             0.85;
        value           nonuniform List<scalar> 
43
(
0.000178203
0.000180834
0.000347083
0.000258675
0.000208138
0.000200371
0.000198081
0.000197185
0.000197549
0.000199033
0.000200061
0.000201331
0.000202794
0.000204005
0.000204441
0.000202931
0.000202869
0.000206103
0.000212515
0.000221938
0.000234338
0.000245565
0.000253422
0.00025763
0.000258927
0.000258332
0.000256762
0.000254884
0.000253088
0.000251524
0.000250156
0.000248832
0.000247342
0.00024546
0.000242931
0.000239405
0.000234262
0.000226298
0.000218687
0.000209293
0.000666316
0.000756214
0.000567476
)
;
    }
    sWall
    {
        type            compressible::alphatWallFunction;
        Prt             0.85;
        value           uniform 0.000177445;
    }
    nWall
    {
        type            compressible::alphatWallFunction;
        Prt             0.85;
        value           nonuniform List<scalar> 6(0.000108024 0.000111202 0.000183827 0.000252647 0.000281599 0.000209024);
    }
    sideWalls
    {
        type            empty;
    }
    glass1
    {
        type            compressible::alphatWallFunction;
        Prt             0.85;
        value           nonuniform List<scalar> 9(0.000383936 0.000431359 0.000462445 0.000486969 0.000509533 0.000532984 0.000560366 0.000598444 0.000660788);
    }
    glass2
    {
        type            compressible::alphatWallFunction;
        Prt             0.85;
        value           nonuniform List<scalar> 2(0.0002234 0.00023878);
    }
    sun
    {
        type            compressible::alphatWallFunction;
        Prt             0.85;
        value           nonuniform List<scalar> 
14
(
0.000388024
0.000372307
0.000358032
0.000345964
0.000335826
0.000327042
0.000319228
0.000311988
0.000304978
0.00029789
0.000290393
0.000282059
0.000272199
0.000259345
)
;
    }
    heatsource1
    {
        type            compressible::alphatWallFunction;
        Prt             0.85;
        value           nonuniform List<scalar> 3(0.000138569 0.000127436 0.000108112);
    }
    heatsource2
    {
        type            compressible::alphatWallFunction;
        Prt             0.85;
        value           nonuniform List<scalar> 4(0.000230156 0.000200144 0.000200141 0.000201319);
    }
    Table_master
    {
        type            compressible::alphatWallFunction;
        Prt             0.85;
        value           nonuniform List<scalar> 9(4.44106e-05 2.78451e-05 3.01147e-05 3.5814e-05 4.15036e-05 4.74636e-05 5.40317e-05 6.17594e-05 7.23012e-05);
    }
    Table_slave
    {
        type            compressible::alphatWallFunction;
        Prt             0.85;
        value           nonuniform List<scalar> 9(8.36757e-05 8.60718e-05 8.85334e-05 9.09102e-05 9.31121e-05 9.55837e-05 9.88357e-05 0.000103585 0.000111108);
    }
    inlet
    {
        type            fixedValue;
        value           uniform 1.94e-05;
    }
    outlet
    {
        type            zeroGradient;
    }
}


// ************************************************************************* //
