// -*- C++ -*-
// File generated by PyFoam - sorry for the ugliness

FoamFile
{
 version 2.0;
 format ascii;
 class volVectorField;
 location "900";
 object U;
}

dimensions [ 0 1 -1 0 0 0 0 ];

internalField nonuniform List<vector> 459
(
  (0.0474372 0.0799882 0)
  (-0.155502 0.0201313 0)
  (-0.170878 0.0155295 0)
  (-0.198059 0.0120804 0)
  (-0.219864 0.00790294 0)
  (-0.235744 0.00344959 0)
  (-0.244929 -0.00133695 0)
  (-0.246346 -0.00657786 0)
  (-0.238953 -0.012398 0)
  (-0.222659 -0.0186179 0)
  (-0.197793 -0.0246893 0)
  (-0.165198 -0.0304081 0)
  (-0.126195 -0.0366425 0)
  (-0.0869985 -0.0458423 0)
  (-0.0696461 -0.0591358 0)
  (0.0291357 0.012094 0)
  (-0.0048567 -0.0152402 0)
  (0.0156885 -0.0165247 0)
  (0.029467 -0.0115705 0)
  (0.0392319 -0.00745803 0)
  (0.044816 -0.00457401 0)
  (0.047192 -0.00252099 0)
  (0.0475818 -0.00140855 0)
  (0.0470543 -0.000881835 0)
  (0.0462174 -0.000605501 0)
  (0.0452656 -0.000423814 0)
  (0.0442037 -0.000283295 0)
  (0.0429904 -0.000134341 0)
  (0.0415035 0.000135617 0)
  (0.0393781 0.00083607 0)
  (0.0358017 0.00235505 0)
  (0.0300108 0.00306435 0)
  (0.0316899 0.00127718 0)
  (-0.030647 0.0143589 0)
  (0.225462 0.165138 0)
  (-0.151437 0.0547066 0)
  (-0.139307 0.0450032 0)
  (-0.168118 0.0377373 0)
  (-0.189643 0.0292998 0)
  (-0.205461 0.0200619 0)
  (-0.215035 0.00971724 0)
  (-0.217325 -0.00207039 0)
  (-0.211117 -0.0152094 0)
  (-0.196732 -0.0284313 0)
  (-0.174981 -0.039928 0)
  (-0.147768 -0.0484683 0)
  (-0.117938 -0.0543188 0)
  (-0.0908532 -0.0591789 0)
  (-0.0736689 -0.0610662 0)
  (-0.0545209 -0.0409576 0)
  (-0.0213009 -0.0235422 0)
  (0.0842903 -0.00863345 0)
  (0.0382459 -0.0175753 0)
  (0.0364368 -0.0176809 0)
  (0.0433278 -0.0128865 0)
  (0.048156 -0.00804426 0)
  (0.0507712 -0.00400327 0)
  (0.0517324 -0.000381451 0)
  (0.051519 0.00160171 0)
  (0.0511589 0.00240736 0)
  (0.0510138 0.00275335 0)
  (0.0509816 0.00295753 0)
  (0.0509597 0.00313465 0)
  (0.0509204 0.00339076 0)
  (0.0508291 0.00395027 0)
  (0.0502175 0.00549399 0)
  (0.0470502 0.0101928 0)
  (0.0388927 0.012534 0)
  (0.0416395 0.0106648 0)
  (-0.0657748 0.0327311 0)
  (0.385985 0.247908 0)
  (-0.175241 0.090025 0)
  (-0.106102 0.0740117 0)
  (-0.135242 0.0597021 0)
  (-0.154205 0.0454969 0)
  (-0.168661 0.0304374 0)
  (-0.17799 0.0136122 0)
  (-0.180689 -0.00553536 0)
  (-0.174757 -0.026608 0)
  (-0.160932 -0.0474159 0)
  (-0.140577 -0.0647218 0)
  (-0.116223 -0.0764407 0)
  (-0.0908608 -0.0823318 0)
  (-0.0679867 -0.0830651 0)
  (-0.0497506 -0.0770085 0)
  (-0.0320588 -0.0589395 0)
  (-0.0104739 -0.0431778 0)
  (0.0759127 -0.0472137 0)
  (0.0364055 -0.0344904 0)
  (0.0370013 -0.0241754 0)
  (0.0428125 -0.0170762 0)
  (0.0464511 -0.0116099 0)
  (0.0487004 -0.00756464 0)
  (0.0497011 -0.00601257 0)
  (0.0490146 -0.0043521 0)
  (0.0489579 -0.00359017 0)
  (0.0497232 -0.00324749 0)
  (0.0508047 -0.00307937 0)
  (0.0519672 -0.00298268 0)
  (0.0532557 -0.0028611 0)
  (0.0550194 -0.00249688 0)
  (0.0580766 -0.00024444 0)
  (0.0565136 0.0144297 0)
  (0.0441194 0.0226528 0)
  (0.0518861 0.0245491 0)
  (-0.093878 0.0525292 0)
  (0.526638 0.315004 0)
  (-0.213839 0.123416 0)
  (-0.0704578 0.0989672 0)
  (-0.0999659 0.0783869 0)
  (-0.113967 0.0603838 0)
  (-0.125107 0.0414018 0)
  (-0.132984 0.0194316 0)
  (-0.135199 -0.0066869 0)
  (-0.128496 -0.0360076 0)
  (-0.114682 -0.0642836 0)
  (-0.0960677 -0.0865475 0)
  (-0.0754541 -0.100282 0)
  (-0.055336 -0.105345 0)
  (-0.0377174 -0.102572 0)
  (-0.0233297 -0.0922312 0)
  (-0.0105919 -0.075227 0)
  (0.00175628 -0.0556115 0)
  (0.0274153 -0.0068856 0)
  (0.0414294 -0.0374925 0)
  (0.0351176 -0.0336323 0)
  (0.0343562 -0.0248457 0)
  (0.0366918 -0.018588 0)
  (0.0388907 -0.0135353 0)
  (0.0410642 -0.00838657 0)
  (0.0447946 -0.00608446 0)
  (0.0511515 -0.00618435 0)
  (0.0576323 -0.00634845 0)
  (0.0639842 -0.00635334 0)
  (0.0699977 -0.00592895 0)
  (0.0748373 -0.00479033 0)
  (0.0771558 -0.00270107 0)
  (0.0746973 0.000692977 0)
  (0.0653548 0.00572914 0)
  (0.0538006 0.0236082 0)
  (0.0406924 0.037357 0)
  (0.0576686 0.0458728 0)
  (-0.126925 0.0712501 0)
  (0.644337 0.368009 0)
  (-0.255764 0.152793 0)
  (-0.0348408 0.113648 0)
  (-0.0620984 0.0897811 0)
  (-0.0694349 0.0699275 0)
  (-0.0751226 0.0487351 0)
  (-0.079673 0.0232448 0)
  (-0.0791813 -0.00875178 0)
  (-0.0698884 -0.045783 0)
  (-0.0561397 -0.08008 0)
  (-0.0408709 -0.105006 0)
  (-0.0261032 -0.118669 0)
  (-0.0133291 -0.121756 0)
  (-0.00330925 -0.115905 0)
  (0.00413701 -0.102644 0)
  (0.00986419 -0.0849069 0)
  (0.0150814 -0.0657753 0)
  (0.0246852 -0.0459592 0)
  (0.0305696 -0.0422451 0)
  (0.0295186 -0.0342913 0)
  (0.0273629 -0.0258898 0)
  (0.0270036 -0.0197403 0)
  (0.0277662 -0.0152485 0)
  (0.0296706 -0.0116205 0)
  (0.0331513 -0.0092917 0)
  (0.0382835 -0.00883709 0)
  (0.0438503 -0.00910156 0)
  (0.0496895 -0.00912949 0)
  (0.0556151 -0.00815441 0)
  (0.0610468 -0.00536718 0)
  (0.0650671 5.788e-06 0)
  (0.0661556 0.00777092 0)
  (0.0631788 0.0178492 0)
  (0.0573775 0.0330093 0)
  (0.0472392 0.0490939 0)
  (0.0661944 0.0658023 0)
  (-0.0174138 0.08368 0)
  (0.0463089 0.0296414 0)
  (-0.0555947 -0.0298317 0)
  (-0.26844 -0.0529901 0)
  (0.725863 0.413254 0)
  (-0.293318 0.174301 0)
  (-0.00807605 0.110236 0)
  (-0.0208951 0.0923936 0)
  (-0.0203547 0.0746659 0)
  (-0.0197146 0.0524184 0)
  (-0.019503 0.0247781 0)
  (-0.0113834 -0.0121365 0)
  (0.00231697 -0.0570412 0)
  (0.01423 -0.0941963 0)
  (0.0232913 -0.117887 0)
  (0.0295055 -0.128841 0)
  (0.0326236 -0.12881 0)
  (0.0329108 -0.120143 0)
  (0.031187 -0.10531 0)
  (0.0285078 -0.0869278 0)
  (0.0258234 -0.0675828 0)
  (0.0249352 -0.049229 0)
  (0.0235807 -0.0387217 0)
  (0.019815 -0.0307059 0)
  (0.0160519 -0.0238955 0)
  (0.0140501 -0.0190557 0)
  (0.013728 -0.0158698 0)
  (0.0149799 -0.0137477 0)
  (0.0176733 -0.0128754 0)
  (0.0215128 -0.0134572 0)
  (0.0259524 -0.0145133 0)
  (0.0309043 -0.0151354 0)
  (0.0363498 -0.0144698 0)
  (0.0421564 -0.0114287 0)
  (0.0480086 -0.00470946 0)
  (0.05349 0.00607818 0)
  (0.0561224 0.0193524 0)
  (0.0575359 0.0349821 0)
  (0.0569271 0.0515841 0)
  (0.0759255 0.0712228 0)
  (0.0590848 0.0818267 0)
  (0.0931011 0.0615617 0)
  (0.113718 0.0428765 0)
  (-0.120759 -0.00238722 0)
  (0.768339 0.454556 0)
  (-0.310009 0.162767 0)
  (0.0160143 0.0620301 0)
  (0.0361215 0.0762192 0)
  (0.0425627 0.0744041 0)
  (0.0472878 0.0518233 0)
  (0.0537487 0.0182687 0)
  (0.0719816 -0.0257638 0)
  (0.0856162 -0.0688778 0)
  (0.091996 -0.101693 0)
  (0.0920776 -0.121263 0)
  (0.0872166 -0.128361 0)
  (0.0785686 -0.12513 0)
  (0.0673805 -0.114156 0)
  (0.0550021 -0.0981293 0)
  (0.0426359 -0.0796223 0)
  (0.0312889 -0.0610528 0)
  (0.021899 -0.0443792 0)
  (0.0140705 -0.0328674 0)
  (0.00703482 -0.0253378 0)
  (0.00172673 -0.0203013 0)
  (-0.00145676 -0.017251 0)
  (-0.00279482 -0.0157274 0)
  (-0.00269885 -0.0151825 0)
  (-0.00145832 -0.0156241 0)
  (0.000580439 -0.0170199 0)
  (0.00306282 -0.0187076 0)
  (0.0059946 -0.0200079 0)
  (0.0095684 -0.0201798 0)
  (0.0140941 -0.0181366 0)
  (0.0199787 -0.0122799 0)
  (0.0288538 -0.000848 0)
  (0.0383943 0.0141758 0)
  (0.0470407 0.0294671 0)
  (0.0558338 0.0437684 0)
  (0.0763783 0.059462 0)
  (0.0906222 0.0635821 0)
  (0.118414 0.0472659 0)
  (0.155165 0.0435219 0)
  (-0.0347804 0.0929122 0)
  (0.870108 0.461072 0)
  (-0.0812536 0.142469 0)
  (0.100554 -0.0162018 0)
  (0.161417 0.000795725 0)
  (0.158775 0.021254 0)
  (0.153945 0.00890593 0)
  (0.160127 -0.0230674 0)
  (0.176971 -0.0547119 0)
  (0.181999 -0.0822603 0)
  (0.17535 -0.10242 0)
  (0.160358 -0.113237 0)
  (0.139983 -0.114781 0)
  (0.116639 -0.108398 0)
  (0.0923181 -0.0960949 0)
  (0.0686684 -0.0802223 0)
  (0.0468072 -0.0629329 0)
  (0.0276927 -0.0463856 0)
  (0.0117919 -0.0323395 0)
  (-0.00035523 -0.0229849 0)
  (-0.00907673 -0.018064 0)
  (-0.0148764 -0.0156853 0)
  (-0.0187445 -0.014696 0)
  (-0.0212517 -0.0146422 0)
  (-0.0227976 -0.0152721 0)
  (-0.0236983 -0.0165461 0)
  (-0.0242952 -0.0183423 0)
  (-0.0248223 -0.0203267 0)
  (-0.025303 -0.0221002 0)
  (-0.0255759 -0.0231683 0)
  (-0.0252548 -0.0228599 0)
  (-0.0236387 -0.0203095 0)
  (-0.0192024 -0.0145482 0)
  (-0.00596184 -0.00451931 0)
  (0.0105403 0.00835709 0)
  (0.0236763 0.0162904 0)
  (0.0434901 0.0216081 0)
  (0.0613695 0.0145695 0)
  (0.0781337 -0.00272646 0)
  (0.133999 0.0497985 0)
  (-0.420935 0.202659 0)
  (1.01195 0.4208 0)
  (0.479525 0.276679 0)
  (0.494586 0.186824 0)
  (0.50408 0.148523 0)
  (0.450355 0.118992 0)
  (0.397133 0.0812877 0)
  (0.365454 0.039959 0)
  (0.332733 -0.00257227 0)
  (0.29315 -0.038685 0)
  (0.250997 -0.064018 0)
  (0.208831 -0.0775979 0)
  (0.167944 -0.0808387 0)
  (0.129244 -0.0760835 0)
  (0.0935151 -0.0658287 0)
  (0.0615546 -0.0526473 0)
  (0.0336004 -0.0385214 0)
  (0.0105595 -0.025645 0)
  (-0.00799762 -0.0158587 0)
  (-0.0192132 -0.0117117 0)
  (-0.0269529 -0.0103062 0)
  (-0.032622 -0.0100542 0)
  (-0.0370887 -0.0103765 0)
  (-0.0408549 -0.011125 0)
  (-0.0442548 -0.0122344 0)
  (-0.0475888 -0.0136891 0)
  (-0.051173 -0.0153964 0)
  (-0.0552976 -0.017123 0)
  (-0.0602229 -0.0185121 0)
  (-0.0662228 -0.0190439 0)
  (-0.073641 -0.0179722 0)
  (-0.0829517 -0.0143111 0)
  (-0.0945606 -0.00701593 0)
  (-0.108058 0.00454464 0)
  (-0.120973 0.0188357 0)
  (-0.140269 0.0348213 0)
  (-0.170606 0.0521055 0)
  (-0.214941 0.068866 0)
  (-0.26832 0.0832108 0)
  (-0.342002 0.0926671 0)
  (-0.603968 0.0903891 0)
  (-0.427845 -0.0231638 0)
  (0.157669 0.0746021 0)
  (0.243242 0.0796284 0)
  (0.237932 0.060835 0)
  (0.229831 0.0319854 0)
  (0.217124 0.00261602 0)
  (0.200674 -0.0203335 0)
  (0.17637 -0.0351212 0)
  (0.1472 -0.0425879 0)
  (0.115235 -0.043812 0)
  (0.0825449 -0.0399421 0)
  (0.0510493 -0.03225 0)
  (0.0228063 -0.0225399 0)
  (-0.00241163 -0.0120366 0)
  (-0.0203703 -0.00446848 0)
  (-0.0317359 -0.00106744 0)
  (-0.0391355 -0.000433125 0)
  (-0.0447064 -0.000708563 0)
  (-0.0493907 -0.00123712 0)
  (-0.0537504 -0.00188869 0)
  (-0.0581115 -0.00273863 0)
  (-0.0626627 -0.00377022 0)
  (-0.0675803 -0.00491642 0)
  (-0.0730227 -0.00602192 0)
  (-0.0790941 -0.00681802 0)
  (-0.0858165 -0.00694374 0)
  (-0.0931057 -0.00598056 0)
  (-0.100755 -0.00349776 0)
  (-0.108429 0.000925822 0)
  (-0.115459 0.00769464 0)
  (-0.120713 0.0177777 0)
  (-0.124423 0.0323101 0)
  (-0.127125 0.0502774 0)
  (-0.129085 0.0689812 0)
  (-0.127402 0.0822719 0)
  (-0.110654 0.0765309 0)
  (-0.0755068 0.0232809 0)
  (-0.194542 -0.17409 0)
  (-0.154534 0.170888 0)
  (0.0875044 0.0868139 0)
  (0.0491642 0.0499827 0)
  (0.0610242 0.0479421 0)
  (0.0757024 0.0343042 0)
  (0.0806983 0.0136567 0)
  (0.07894 -0.00404227 0)
  (0.06889 -0.0155066 0)
  (0.0519613 -0.0210073 0)
  (0.0311075 -0.021578 0)
  (0.00887538 -0.0187053 0)
  (-0.0128461 -0.0145387 0)
  (-0.0286654 -0.0123384 0)
  (-0.0393247 -0.0132336 0)
  (-0.0452269 -0.0169263 0)
  (-0.0487318 -0.021985 0)
  (-0.0516492 -0.0269168 0)
  (-0.0547157 -0.0306821 0)
  (-0.0580503 -0.0330724 0)
  (-0.0616645 -0.0342144 0)
  (-0.0656028 -0.0348441 0)
  (-0.0699442 -0.0350974 0)
  (-0.0747316 -0.0350118 0)
  (-0.0799518 -0.0345857 0)
  (-0.0855131 -0.0337546 0)
  (-0.0912102 -0.032344 0)
  (-0.0966754 -0.0300132 0)
  (-0.101308 -0.0261985 0)
  (-0.104233 -0.0200151 0)
  (-0.10451 -0.0103291 0)
  (-0.101255 0.00218138 0)
  (-0.0931718 0.0178335 0)
  (-0.0794281 0.0359592 0)
  (-0.0601741 0.0530986 0)
  (-0.0373082 0.062123 0)
  (0.0292482 0.0330177 0)
  (0.14564 -0.0397101 0)
  (-0.0487637 -0.067105 0)
  (0.0634627 -0.261689 0)
  (-0.347641 -0.10634 0)
  (-0.273103 0.0609437 0)
  (-0.176928 -0.00647337 0)
  (-0.147168 -0.00771471 0)
  (-0.10413 0.00204016 0)
  (-0.0712285 -0.00122845 0)
  (-0.0535512 -0.00831232 0)
  (-0.0495149 -0.00625121 0)
  (-0.0514169 0.00347992 0)
  (-0.0605397 0.0158601 0)
  (-0.0688711 0.0284551 0)
  (-0.0740307 0.0399635 0)
  (-0.0753264 0.0498448 0)
  (-0.0732715 0.0585651 0)
  (-0.0698576 0.0678867 0)
  (-0.0660617 0.077182 0)
  (-0.0630165 0.0855392 0)
  (-0.0611677 0.0921228 0)
  (-0.0604324 0.0966253 0)
  (-0.0605304 0.0991601 0)
  (-0.0612038 0.0998859 0)
  (-0.0623173 0.0998022 0)
  (-0.0638284 0.0989476 0)
  (-0.0657468 0.097265 0)
  (-0.0680937 0.0947433 0)
  (-0.0708501 0.0914467 0)
  (-0.073906 0.0874966 0)
  (-0.0770055 0.0830084 0)
  (-0.0796457 0.0780008 0)
  (-0.0808714 0.0723293 0)
  (-0.0790156 0.0661651 0)
  (-0.0713799 0.0625051 0)
  (-0.0561643 0.0624982 0)
  (-0.033538 0.0665562 0)
  (-0.00127437 0.0731649 0)
  (0.032285 0.0697813 0)
  (0.0849415 0.0398429 0)
  (0.121237 0.00191626 0)
  (-0.501749 0.0757186 0)
)
;

boundaryField
{
  floor
  {
    type noSlip;
  }
  ceiling
  {
    type noSlip;
  }
  sWall
  {
    type noSlip;
  }
  nWall
  {
    type noSlip;
  }
  sideWalls
  {
    type empty;
  }
  glass1
  {
    type noSlip;
  }
  glass2
  {
    type noSlip;
  }
  sun
  {
    type noSlip;
  }
  heatsource1
  {
    type noSlip;
  }
  heatsource2
  {
    type noSlip;
  }
  Table_master
  {
    type noSlip;
  }
  Table_slave
  {
    type noSlip;
  }
  inlet
  {
    type fixedValue;
    value uniform (0.212132 -0.212132 0);
  }
  outlet
  {
    type zeroGradient;
  }
} 	// ************************************************************************* //

