/*--------------------------------*- C++ -*----------------------------------*\
  =========                 |
  \\      /  F ield         | OpenFOAM: The Open Source CFD Toolbox
   \\    /   O peration     | Website:  https://openfoam.org
    \\  /    A nd           | Version:  6
     \\/     M anipulation  |
\*---------------------------------------------------------------------------*/
FoamFile
{
    version     2.0;
    format      ascii;
    class       surfaceScalarField;
    location    "200";
    object      phi;
}
// * * * * * * * * * * * * * * * * * * * * * * * * * * * * * * * * * * * * * //

dimensions      [1 0 -1 0 0 0 0];

internalField   nonuniform List<scalar> 
852
(
-0.00309037
0.00314832
-0.00426936
0.00117906
-0.00507555
0.000806251
-0.00558632
0.000510836
-0.00575503
0.000168779
-0.00554332
-0.000211644
-0.00493642
-0.000606838
-0.00399143
-0.000944924
-0.00283325
-0.00115812
-0.00160843
-0.00122476
-0.000472172
-0.00113621
0.000359304
-0.000831432
0.000783466
-0.000424119
0.000743111
4.0397e-05
0.000745441
-0.000947436
0.000950483
-0.000804805
-0.000142648
-0.000195554
-0.000609263
0.000440497
-0.000636062
0.000940112
-0.000499628
0.00129162
-0.000351525
0.00149194
-0.000200336
0.00158759
-9.56672e-05
0.00164194
-5.43788e-05
0.00167841
-3.64891e-05
0.00170296
-2.45855e-05
0.00171815
-1.52176e-05
0.00172248
-4.36028e-06
0.00170644
1.6008e-05
0.00164474
6.16604e-05
0.00149365
0.00015105
0.00123064
0.000262969
0.000851135
0.000379453
0.00085482
-0.00222136
0.00552615
-0.00334086
0.00229862
-0.00417283
0.0016383
-0.00469605
0.00103412
-0.00488112
0.000353921
-0.00469287
-0.000399819
-0.00413582
-0.00116382
-0.00329303
-0.00178763
-0.00230568
-0.0021454
-0.00131305
-0.00221732
-0.000434374
-0.00201483
0.00026182
-0.00152758
0.000738355
-0.000900612
0.0010097
-0.000230906
0.00137169
0.000383485
0.000756387
0.000615294
0.000756369
-3.99942e-05
0.000999747
0.000380254
-0.000562908
0.000789008
-0.00101802
0.00111499
-0.000962053
0.001382
-0.000766645
0.00156822
-0.000537753
0.00160974
-0.000241874
0.00161921
-0.000105153
0.0016295
-6.46954e-05
0.00163809
-4.51048e-05
0.00164396
-3.0482e-05
0.00164778
-1.9064e-05
0.00164896
-5.57318e-06
0.00164333
2.15974e-05
0.0016004
0.000104555
0.00141292
0.000338485
0.00109631
0.000579533
0.000694899
0.000780815
0.00155978
-0.00156195
0.00732823
-0.00251369
0.00325042
-0.00326356
0.00238824
-0.0037279
0.00149852
-0.00388478
0.00051088
-0.00367388
-0.000610645
-0.00311856
-0.00171906
-0.00234307
-0.00256303
-0.00150326
-0.00298512
-0.000707981
-0.00301252
-3.16159e-05
-0.00269114
0.000516734
-0.00207589
0.000935596
-0.00131944
0.0012393
-0.000534569
0.00141964
0.000203183
0.00118637
0.000848601
0.00194277
0.0014458
-0.000433823
0.00173482
-0.000851935
0.00173346
-0.00101666
0.0017612
-0.000989791
0.00182156
-0.000827008
0.00192198
-0.000638185
0.00168024
0.00157522
0.00151066
0.00146569
0.00143533
0.00141639
0.00141094
0.00143265
0.00153732
0.00123461
0.000641145
0.000903586
0.00091051
0.000524071
0.00116028
0.00209953
-0.0010861
0.00872637
-0.00182232
0.00398671
-0.00233559
0.00290158
-0.00264574
0.00180874
-0.0026824
0.000547607
-0.00235955
-0.000933418
-0.00177631
-0.00230221
-0.0010914
-0.00324784
-0.000437882
-0.00363854
0.000127756
-0.00357808
0.000579678
-0.003143
0.000952862
-0.00244903
0.00126069
-0.00162723
0.00152013
-0.000793979
0.00176042
-3.70772e-05
0.00205656
0.000552502
0.00310151
0.000897854
0.00285056
0.000261165
0.00266158
-0.000244801
0.00246357
-0.000653901
0.00225314
-0.000806215
0.00206973
-0.000806378
0.00193684
-0.000694117
0.00179309
-0.000494453
0.00198394
-0.000191028
0.00205462
-7.08634e-05
0.00207688
-2.24484e-05
0.00206343
1.32582e-05
0.00200867
5.45709e-05
0.00190165
0.00010682
0.00172389
0.000177558
0.0014446
0.000279091
0.00100549
0.000438891
0.000875055
0.000771532
0.000616274
0.00116924
0.000263311
0.00151318
0.00238367
-0.000749853
0.0098499
-0.0012849
0.00452182
-0.00140856
0.0030253
-0.0014592
0.00185944
-0.00120381
0.000292278
-0.000666755
-0.00147039
-7.58475e-05
-0.00289302
0.000432231
-0.0037558
0.000819581
-0.00402577
0.00109009
-0.0038485
0.00127953
-0.00333238
0.00142272
-0.00259218
0.00154342
-0.00174791
0.00167273
-0.000923275
0.00185569
-0.00022001
0.00212554
0.000282679
0.00251615
0.000507279
0.00253809
0.000239257
0.00244967
-0.000156349
0.00223496
-0.000439176
0.00199443
-0.000565678
0.0017642
-0.000576154
0.00156908
-0.000499022
0.00142814
-0.000353541
0.00141076
-0.000173691
0.00140101
-6.11494e-05
0.00138331
-4.79504e-06
0.00136142
3.50942e-05
0.00133296
8.29751e-05
0.00128612
0.0001536
0.00120571
0.000257904
0.00107805
0.000406693
0.000910698
0.000606177
0.000780108
0.000902062
0.000667767
0.00128152
0.000386186
0.00179471
0.000399852
0.00236994
-0.001016
0.00141556
-0.00146034
0.000444032
-0.00141212
-0.00062855
0.0109045
-0.000950279
0.00484362
-0.000481535
0.00255662
3.32397e-05
0.00134472
0.00073275
-0.000407188
0.0014149
-0.00215246
0.00187939
-0.0033574
0.00210675
-0.00398303
0.0021637
-0.00408261
0.00209109
-0.0037758
0.0019464
-0.00318763
0.0017836
-0.00242936
0.00164098
-0.00160529
0.00155424
-0.000836533
0.00155206
-0.000217824
0.00164372
0.000191037
0.00180556
0.000345459
0.0018457
0.000199135
0.00173667
-4.73119e-05
0.00153786
-0.000240368
0.00131256
-0.000340398
0.00109295
-0.000356574
0.000901852
-0.000307965
0.000762083
-0.000213821
0.000693794
-0.000105457
0.000669242
-3.6657e-05
0.000669918
-5.53397e-06
0.000689473
1.54727e-05
0.000720731
5.16485e-05
0.000754734
0.000119525
0.000783601
0.000228965
0.000804659
0.000385562
0.000820068
0.000590696
0.000870923
0.000851139
0.00100928
0.0011431
0.00124051
0.00156342
0.0017767
0.00183369
0.00210007
0.00109211
0.00175753
0.00078648
0.000403533
-0.000605799
0.0119845
-0.000372718
0.0046106
0.000976339
0.00120762
0.00217698
0.000144126
0.00319171
-0.00142185
0.00378685
-0.00274749
0.00397918
-0.00354959
0.00383408
-0.00383779
0.00345373
-0.00370215
0.00293575
-0.00325774
0.0023748
-0.00262664
0.00184625
-0.00190082
0.00139547
-0.00115454
0.00106816
-0.000509248
0.00087891
-2.85902e-05
0.000834461
0.000235482
0.000878881
0.000301039
0.000878258
0.000199753
0.000787449
4.34785e-05
0.000632032
-8.49812e-05
0.000446389
-0.000154797
0.000259426
-0.000169666
9.53484e-05
-0.00014395
-2.33023e-05
-9.52404e-05
-8.18201e-05
-4.70139e-05
-9.13513e-05
-2.72027e-05
-6.43622e-05
-3.2601e-05
-4.24687e-06
-4.47205e-05
8.73336e-05
-4.00117e-05
0.000202037
4.73874e-06
0.000333422
9.74958e-05
0.00048741
0.00023149
0.000667785
0.00041024
0.000898134
0.000620714
0.00121814
0.000823023
0.00169512
0.00108637
0.00242557
0.00110318
0.00301152
0.000506089
0.00307452
0.000723401
0.00353977
0.00292403
0.00959191
0.00380263
0.00373205
0.00460654
0.000403762
0.00583008
-0.00107935
0.00651417
-0.00210583
0.00656784
-0.00280102
0.00612208
-0.00310367
0.00532716
-0.00304273
0.00433037
-0.00270525
0.00325994
-0.00218727
0.00223782
-0.00160452
0.00134863
-0.00101168
0.000627002
-0.00043297
0.000136012
-1.83158e-05
-0.000105238
0.000212614
-0.000159782
0.00029
-0.000144415
0.000285646
-0.000156581
0.000211885
-0.00022627
0.00011312
-0.000342711
3.14e-05
-0.000483529
-1.40503e-05
-0.0006249
-2.8373e-05
-0.000745585
-2.33512e-05
-0.000829551
-1.13639e-05
-0.00086994
-6.71669e-06
-0.000875793
-2.14441e-05
-0.000856024
-5.2464e-05
-0.000812782
-8.80583e-05
-0.000738196
-0.000114693
-0.000616634
-0.000116917
-0.000443123
-7.61107e-05
-0.000230287
1.85604e-05
2.79448e-05
0.000151917
0.000336592
0.000311982
0.000673501
0.000486035
0.00108241
0.000677395
0.00150445
0.000681069
0.00160913
0.000401334
0.000843294
0.00148916
0.00464105
0.0101795
0.0139068
0.0126944
0.0016162
0.011816
-0.000200817
0.0106313
-0.000920903
0.00913264
-0.00130215
0.00742146
-0.00139233
0.0056519
-0.00127306
0.00394778
-0.00100111
0.00237862
-0.000618136
0.00102598
-0.000251948
-4.77797e-05
6.19523e-05
-0.00073502
0.000254178
-0.00104658
0.000293172
-0.00113905
0.000305026
-0.0011488
0.000299705
-0.00113731
0.000274096
-0.00115049
0.000224998
-0.00120406
0.00016661
-0.00128929
0.000116544
-0.00138759
8.41591e-05
-0.00148397
6.79041e-05
-0.001568
6.05703e-05
-0.00163344
5.39659e-05
-0.00168202
4.17548e-05
-0.00172588
2.23097e-05
-0.00177973
1.27945e-06
-0.00185583
-1.20715e-05
-0.00196446
-6.16411e-06
-0.00211386
3.23744e-05
-0.00230735
0.000117278
-0.00255229
0.0002634
-0.0028893
0.000488834
-0.00338502
0.000807613
-0.00411606
0.00121699
-0.00512793
0.00168917
-0.00652707
0.00208012
-0.0082135
0.00208768
-0.00760469
0.000880253
-0.00268278
0.00480745
0.00307937
0.00356607
0.00104066
0.00339433
-0.000749165
0.00287778
-0.00078567
0.00199461
-0.000509261
0.00093344
-0.000212038
-0.000155796
8.79298e-05
-0.00106708
0.000293011
-0.00166184
0.000342699
-0.00196172
0.000361729
-0.00206167
0.000354036
-0.00208907
0.000320485
-0.00207451
0.000290384
-0.00204454
0.000269658
-0.0020211
0.000250572
-0.00202176
0.000225556
-0.00205116
0.00019591
-0.00210203
0.0001673
-0.00216203
0.000144042
-0.00222093
0.000126691
-0.00227357
0.00011309
-0.00231985
0.000100126
-0.00236371
8.54938e-05
-0.00241092
6.93957e-05
-0.00246533
5.55676e-05
-0.00252801
5.04956e-05
-0.00259844
6.41498e-05
-0.00267332
0.000107146
-0.00274999
0.000193842
-0.00282818
0.000341485
-0.00290969
0.00057024
-0.00299615
0.000893979
-0.00307487
0.0012956
-0.00307434
0.00168855
-0.00289286
0.00189854
-0.00227181
0.00146652
-0.00100042
-0.000391247
-0.00361294
-0.000524777
0.00367124
-0.000237638
0.000753329
-0.00113314
0.000146168
-0.00195739
3.84005e-05
-0.00258552
0.000118699
-0.00301177
0.000214046
-0.00321419
0.000290201
-0.00325068
0.000329365
-0.00322249
0.000314387
-0.00314126
0.000280387
-0.0030322
0.000244871
-0.00292567
0.000213859
-0.0028293
0.000193903
-0.00274409
0.000184339
-0.00267334
0.000179715
-0.00262218
0.00017427
-0.00259216
0.000165766
-0.00257965
0.000154667
-0.00257799
0.000142249
-0.00258085
0.000129423
-0.00258443
0.000116534
-0.00258782
0.000103378
-0.00259195
8.94941e-05
-0.00259765
7.49693e-05
-0.00260359
6.13792e-05
-0.00260552
5.23045e-05
-0.00259542
5.39244e-05
-0.00256272
7.43355e-05
-0.00249251
0.000123515
-0.00236433
0.00021319
-0.00215299
0.000358787
-0.00183441
0.000575294
-0.00138909
0.000850179
-0.000766745
0.0010661
0.000154702
0.000976986
0.00126199
0.000359116
0.0015446
-0.000673972
-0.00199121
-0.00738221
-0.0103042
-0.00659641
-0.00582951
-0.00567785
-0.0056374
-0.0055187
-0.00530627
-0.00501907
-0.00469396
-0.00438496
-0.00411092
-0.00387319
-0.00366715
-0.00348166
-0.00330629
-0.00313608
-0.00297182
-0.00281656
-0.00267282
-0.00254181
-0.00242383
-0.00231881
-0.00222692
-0.00214879
-0.00208497
-0.00203444
-0.00199258
-0.0019486
-0.00188364
-0.00176887
-0.00156379
-0.00121248
-0.000644082
0.000199718
0.00125978
0.00223066
0.0025832
0.00190203
)
;

boundaryField
{
    floor
    {
        type            calculated;
        value           nonuniform List<scalar> 
29
(
0
0
0
0
0
0
0
0
0
0
0
0
0
0
0
0
0
0
0
0
-3.7389e-06
-1.01205e-05
-1.57349e-05
-2.08884e-05
-2.28899e-06
-3.06907e-06
-9.29307e-06
-1.22426e-05
-1.01816e-05
)
;
    }
    ceiling
    {
        type            calculated;
        value           nonuniform List<scalar> 
43
(
-3.89196e-05
-3.78641e-05
-3.6765e-05
-1.37591e-05
-5.6623e-06
-2.21005e-06
-1.50064e-07
1.46816e-06
2.86409e-06
4.12328e-06
5.25576e-06
6.21817e-06
7.0163e-06
7.69148e-06
8.28432e-06
8.83249e-06
9.36251e-06
9.8797e-06
1.03644e-05
1.07821e-05
1.10995e-05
1.12979e-05
1.13768e-05
1.13479e-05
1.12239e-05
1.10112e-05
1.07078e-05
1.03088e-05
9.81613e-06
9.2448e-06
8.62261e-06
7.9829e-06
7.35761e-06
6.77698e-06
6.26439e-06
5.92001e-06
5.99992e-06
6.454e-06
7.08107e-06
8.69776e-06
7.29715e-06
4.77396e-06
-6.70925e-05
)
;
    }
    sWall
    {
        type            calculated;
        value           uniform -0.000260196;
    }
    nWall
    {
        type            calculated;
        value           nonuniform List<scalar> 6(-4.85126e-05 -5.82146e-05 -6.17948e-05 -7.03819e-05 -7.72558e-05 -9.80054e-05);
    }
    sideWalls
    {
        type            empty;
        value           nonuniform 0();
    }
    glass1
    {
        type            calculated;
        value           nonuniform List<scalar> 9(-5.78863e-05 -0.000156405 -0.000240054 -0.000311969 -0.000373609 -0.000426001 -0.000474126 -0.000531362 -0.000594782);
    }
    glass2
    {
        type            calculated;
        value           nonuniform List<scalar> 2(-0.000258061 -0.000280951);
    }
    sun
    {
        type            calculated;
        value           uniform 0;
    }
    heatsource1
    {
        type            calculated;
        value           nonuniform List<scalar> 3(2.04232e-07 2.04096e-07 2.04133e-07);
    }
    heatsource2
    {
        type            calculated;
        value           nonuniform List<scalar> 4(5.12259e-08 5.13473e-08 0 0);
    }
    Table_master
    {
        type            calculated;
        value           nonuniform List<scalar> 9(-1.53266e-07 -1.53412e-07 -1.5346e-07 -1.53489e-07 -1.53508e-07 -1.5352e-07 -1.53525e-07 -1.53517e-07 -1.53477e-07);
    }
    Table_slave
    {
        type            calculated;
        value           nonuniform List<scalar> 9(1.53039e-07 1.53074e-07 1.53058e-07 1.53048e-07 1.53045e-07 1.53057e-07 1.53089e-07 1.53146e-07 1.53241e-07);
    }
    inlet
    {
        type            calculated;
        value           uniform -0.00627051;
    }
    outlet
    {
        type            calculated;
        value           nonuniform List<scalar> 2(0.00768113 0.00295968);
    }
}


// ************************************************************************* //
