// -*- C++ -*-
// File generated by PyFoam - sorry for the ugliness

FoamFile
{
 version 2.0;
 format ascii;
 class volScalarField;
 location "200";
 object T;
}

dimensions [ 0 0 0 1 0 0 0 ];

internalField nonuniform List<scalar> 459
(
  302.89
  302.629
  302.62
  302.62
  302.62
  302.619
  302.616
  302.61
  302.603
  302.598
  302.598
  302.603
  302.607
  302.608
  302.616
  302.836
  302.81
  302.8
  302.811
  302.827
  302.841
  302.852
  302.861
  302.87
  302.879
  302.889
  302.898
  302.908
  302.918
  302.929
  302.941
  302.954
  302.972
  303.009
  303.06
  302.666
  302.645
  302.65
  302.654
  302.656
  302.65
  302.634
  302.615
  302.6
  302.597
  302.604
  302.61
  302.611
  302.61
  302.604
  302.592
  302.841
  302.778
  302.776
  302.793
  302.817
  302.838
  302.847
  302.853
  302.86
  302.866
  302.873
  302.88
  302.888
  302.896
  302.905
  302.917
  302.932
  302.954
  303
  303.24
  302.714
  302.679
  302.693
  302.708
  302.716
  302.706
  302.673
  302.633
  302.605
  302.598
  302.609
  302.622
  302.626
  302.623
  302.616
  302.605
  302.788
  302.758
  302.765
  302.797
  302.835
  302.867
  302.868
  302.87
  302.873
  302.877
  302.882
  302.888
  302.895
  302.903
  302.911
  302.924
  302.937
  302.957
  303.002
  303.426
  302.777
  302.719
  302.744
  302.778
  302.801
  302.782
  302.719
  302.651
  302.606
  302.597
  302.614
  302.636
  302.649
  302.649
  302.642
  302.629
  302.638
  302.662
  302.707
  302.766
  302.83
  302.889
  302.937
  302.976
  303.007
  303.034
  303.058
  303.08
  303.1
  303.119
  303.136
  303.149
  303.071
  303.012
  302.987
  303.012
  303.609
  302.857
  302.768
  302.797
  302.854
  302.896
  302.857
  302.754
  302.66
  302.604
  302.594
  302.618
  302.655
  302.683
  302.694
  302.692
  302.689
  302.707
  302.744
  302.799
  302.866
  302.935
  302.998
  303.051
  303.099
  303.136
  303.166
  303.191
  303.209
  303.221
  303.227
  303.226
  303.216
  303.16
  303.081
  303.026
  303.025
  303.229
  303.301
  303.292
  303.778
  302.963
  302.847
  302.867
  302.955
  302.977
  302.894
  302.766
  302.653
  302.59
  302.586
  302.627
  302.685
  302.735
  302.763
  302.776
  302.788
  302.82
  302.87
  302.934
  303.004
  303.071
  303.132
  303.182
  303.224
  303.257
  303.283
  303.301
  303.313
  303.316
  303.313
  303.301
  303.278
  303.228
  303.152
  303.081
  303.053
  303.139
  303.181
  303.232
  303.94
  303.134
  303.02
  303.035
  303.097
  303.037
  302.888
  302.723
  302.601
  302.552
  302.575
  302.648
  302.74
  302.818
  302.87
  302.902
  302.93
  302.974
  303.032
  303.096
  303.161
  303.221
  303.272
  303.313
  303.345
  303.369
  303.387
  303.398
  303.401
  303.396
  303.384
  303.365
  303.337
  303.29
  303.225
  303.156
  303.115
  303.136
  303.16
  303.2
  304.168
  303.569
  303.442
  303.409
  303.264
  303.021
  302.766
  302.573
  302.483
  302.494
  302.578
  302.706
  302.847
  302.954
  303.028
  303.064
  303.099
  303.149
  303.209
  303.267
  303.32
  303.365
  303.401
  303.428
  303.448
  303.461
  303.468
  303.47
  303.465
  303.455
  303.438
  303.417
  303.389
  303.347
  303.298
  303.247
  303.22
  303.24
  303.263
  303.377
  304.498
  304.21
  303.978
  303.618
  303.042
  302.572
  302.303
  302.227
  302.305
  302.474
  302.663
  302.863
  303.057
  303.152
  303.199
  303.235
  303.275
  303.323
  303.375
  303.421
  303.459
  303.488
  303.508
  303.52
  303.526
  303.526
  303.52
  303.51
  303.497
  303.481
  303.466
  303.452
  303.44
  303.434
  303.436
  303.451
  303.481
  303.513
  303.533
  303.591
  295.736
  296.721
  298.542
  300.006
  301.056
  301.816
  302.393
  302.83
  303.047
  303.18
  303.266
  303.322
  303.362
  303.398
  303.436
  303.475
  303.513
  303.543
  303.566
  303.579
  303.585
  303.585
  303.58
  303.571
  303.559
  303.545
  303.532
  303.519
  303.507
  303.497
  303.49
  303.489
  303.495
  303.511
  303.538
  303.573
  303.619
  303.684
  296.646
  298.649
  300.654
  301.709
  302.351
  302.763
  303.031
  303.206
  303.317
  303.39
  303.44
  303.478
  303.511
  303.541
  303.57
  303.597
  303.619
  303.634
  303.642
  303.644
  303.641
  303.633
  303.623
  303.611
  303.599
  303.585
  303.572
  303.56
  303.548
  303.538
  303.53
  303.526
  303.528
  303.537
  303.554
  303.586
  303.612
  303.664
  300.137
  300.059
  300.05
  301.984
  302.759
  303.068
  303.237
  303.356
  303.442
  303.505
  303.551
  303.586
  303.613
  303.636
  303.655
  303.671
  303.684
  303.693
  303.699
  303.7
  303.698
  303.693
  303.685
  303.676
  303.665
  303.654
  303.642
  303.63
  303.618
  303.605
  303.593
  303.581
  303.571
  303.563
  303.557
  303.56
  303.569
  303.584
  303.6
  303.657
)
;

boundaryField
{
  floor
  {
    type wallHeatTransfer;
    Tinf uniform 305.2;
    alphaWall uniform 0.24;
    value nonuniform List<scalar> 29
(
  302.921
  303.246
  303.18
  303.134
  303.127
  303.14
  303.159
  303.183
  303.208
  303.234
  303.259
  303.283
  303.306
  303.329
  303.351
  303.373
  303.396
  303.421
  303.45
  303.508
  303.508
  303.451
  303.423
  303.412
  302.921
  303.246
  303.254
  303.115
  302.869
)
;
  }
  ceiling
  {
    type wallHeatTransfer;
    Tinf uniform 303.2;
    alphaWall uniform 0.24;
    value nonuniform List<scalar> 43
(
  300.349
  300.267
  300.251
  302.058
  302.787
  303.077
  303.235
  303.344
  303.422
  303.478
  303.518
  303.548
  303.571
  303.589
  303.605
  303.618
  303.628
  303.634
  303.637
  303.636
  303.632
  303.626
  303.618
  303.609
  303.599
  303.589
  303.579
  303.569
  303.559
  303.55
  303.541
  303.533
  303.526
  303.521
  303.519
  303.523
  303.533
  303.544
  303.557
  303.605
  304.439
  304.17
  297.059
)
;
  }
  sWall
  {
    type wallHeatTransfer;
    Tinf uniform 315.2;
    alphaWall uniform 0.36;
    value uniform 301.653;
  }
  nWall
  {
    type wallHeatTransfer;
    Tinf uniform 307.2;
    alphaWall uniform 0.36;
    value nonuniform List<scalar> 6
(
  304.016
  303.943
  303.84
  304.185
  304.161
  304.231
)
;
  }
  sideWalls
  {
    type empty;
  }
  glass1
  {
    type wallHeatTransfer;
    Tinf uniform 315.2;
    alphaWall uniform 4.3;
    value nonuniform List<scalar> 9
(
  311.057
  310.429
  310.039
  309.746
  309.503
  309.284
  309.134
  309.221
  309.466
)
;
  }
  glass2
  {
    type wallHeatTransfer;
    Tinf uniform 307.2;
    alphaWall uniform 4.3;
    value nonuniform List<scalar> 2
(
  305.731
  305.869
)
;
  }
  sun
  {
    type wallHeatTransfer;
    Tinf uniform 305.2;
    alphaWall uniform 0.24;
    value nonuniform List<scalar> 14
(
  303.114
  302.861
  302.848
  302.839
  302.83
  302.822
  302.813
  302.803
  302.796
  302.793
  302.799
  302.819
  302.844
  302.877
)
;
  }
  heatsource1
  {
    type fixedGradient;
    gradient uniform 0;
  }
  heatsource2
  {
    type fixedGradient;
    gradient uniform 0;
  }
  Table_master
  {
    type zeroGradient;
  }
  Table_slave
  {
    type zeroGradient;
  }
  inlet
  {
    type fixedValue;
    value uniform 293.15;
  }
  outlet
  {
    type zeroGradient;
  }
} 	// ************************************************************************* //

