/*--------------------------------*- C++ -*----------------------------------*\
  =========                 |
  \\      /  F ield         | OpenFOAM: The Open Source CFD Toolbox
   \\    /   O peration     | Website:  https://openfoam.org
    \\  /    A nd           | Version:  6
     \\/     M anipulation  |
\*---------------------------------------------------------------------------*/
FoamFile
{
    version     2.0;
    format      ascii;
    class       volScalarField;
    location    "220";
    object      alphat;
}
// * * * * * * * * * * * * * * * * * * * * * * * * * * * * * * * * * * * * * //

dimensions      [1 -1 -1 0 0 0 0];

internalField   nonuniform List<scalar> 
459
(
0.00103841
0.00122008
0.00134107
0.00146444
0.0015137
0.00149067
0.00143937
0.00137874
0.00131768
0.00125744
0.00120254
0.00114808
0.0010893
0.00101915
0.000935043
0.000599053
0.000767703
0.000859077
0.000885207
0.000869349
0.000839296
0.000791928
0.000743253
0.000699272
0.000660564
0.000626546
0.000596477
0.000569492
0.000545134
0.000522173
0.000499077
0.000473628
0.000436009
0.000394559
0.00127758
0.00421674
0.00481206
0.0048478
0.00454861
0.00474901
0.00469906
0.00446864
0.00421002
0.00396112
0.00358287
0.00311935
0.00259303
0.00201871
0.00144918
0.000928278
0.000818864
0.000806271
0.00275734
0.00263318
0.00292151
0.00316685
0.00309774
0.00227616
0.00190816
0.00166675
0.00149139
0.00135802
0.00125404
0.00117317
0.00108893
0.00099001
0.000892505
0.000830397
0.000688202
0.000444364
0.00149178
0.00589255
0.00594839
0.00510678
0.00435783
0.00487951
0.00512652
0.00503139
0.00487337
0.00473548
0.00447741
0.00405352
0.00347083
0.00278234
0.00207999
0.00145131
0.000836595
0.000838428
0.0026918
0.00279542
0.00336795
0.00386362
0.00369084
0.00103455
0.000913791
0.000813519
0.000731223
0.000663551
0.000607579
0.000561159
0.000524752
0.000499565
0.000568436
0.000710263
0.000778536
0.000483914
0.00169845
0.00703349
0.00649078
0.00473221
0.00390859
0.00474708
0.00522834
0.00516479
0.00501182
0.00494132
0.00479122
0.00445889
0.00394231
0.0032973
0.00260176
0.00192815
0.00123654
0.000844813
0.00134274
0.00208434
0.00317323
0.0041969
0.00484743
0.00455956
0.00113252
0.00103281
0.000953789
0.00088517
0.000820995
0.00075789
0.000693676
0.000626412
0.000551102
0.000536329
0.00065472
0.000930444
0.000544625
0.00188459
0.00784981
0.00676079
0.00418192
0.00363852
0.00478274
0.00547357
0.00539587
0.00520025
0.00516861
0.00504593
0.00475532
0.00432052
0.00378725
0.00321241
0.00267173
0.00223294
0.0023385
0.00310866
0.00419478
0.00523832
0.006006
0.0064046
0.00632407
0.0052786
0.00464457
0.00404923
0.00348938
0.00294938
0.00242143
0.00190641
0.00141373
0.000934389
0.000665333
0.000684581
0.000994653
0.000791404
0.000612467
0.000574052
0.000511728
0.00202826
0.00823122
0.00656034
0.00356438
0.0034983
0.00491097
0.00579437
0.00572939
0.00562851
0.00564851
0.00547551
0.00522206
0.00490418
0.00455478
0.00422178
0.00401925
0.004075
0.00478448
0.00581886
0.00672236
0.00735225
0.00766193
0.00767212
0.00740062
0.00680274
0.00605347
0.00522555
0.00439125
0.00357427
0.00277146
0.00202109
0.00143005
0.00100238
0.000831325
0.000857583
0.00105571
0.00101543
0.000880796
0.000814988
0.000524683
0.002078
0.00777773
0.00512637
0.0030491
0.00341892
0.00507732
0.00610662
0.00607656
0.00602641
0.006038
0.00592482
0.00581057
0.00571102
0.00563496
0.00563665
0.00583652
0.00633456
0.00719289
0.00795559
0.00841554
0.00857244
0.00844909
0.00810308
0.00756048
0.00681576
0.00596448
0.00506731
0.00416981
0.00331338
0.00254311
0.00192077
0.00149748
0.00125816
0.0011702
0.00115265
0.00114007
0.00109931
0.000963791
0.00097518
0.000531319
0.00201651
0.00546293
0.00339609
0.00249269
0.00338377
0.00530522
0.00640317
0.00636803
0.00627779
0.00615662
0.00611187
0.00616874
0.00629517
0.00648972
0.00678268
0.00722001
0.00781345
0.00841892
0.00878339
0.00882019
0.00856343
0.00805172
0.00737183
0.00661618
0.00583851
0.00505711
0.00428406
0.00355046
0.0029016
0.00237967
0.00200697
0.00176785
0.00160649
0.00146276
0.0013018
0.00113547
0.00105562
0.000983253
0.00100996
0.000549265
0.00191323
0.001964
0.00156628
0.00193187
0.00352946
0.00574973
0.00683603
0.00674882
0.00643303
0.00625898
0.00628921
0.00643248
0.00664239
0.00691106
0.00724051
0.00761644
0.00797813
0.0081863
0.00812157
0.00776744
0.00718075
0.00647718
0.005759
0.0050964
0.004518
0.00401864
0.00359067
0.00324201
0.00298507
0.00281793
0.00271158
0.00260533
0.00241745
0.00208694
0.00165046
0.00126049
0.00103038
0.000934301
0.000924372
0.000878242
0.000501175
0.00233426
0.00470673
0.00679144
0.00710941
0.00688537
0.00674598
0.00678569
0.00690285
0.00703613
0.00716853
0.00729671
0.0074129
0.00749324
0.00749345
0.00736102
0.00708317
0.00669877
0.00627077
0.00585582
0.00548794
0.00518048
0.00493397
0.00474565
0.00461566
0.00454612
0.00453428
0.00456419
0.00459937
0.00457858
0.00442051
0.00404668
0.003429
0.00265114
0.00193353
0.00150109
0.00146341
0.00121271
0.00258621
0.00793575
0.00825091
0.00761705
0.00710166
0.0069433
0.0070357
0.00720511
0.00735521
0.00745871
0.00751757
0.0075407
0.00753498
0.00750197
0.00743746
0.00733566
0.00719689
0.00703151
0.00685532
0.00668282
0.00652328
0.00638311
0.00626853
0.00618708
0.00614676
0.00615371
0.00620876
0.00630308
0.00641279
0.00649295
0.00647365
0.00626388
0.00577421
0.00497376
0.0039779
0.00308182
0.00301463
0.00152811
0.00170969
0.00182337
0.00198065
0.00205271
0.00197989
0.00189172
0.00183523
0.00181281
0.00180688
0.00180624
0.00180701
0.00180837
0.00181037
0.00181297
0.00181563
0.00181716
0.00181597
0.00181085
0.00180191
0.00179046
0.00177824
0.00176669
0.00175686
0.0017495
0.00174519
0.00174441
0.00174752
0.00175449
0.00176469
0.00177651
0.00178696
0.00179152
0.00178437
0.0017594
0.00171188
0.00163955
0.00154315
0.00144369
0.00144419
0.00141669
)
;

boundaryField
{
    floor
    {
        type            compressible::alphatWallFunction;
        Prt             0.85;
        value           nonuniform List<scalar> 
29
(
0.000133352
8.44831e-05
0.000109351
0.00012254
0.00012628
0.000124012
0.000119701
0.000112867
0.000105792
9.93518e-05
9.36428e-05
8.85918e-05
8.40991e-05
8.00433e-05
7.63617e-05
7.28726e-05
6.93431e-05
6.54304e-05
5.95964e-05
5.30937e-05
5.3093e-05
6.09009e-05
6.7021e-05
7.62942e-05
0.00013335
8.44821e-05
0.000114943
0.000119568
0.000120471
)
;
    }
    ceiling
    {
        type            compressible::alphatWallFunction;
        Prt             0.85;
        value           nonuniform List<scalar> 
43
(
0.0002393
0.000254312
0.000274918
0.000284304
0.00027483
0.000263308
0.000255896
0.00025295
0.000252171
0.000252089
0.000252191
0.000252371
0.000252634
0.000252977
0.000253328
0.00025353
0.000253373
0.0002527
0.000251522
0.000250012
0.000248399
0.000246874
0.000245575
0.000244601
0.00024403
0.000243928
0.000244338
0.000245259
0.000246607
0.000248168
0.000249547
0.000250149
0.000249207
0.000245911
0.000239624
0.000230016
0.000217136
0.00020375
0.000203801
0.000200088
0.000266028
0.000272655
0.000352703
)
;
    }
    sWall
    {
        type            compressible::alphatWallFunction;
        Prt             0.85;
        value           uniform 0.000239084;
    }
    nWall
    {
        type            compressible::alphatWallFunction;
        Prt             0.85;
        value           nonuniform List<scalar> 6(7.11095e-05 7.30826e-05 7.40858e-05 0.000171986 0.000214861 0.000199883);
    }
    sideWalls
    {
        type            empty;
    }
    glass1
    {
        type            compressible::alphatWallFunction;
        Prt             0.85;
        value           nonuniform List<scalar> 9(0.000147235 0.000180283 0.000209292 0.000236845 0.000261348 0.000280081 0.00028654 0.000278572 0.000265131);
    }
    glass2
    {
        type            compressible::alphatWallFunction;
        Prt             0.85;
        value           nonuniform List<scalar> 2(7.67501e-05 0.00012499);
    }
    sun
    {
        type            compressible::alphatWallFunction;
        Prt             0.85;
        value           nonuniform List<scalar> 
14
(
0.000147925
0.000173163
0.000189734
0.000206452
0.000213079
0.00020998
0.000203064
0.000194854
0.000186544
0.000178303
0.000170754
0.000163226
0.000155053
0.000145232
)
;
    }
    heatsource1
    {
        type            compressible::alphatWallFunction;
        Prt             0.85;
        value           nonuniform List<scalar> 3(8.63544e-05 8.05931e-05 7.11409e-05);
    }
    heatsource2
    {
        type            compressible::alphatWallFunction;
        Prt             0.85;
        value           nonuniform List<scalar> 4(0.000132276 0.000116617 0.000116616 0.000119169);
    }
    Table_master
    {
        type            compressible::alphatWallFunction;
        Prt             0.85;
        value           nonuniform List<scalar> 9(0.000147275 0.000130213 0.000115844 0.000103892 9.39429e-05 8.56201e-05 7.8646e-05 7.31262e-05 6.92795e-05);
    }
    Table_slave
    {
        type            compressible::alphatWallFunction;
        Prt             0.85;
        value           nonuniform List<scalar> 9(0.00016095 0.000147034 0.000135895 0.000126134 0.000116924 0.000107784 9.83878e-05 8.84315e-05 7.71263e-05);
    }
    inlet
    {
        type            fixedValue;
        value           uniform 1.94e-05;
    }
    outlet
    {
        type            zeroGradient;
    }
}


// ************************************************************************* //
