/*--------------------------------*- C++ -*----------------------------------*\
  =========                 |
  \\      /  F ield         | OpenFOAM: The Open Source CFD Toolbox
   \\    /   O peration     | Website:  https://openfoam.org
    \\  /    A nd           | Version:  6
     \\/     M anipulation  |
\*---------------------------------------------------------------------------*/
FoamFile
{
    version     2.0;
    format      ascii;
    class       volScalarField;
    location    "100";
    object      epsilon;
}
// * * * * * * * * * * * * * * * * * * * * * * * * * * * * * * * * * * * * * //

dimensions      [0 2 -3 0 0 0 0];

internalField   nonuniform List<scalar> 
459
(
0.000491505
0.000656559
0.000719473
0.000837919
0.000961077
0.00109311
0.00124454
0.00137141
0.0014484
0.0014526
0.00137371
0.00121367
0.000975494
0.000596553
0.000309283
5.31741e-05
9.6109e-05
0.000157918
0.000195409
0.000198141
0.000187693
0.000159704
0.000131352
0.00010833
9.03693e-05
7.63296e-05
6.52286e-05
5.62635e-05
4.87857e-05
4.24083e-05
3.65997e-05
3.07788e-05
2.42165e-05
1.59049e-05
0.00112735
0.00152106
0.000614849
0.000612153
0.000653792
0.000726373
0.000836143
0.000950873
0.00103373
0.0010558
0.00100829
0.000901934
0.000755027
0.000577961
0.000443053
0.000680632
0.000271106
5.23226e-05
0.000148224
0.00017557
0.000178738
0.000169676
0.000158426
0.00016196
0.000133428
0.000106087
8.41708e-05
6.71372e-05
5.39879e-05
4.37355e-05
3.55361e-05
2.90913e-05
2.502e-05
2.35331e-05
2.36367e-05
1.8427e-05
0.00194447
0.00341094
0.000703555
0.000574292
0.000625
0.000735717
0.000893546
0.00104728
0.00114607
0.00117092
0.00112208
0.00101606
0.000868213
0.000723718
0.000603597
0.000564787
0.000750109
0.000281203
0.00027433
0.00025516
0.000228565
0.000200788
0.000188598
0.000413831
0.000281898
0.000196337
0.000140137
0.000102046
7.53271e-05
5.61024e-05
4.23264e-05
3.37467e-05
2.46013e-05
2.08553e-05
2.21761e-05
1.90677e-05
0.00302358
0.00685598
0.00102919
0.000577582
0.000626258
0.00079383
0.00103596
0.0012233
0.00131412
0.00132306
0.00125713
0.00113184
0.000977919
0.000825047
0.000700301
0.00063029
0.000633616
0.00117255
0.000714712
0.000485511
0.000363771
0.000290482
0.000240978
0.000220356
0.00054776
0.000393604
0.000298919
0.000234876
0.000188906
0.000153162
0.000123372
9.71575e-05
7.27608e-05
4.05714e-05
2.49128e-05
2.24443e-05
1.97918e-05
0.00448694
0.0121694
0.00194763
0.000690873
0.0006983
0.00100888
0.00136229
0.00153375
0.00157751
0.00154498
0.00144534
0.00128531
0.00108573
0.00088125
0.000706567
0.000584024
0.000525723
0.000510665
0.00045589
0.000400738
0.000350988
0.00030364
0.00025773
0.000217061
0.000202612
0.000179415
0.000158992
0.000140309
0.000122836
0.000105715
8.85599e-05
7.13818e-05
5.41291e-05
3.64479e-05
2.41159e-05
2.1043e-05
1.73075e-05
2.69817e-05
5.66346e-05
7.89467e-05
0.00652222
0.0182406
0.00436776
0.00132964
0.0011669
0.00176707
0.00200809
0.00203433
0.00197926
0.0018788
0.00172089
0.00149661
0.0012251
0.000950031
0.000717975
0.000556264
0.000470686
0.000439676
0.000422535
0.000397992
0.000361003
0.000314672
0.000264015
0.000215152
0.000178181
0.000154135
0.000137261
0.000121865
0.000106235
9.02134e-05
7.40572e-05
5.82845e-05
4.35364e-05
3.12751e-05
2.30097e-05
2.02333e-05
1.75586e-05
2.16932e-05
9.7199e-05
8.26979e-05
0.00884356
0.0219846
0.00907955
0.00425566
0.0035848
0.00338969
0.00308021
0.00278951
0.00255612
0.00234417
0.00209366
0.00177355
0.00140376
0.00104147
0.000750246
0.000560979
0.000469793
0.000440984
0.000426613
0.000400185
0.000357897
0.000305925
0.00025159
0.000201989
0.000164872
0.000141965
0.000126495
0.000112396
9.8071e-05
8.36205e-05
6.93574e-05
5.54915e-05
4.283e-05
3.3207e-05
2.78955e-05
2.71011e-05
2.95927e-05
4.26412e-05
0.000106681
0.000106178
0.00937225
0.0236454
0.0135131
0.00940603
0.00709244
0.00542119
0.00433689
0.00367948
0.00327064
0.0029415
0.00256471
0.0021001
0.00158742
0.00110916
0.000759662
0.000558723
0.000472347
0.000442492
0.000418915
0.000380932
0.000331464
0.000278505
0.000229168
0.000188776
0.000160097
0.000141186
0.000126939
0.000114018
0.000101697
9.03709e-05
8.04632e-05
7.22043e-05
6.58716e-05
6.28221e-05
6.60074e-05
8.85533e-05
0.000157219
0.000336528
0.00140042
0.000407712
0.0086988
0.0144761
0.0113459
0.00870011
0.00675866
0.00552159
0.00479945
0.00438722
0.00406822
0.00365532
0.00305362
0.00232904
0.00160776
0.000999437
0.000675569
0.000530536
0.000467294
0.000433974
0.000402296
0.000363455
0.000320341
0.000278532
0.000242256
0.000213496
0.000191568
0.000173578
0.000156705
0.000140131
0.000124676
0.000112189
0.000104905
0.000105353
0.000116931
0.000145421
0.000201113
0.000299397
0.000448013
0.000617962
0.000739677
0.000456061
0.00261167
0.00366555
0.00482206
0.0053544
0.00548239
0.0052713
0.00466557
0.00371519
0.00249644
0.001602
0.00106259
0.000761447
0.000617591
0.000550466
0.000516399
0.000492112
0.000468024
0.000443371
0.000420692
0.000401794
0.000386442
0.000372293
0.000356129
0.000335132
0.000307857
0.000274965
0.000239206
0.000204898
0.000177142
0.000160868
0.000160293
0.000179352
0.000222643
0.000294238
0.000389933
0.00048368
0.000530002
0.000513213
0.00164579
0.0054702
0.00670665
0.00629763
0.00560716
0.00465958
0.00355988
0.00256237
0.00179287
0.0013084
0.00103756
0.000904794
0.000853786
0.000842376
0.000848749
0.00086135
0.000874296
0.000885645
0.000895601
0.000904302
0.000910416
0.000911063
0.000902051
0.000878583
0.000836541
0.000774443
0.000694891
0.000604693
0.000513606
0.000432051
0.000368858
0.000329958
0.00031778
0.000330225
0.00035994
0.00042008
0.000829948
0.000658089
0.00143551
0.00172859
0.00196317
0.00273153
0.00270111
0.00270869
0.00260992
0.00238299
0.00205258
0.0016923
0.00137607
0.00113839
0.000980049
0.000881625
0.000820971
0.000781366
0.000751882
0.000726832
0.000704397
0.000684628
0.00066755
0.000652267
0.000637027
0.000619664
0.000598201
0.000571441
0.000539422
0.000503506
0.000466097
0.000430065
0.000398111
0.000372366
0.000354365
0.00034519
0.000345267
0.000353131
0.000363522
0.000361668
0.000358907
0.000350397
)
;

boundaryField
{
    floor
    {
        Cmu             0.09;
        kappa           0.41;
        E               9.8;
        type            epsilonWallFunction;
        value           nonuniform List<scalar> 
29
(
0.000309283
5.31741e-05
9.6109e-05
0.000157918
0.000195409
0.000198141
0.000187693
0.000159704
0.000131352
0.00010833
9.03693e-05
7.63296e-05
6.52286e-05
5.62635e-05
4.87857e-05
4.24083e-05
3.65997e-05
3.07788e-05
2.42165e-05
1.59049e-05
1.59049e-05
1.8427e-05
1.90677e-05
1.97918e-05
0.000309283
5.31741e-05
5.23226e-05
0.000281203
0.00117255
)
;
    }
    ceiling
    {
        Cmu             0.09;
        kappa           0.41;
        E               9.8;
        type            epsilonWallFunction;
        value           nonuniform List<scalar> 
43
(
0.00143551
0.00172859
0.00196317
0.00273153
0.00270111
0.00270869
0.00260992
0.00238299
0.00205258
0.0016923
0.00137607
0.00113839
0.000980049
0.000881625
0.000820971
0.000781366
0.000751882
0.000726832
0.000704397
0.000684628
0.00066755
0.000652267
0.000637027
0.000619664
0.000598201
0.000571441
0.000539422
0.000503506
0.000466097
0.000430065
0.000398111
0.000372366
0.000354365
0.00034519
0.000345267
0.000353131
0.000363522
0.000361668
0.000358907
0.000350397
0.0086988
0.0144761
0.00164579
)
;
    }
    sWall
    {
        Cmu             0.09;
        kappa           0.41;
        E               9.8;
        type            epsilonWallFunction;
        value           uniform 0.00143551;
    }
    nWall
    {
        Cmu             0.09;
        kappa           0.41;
        E               9.8;
        type            epsilonWallFunction;
        value           nonuniform List<scalar> 6(7.89467e-05 8.26979e-05 0.000106178 0.000513213 0.000658089 0.000350397);
    }
    sideWalls
    {
        type            empty;
    }
    glass1
    {
        Cmu             0.09;
        kappa           0.41;
        E               9.8;
        type            epsilonWallFunction;
        value           nonuniform List<scalar> 9(0.000491505 0.00112735 0.00194447 0.00302358 0.00448694 0.00652222 0.00884356 0.00937225 0.0086988);
    }
    glass2
    {
        Cmu             0.09;
        kappa           0.41;
        E               9.8;
        type            epsilonWallFunction;
        value           nonuniform List<scalar> 2(0.000407712 0.000456061);
    }
    sun
    {
        Cmu             0.09;
        kappa           0.41;
        E               9.8;
        type            epsilonWallFunction;
        value           nonuniform List<scalar> 
14
(
0.000491505
0.000656559
0.000719473
0.000837919
0.000961077
0.00109311
0.00124454
0.00137141
0.0014484
0.0014526
0.00137371
0.00121367
0.000975494
0.000596553
)
;
    }
    heatsource1
    {
        Cmu             0.09;
        kappa           0.41;
        E               9.8;
        type            epsilonWallFunction;
        value           nonuniform List<scalar> 3(2.69817e-05 5.66346e-05 7.89467e-05);
    }
    heatsource2
    {
        Cmu             0.09;
        kappa           0.41;
        E               9.8;
        type            epsilonWallFunction;
        value           nonuniform List<scalar> 4(0.000680632 0.000271106 0.000271106 0.000750109);
    }
    Table_master
    {
        Cmu             0.09;
        kappa           0.41;
        E               9.8;
        type            epsilonWallFunction;
        value           nonuniform List<scalar> 9(0.000413831 0.000281898 0.000196337 0.000140137 0.000102046 7.53271e-05 5.61024e-05 4.23264e-05 3.37467e-05);
    }
    Table_slave
    {
        Cmu             0.09;
        kappa           0.41;
        E               9.8;
        type            epsilonWallFunction;
        value           nonuniform List<scalar> 9(0.00054776 0.000393604 0.000298919 0.000234876 0.000188906 0.000153162 0.000123372 9.71575e-05 7.27608e-05);
    }
    inlet
    {
        type            turbulentMixingLengthDissipationRateInlet;
        mixingLength    0.01;
        phi             phi;
        k               k;
        value           uniform 0.000101881;
    }
    outlet
    {
        type            zeroGradient;
    }
}


// ************************************************************************* //
