/*--------------------------------*- C++ -*----------------------------------*\
  =========                 |
  \\      /  F ield         | OpenFOAM: The Open Source CFD Toolbox
   \\    /   O peration     | Website:  https://openfoam.org
    \\  /    A nd           | Version:  6
     \\/     M anipulation  |
\*---------------------------------------------------------------------------*/
FoamFile
{
    version     2.0;
    format      ascii;
    class       surfaceScalarField;
    location    "500";
    object      phi;
}
// * * * * * * * * * * * * * * * * * * * * * * * * * * * * * * * * * * * * * //

dimensions      [1 0 -1 0 0 0 0];

internalField   nonuniform List<scalar> 
852
(
-0.0028928
0.00295
-0.00385039
0.000957603
-0.00461163
0.000761254
-0.00523521
0.000623592
-0.00569283
0.000457624
-0.00596498
0.000272167
-0.00602933
6.43613e-05
-0.00586093
-0.000168392
-0.00544574
-0.000415184
-0.00480277
-0.000642955
-0.00398633
-0.000816431
-0.00307167
-0.000914657
-0.00212652
-0.000945139
-0.00115098
-0.000975529
-0.0011495
-0.000587117
0.000590035
-0.00016839
-0.000418714
0.000443184
-0.000611562
0.000866784
-0.000423587
0.00112515
-0.000258351
0.00127276
-0.000147596
0.0013467
-7.39295e-05
0.00138213
-3.54151e-05
0.00140045
-1.83078e-05
0.00140949
-9.03017e-06
0.00141207
-2.56325e-06
0.00140893
3.15706e-06
0.00139779
1.11464e-05
0.00137025
2.75579e-05
0.00130446
6.58039e-05
0.00116447
0.000140008
0.000939865
0.000224615
0.000682471
0.000257409
0.000686427
-0.00206313
0.00516684
-0.00302036
0.00191484
-0.00381133
0.00155223
-0.00442405
0.00123632
-0.00487012
0.000903706
-0.00514255
0.000544607
-0.00521865
0.000140477
-0.00507138
-0.000315655
-0.00469234
-0.000794219
-0.00411198
-0.00122331
-0.00339442
-0.00153397
-0.00261761
-0.00169146
-0.00186194
-0.0017008
-0.00124171
-0.00159574
-0.00105566
-0.00133554
-0.000298136
-0.000757569
-0.000298176
0.000583343
1.48026e-05
0.000956277
-0.000791636
0.00114548
-0.000800755
0.00131855
-0.000596647
0.00144102
-0.000380806
0.00150236
-0.000208924
0.00150679
-7.83459e-05
0.00150795
-3.65556e-05
0.00150987
-2.02198e-05
0.00151154
-1.06887e-05
0.00151254
-3.55057e-06
0.0015126
3.11353e-06
0.00151076
1.30046e-05
0.00150342
3.49052e-05
0.00146204
0.000107198
0.00128829
0.00031378
0.000988945
0.00052397
0.000616769
0.000629599
0.00131315
-0.00145044
0.00685181
-0.00229138
0.00275579
-0.00299378
0.00225464
-0.00351478
0.00175734
-0.00390199
0.00129092
-0.00414938
0.000792006
-0.00422299
0.000214097
-0.00407779
-0.000460838
-0.00370705
-0.00116495
-0.00316
-0.00177035
-0.00251168
-0.00218228
-0.00183708
-0.00236606
-0.00120701
-0.00233086
-0.000692183
-0.00211056
-0.000333906
-0.0016938
1.22041e-05
-0.00110367
-0.000285961
0.00138212
-0.00135899
0.00159601
-0.00100551
0.00158706
-0.000791798
0.00159718
-0.000606748
0.00162129
-0.000404903
0.00160927
-0.000196892
0.00153109
0.0014947
0.00147464
0.00146412
0.00146074
0.00146402
0.00147719
0.00151226
0.00161963
0.00133914
0.000594281
0.000994789
0.000868335
0.000553032
0.00107137
0.00188122
-0.0010231
0.00817775
-0.00170858
0.00344128
-0.00217261
0.00271867
-0.0025163
0.00210104
-0.00278179
0.00155642
-0.00295821
0.000968437
-0.00299339
0.000249287
-0.00281511
-0.00063911
-0.0024345
-0.00154554
-0.00193052
-0.00227432
-0.00138278
-0.00273001
-0.000850887
-0.00289794
-0.000377162
-0.00280458
2.23936e-05
-0.0025101
0.000372447
-0.00204385
0.000754567
-0.00148578
0.00141265
-0.000944031
0.00214767
-0.000727112
0.00170409
-0.000915402
0.00161815
-0.00091956
0.00156459
-0.000738224
0.00152369
-0.000565832
0.00152287
-0.000404076
0.00157075
-0.000244754
0.00168836
-0.000117753
0.00178321
-9.49924e-05
0.00186883
-8.57568e-05
0.00194033
-7.16459e-05
0.00198121
-4.10154e-05
0.00196743
1.36424e-05
0.00187311
9.41736e-05
0.0016669
0.000206073
0.00129632
0.000370444
0.00115692
0.000733691
0.000853604
0.00117167
0.000381435
0.00154356
0.00228232
-0.000724895
0.00926315
-0.0012649
0.00398129
-0.00136748
0.00282127
-0.00145577
0.00218935
-0.00153669
0.00163734
-0.00158521
0.00101697
-0.0015103
0.00017439
-0.00124236
-0.000907046
-0.000854781
-0.00193311
-0.00043858
-0.00269052
-5.1887e-05
-0.0031167
0.000272975
-0.0032228
0.000527022
-0.00305862
0.00072144
-0.00270451
0.000899749
-0.00222215
0.00110455
-0.00169057
0.001371
-0.00121047
0.00156343
-0.000919527
0.00148752
-0.00083948
0.00134259
-0.000774623
0.00124095
-0.000636567
0.00117242
-0.000497297
0.00114494
-0.000376582
0.00116989
-0.000269692
0.00125083
-0.000198673
0.00133313
-0.000177281
0.00141821
-0.000170823
0.00149999
-0.000153413
0.0015657
-0.000106709
0.00159427
-1.49138e-05
0.00156431
0.000124148
0.00146538
0.000305017
0.00130035
0.000535481
0.00115168
0.000882376
0.000987628
0.00133573
0.000629751
0.00190145
0.000495524
0.00241656
-0.00101977
0.0015151
-0.00147724
0.000457289
-0.00142897
-0.000638634
0.0103108
-0.00102965
0.00437232
-0.000635421
0.00242705
-0.00035339
0.00190733
-0.000183261
0.00146722
-2.31735e-05
0.000856897
0.000261404
-0.000110176
0.000644312
-0.00128994
0.000987234
-0.00227602
0.00123756
-0.00294083
0.00138234
-0.00326147
0.00143292
-0.00327337
0.0014164
-0.00304209
0.00135731
-0.00264541
0.00129114
-0.00215597
0.0012473
-0.00164672
0.00123015
-0.00119331
0.00118612
-0.000875483
0.00105665
-0.000710008
0.000886908
-0.000604865
0.000753018
-0.000502664
0.000668795
-0.000413061
0.000635507
-0.000343281
0.000655564
-0.000289735
0.000717412
-0.000260507
0.000796978
-0.000256834
0.000886034
-0.000259865
0.00098052
-0.000247886
0.00107427
-0.000200441
0.0011552
-9.58336e-05
0.00120344
7.5917e-05
0.00121475
0.000293729
0.00120069
0.000549552
0.00121159
0.000871493
0.00129598
0.00125135
0.00146584
0.0017316
0.00189454
0.00198787
0.00214354
0.00126612
0.00175307
0.000847771
0.000382216
-0.000736257
0.0114994
-0.000657964
0.00429404
0.00040163
0.00136747
0.00102691
0.00128206
0.00143457
0.00105957
0.00190014
0.000391341
0.00240538
-0.000615403
0.00278037
-0.00166493
0.00296736
-0.002463
0.00296387
-0.00293733
0.00279979
-0.00309738
0.0025209
-0.00299448
0.0021778
-0.00269898
0.00181396
-0.00228157
0.00146729
-0.00180928
0.00116405
-0.00134348
0.000910069
-0.000939321
0.000691361
-0.000656763
0.000480897
-0.000499532
0.000294602
-0.000418558
0.000158458
-0.000366507
7.7457e-05
-0.000332047
4.59094e-05
-0.00031172
5.8182e-05
-0.000301994
0.000102215
-0.000304526
0.000163324
-0.00031793
0.000234792
-0.00033132
0.000317608
-0.000330688
0.000416878
-0.000299697
0.000537533
-0.000216475
0.000666194
-5.27304e-05
0.00079034
0.000169597
0.000920522
0.000419383
0.00109979
0.000692241
0.0013779
0.000973248
0.00181869
0.00129084
0.00248294
0.00132364
0.003019
0.000730076
0.00305123
0.000815549
0.00349692
0.00250864
0.00949631
0.00315095
0.00365173
0.00339937
0.00111906
0.00373753
0.000943912
0.00412416
0.000672962
0.0046457
-0.000130188
0.00508299
-0.00105268
0.00520623
-0.00178816
0.00501432
-0.00227109
0.00457371
-0.00249672
0.00396603
-0.0024897
0.00327198
-0.00230043
0.00256148
-0.00198848
0.00188309
-0.00160316
0.00127271
-0.0011989
0.000755177
-0.000825933
0.000337035
-0.000521168
2.22028e-05
-0.000341919
-0.000209516
-0.000267801
-0.00037444
-0.00025362
-0.000486409
-0.000254525
-0.000556815
-0.000261627
-0.000595289
-0.000273232
-0.000608872
-0.000288398
-0.000605836
-0.000307549
-0.000594661
-0.000329092
-0.000578869
-0.000347097
-0.000556003
-0.000353541
-0.00051673
-0.000338956
-0.000440931
-0.000292261
-0.000295259
-0.000198389
-0.00010123
-2.44172e-05
0.000120191
0.000197976
0.000394969
0.000417477
0.000737746
0.000630485
0.00119224
0.00083636
0.00168795
0.000827938
0.00189169
0.000526349
0.00112016
0.00158709
0.0048739
0.0100503
0.013694
0.0123197
0.00249329
0.011273
0.00199069
0.0105235
0.00142243
0.00982777
0.000565574
0.00893135
-0.000156266
0.00784913
-0.000705945
0.00666974
-0.0010917
0.00545924
-0.00128622
0.00427081
-0.00130127
0.0031531
-0.00118271
0.00214548
-0.000980846
0.00126016
-0.000717834
0.000507083
-0.00044581
-8.76301e-05
-0.000231208
-0.000500063
-0.000108723
-0.000756136
-8.58327e-05
-0.000923407
-0.000100516
-0.00104721
-0.000129802
-0.00114362
-0.000158104
-0.00122148
-0.000183749
-0.00128715
-0.000207545
-0.00134604
-0.000229494
-0.00140439
-0.000249195
-0.00146911
-0.000264355
-0.00154649
-0.000269702
-0.00164288
-0.000257135
-0.00176633
-0.000215491
-0.0019277
-0.000130875
-0.00213518
9.1018e-06
-0.00237195
0.000212363
-0.00266452
0.000490567
-0.00310668
0.000859647
-0.00379353
0.00131735
-0.00479019
0.00183304
-0.00621119
0.00224895
-0.00792926
0.00224443
-0.00743815
0.001096
-0.0022796
0.00478073
0.00381417
0.00426718
0.00250421
0.00500734
0.000682227
0.00516734
0.000405539
0.00486253
0.000148521
0.00432531
-0.000168735
0.00362722
-0.000393611
0.00282207
-0.000481071
0.00196909
-0.000448283
0.00112772
-0.000341329
0.000337114
-0.000190231
-0.00035632
-2.43874e-05
-0.000879323
7.72057e-05
-0.00120758
9.70648e-05
-0.00139249
7.61975e-05
-0.00151145
3.31451e-05
-0.00160407
-7.88005e-06
-0.00169031
-4.35506e-05
-0.00177613
-7.22695e-05
-0.00186426
-9.56122e-05
-0.00195613
-0.000115657
-0.00205365
-0.000131962
-0.00215909
-0.000143741
-0.00227444
-0.000148988
-0.00240031
-0.000143814
-0.00253506
-0.000122371
-0.00267359
-7.69484e-05
-0.00280683
2.38143e-06
-0.0029221
0.000124382
-0.00301539
0.00030567
-0.00309782
0.00057301
-0.00317803
0.00093987
-0.00325503
0.00139437
-0.003284
0.00186202
-0.00320984
0.0021748
-0.00285856
0.00189316
-0.00158731
-0.00017523
-0.0037921
-0.000578671
0.00445064
0.000585331
0.00134018
0.000684622
0.000582919
0.000737896
0.000352257
0.000702571
0.000183846
0.000493817
4.00261e-05
0.000123102
-2.28857e-05
-0.000358792
8.39086e-07
-0.000862425
5.53636e-05
-0.00130878
0.000105042
-0.00164551
0.00014651
-0.00184067
0.000170785
-0.00193163
0.000168181
-0.00197744
0.000142886
-0.00200821
0.000106987
-0.00204398
6.89213e-05
-0.00208819
3.63496e-05
-0.00214335
1.16265e-05
-0.0022079
-7.71385e-06
-0.00228073
-2.27611e-05
-0.00236136
-3.50135e-05
-0.00244852
-4.47873e-05
-0.00254039
-5.18619e-05
-0.00263405
-5.53123e-05
-0.00272463
-5.32189e-05
-0.00280449
-4.25002e-05
-0.0028624
-1.90204e-05
-0.00288381
2.38086e-05
-0.00285816
9.87377e-05
-0.00276381
0.000211343
-0.00256803
0.000377239
-0.0022442
0.000616058
-0.00177714
0.000927312
-0.00114408
0.00122898
-0.000168232
0.00119896
0.00115303
0.000571915
0.00158362
-0.000605816
-0.00212638
-0.00738917
-0.0102141
-0.00572071
-0.0043582
-0.00376051
-0.00339762
-0.00320626
-0.0031612
-0.00318095
-0.00317852
-0.00312278
-0.00301844
-0.00287361
-0.00270541
-0.00254063
-0.00240181
-0.00229936
-0.00223529
-0.00220399
-0.00219752
-0.00221046
-0.00223846
-0.00227872
-0.00232873
-0.00238577
-0.0024462
-0.00250445
-0.0025519
-0.00257575
-0.00255664
-0.00246246
-0.00225553
-0.00188256
-0.00127064
-0.000347363
0.000877646
0.00207256
0.00264025
0.00202995
)
;

boundaryField
{
    floor
    {
        type            calculated;
        value           nonuniform List<scalar> 
29
(
0
0
0
0
0
0
0
0
0
0
0
0
0
0
0
0
0
0
0
0
-3.94093e-06
-9.93525e-06
-1.50297e-05
-1.96437e-05
-1.47063e-06
-2.90504e-06
-8.09784e-06
-8.31763e-06
-7.903e-06
)
;
    }
    ceiling
    {
        type            calculated;
        value           nonuniform List<scalar> 
43
(
-4.53704e-05
-4.40628e-05
-4.27497e-05
-2.23137e-05
-1.47604e-05
-1.06114e-05
-7.50145e-06
-5.02147e-06
-3.11687e-06
-1.58522e-06
-3.56945e-07
7.11335e-07
1.68846e-06
2.60206e-06
3.41665e-06
4.07692e-06
4.55257e-06
4.86552e-06
5.05973e-06
5.17445e-06
5.23491e-06
5.25858e-06
5.25748e-06
5.23458e-06
5.19174e-06
5.13035e-06
5.0516e-06
4.95626e-06
4.84442e-06
4.71453e-06
4.57113e-06
4.42628e-06
4.28501e-06
4.15433e-06
4.0475e-06
3.98902e-06
4.06501e-06
4.23699e-06
4.49046e-06
5.54004e-06
1.11952e-05
8.06184e-06
-5.78134e-05
)
;
    }
    sWall
    {
        type            calculated;
        value           uniform -0.000273227;
    }
    nWall
    {
        type            calculated;
        value           nonuniform List<scalar> 6(-4.84603e-05 -5.81038e-05 -6.34534e-05 -7.48033e-05 -8.20811e-05 -0.000101946);
    }
    sideWalls
    {
        type            empty;
        value           nonuniform 0();
    }
    glass1
    {
        type            calculated;
        value           nonuniform List<scalar> 9(-5.71905e-05 -0.000153701 -0.000234519 -0.000302832 -0.000360498 -0.000408984 -0.000452387 -0.000505509 -0.000565169);
    }
    glass2
    {
        type            calculated;
        value           nonuniform List<scalar> 2(-0.000256804 -0.000284642);
    }
    sun
    {
        type            calculated;
        value           uniform 0;
    }
    heatsource1
    {
        type            calculated;
        value           nonuniform List<scalar> 3(2.04119e-07 2.04063e-07 2.04077e-07);
    }
    heatsource2
    {
        type            calculated;
        value           nonuniform List<scalar> 4(5.1059e-08 5.12026e-08 0 0);
    }
    Table_master
    {
        type            calculated;
        value           nonuniform List<scalar> 9(-1.53087e-07 -1.53147e-07 -1.5317e-07 -1.53186e-07 -1.53198e-07 -1.53205e-07 -1.53208e-07 -1.53202e-07 -1.53171e-07);
    }
    Table_slave
    {
        type            calculated;
        value           nonuniform List<scalar> 9(1.52978e-07 1.52987e-07 1.52963e-07 1.52942e-07 1.52932e-07 1.52938e-07 1.5295e-07 1.52991e-07 1.53072e-07);
    }
    inlet
    {
        type            calculated;
        value           uniform -0.00610163;
    }
    outlet
    {
        type            calculated;
        value           nonuniform List<scalar> 2(0.00770778 0.00286899);
    }
}


// ************************************************************************* //
