/*--------------------------------*- C++ -*----------------------------------*\
  =========                 |
  \\      /  F ield         | OpenFOAM: The Open Source CFD Toolbox
   \\    /   O peration     | Website:  https://openfoam.org
    \\  /    A nd           | Version:  6
     \\/     M anipulation  |
\*---------------------------------------------------------------------------*/
FoamFile
{
    version     2.0;
    format      ascii;
    class       surfaceScalarField;
    location    "1200";
    object      phi;
}
// * * * * * * * * * * * * * * * * * * * * * * * * * * * * * * * * * * * * * //

dimensions      [1 0 -1 0 0 0 0];

internalField   nonuniform List<scalar> 
852
(
-0.00293962
0.00299579
-0.00398407
0.00104444
-0.00477502
0.000790956
-0.00539109
0.000616063
-0.00580291
0.000411815
-0.00598757
0.00018466
-0.0059232
-6.4365e-05
-0.00559333
-0.000329877
-0.00501283
-0.000580502
-0.00423638
-0.000776447
-0.00334688
-0.000889502
-0.00243411
-0.000912777
-0.00157381
-0.000860299
-0.000790596
-0.000783217
-0.000789161
-0.000682626
0.000685284
-0.000359656
-0.000322972
0.000247668
-0.000607326
0.000725301
-0.000477635
0.00104427
-0.00031897
0.00124371
-0.000199444
0.00135258
-0.00010887
0.00140667
-5.40948e-05
0.00143728
-3.06127e-05
0.00145613
-1.88544e-05
0.00146679
-1.06585e-05
0.00147038
-3.59029e-06
0.00146495
5.42863e-06
0.00144207
2.28752e-05
0.00137919
6.28788e-05
0.00123832
0.000140864
0.00100431
0.000234014
0.000708985
0.000295319
0.000712555
-0.00209718
0.00524421
-0.0031059
0.00205315
-0.00391283
0.00159789
-0.0045157
0.00121893
-0.00491804
0.000814149
-0.00510567
0.000372289
-0.00505326
-0.000116781
-0.0047478
-0.000635331
-0.00421562
-0.00111268
-0.0035205
-0.00147157
-0.00274612
-0.00166388
-0.00197285
-0.00168605
-0.00127238
-0.00156077
-0.000729839
-0.00132576
-0.000524955
-0.000994047
-5.53246e-05
-0.000469683
-5.53779e-05
0.000362834
0.000330037
0.000789829
-0.000749969
0.00104313
-0.000860624
0.00125496
-0.000689476
0.00141328
-0.00047729
0.00150679
-0.000292952
0.00152161
-0.000123698
0.00152559
-5.80784e-05
0.00153036
-3.53816e-05
0.00153435
-2.28433e-05
0.00153702
-1.33304e-05
0.00153836
-4.93737e-06
0.00153752
6.26756e-06
0.00153091
2.94794e-05
0.00148972
0.000104073
0.0013147
0.000315878
0.00101198
0.000536738
0.000629359
0.000677933
0.00135113
-0.0014674
0.00694294
-0.00233236
0.00291811
-0.00304156
0.00230709
-0.00355185
0.00172922
-0.00389778
0.00116008
-0.0040604
0.000534907
-0.00399428
-0.000182902
-0.00368044
-0.000949173
-0.0031679
-0.00162523
-0.00253406
-0.00210541
-0.00186144
-0.00233651
-0.00121258
-0.00233491
-0.000637329
-0.00213602
-0.000183759
-0.00177933
0.000117227
-0.00129503
0.000306361
-0.00065882
0.000250982
0.00148703
-0.00114901
0.00170205
-0.000964988
0.00168181
-0.000840388
0.00168259
-0.000690254
0.00170484
-0.000499543
0.00171898
-0.000307096
0.00159543
0.00153751
0.00150228
0.00147958
0.0014664
0.00146162
0.00146804
0.00149767
0.00160189
0.00132208
0.000595682
0.000981924
0.000876896
0.000549139
0.00111072
0.00191435
-0.00102421
0.00826674
-0.00170608
0.00359998
-0.00216776
0.00276877
-0.00249406
0.00205551
-0.00271372
0.00137975
-0.00279264
0.000613824
-0.00265523
-0.000320318
-0.00229634
-0.00130806
-0.00180376
-0.00211781
-0.00126002
-0.00264914
-0.000731852
-0.00286468
-0.000251999
-0.00281477
0.000162507
-0.00255053
0.000507589
-0.00212441
0.000812594
-0.00160004
0.00117772
-0.00102395
0.0019484
-0.000519694
0.00246359
-0.000507965
0.00206804
-0.000753466
0.00193847
-0.000835421
0.00182466
-0.000726573
0.00172749
-0.00059309
0.00167323
-0.00044528
0.00164764
-0.000281517
0.00176246
-0.000114975
0.00183365
-7.13421e-05
0.00189047
-5.69685e-05
0.00193373
-4.34212e-05
0.00194984
-1.62582e-05
0.0019181
3.15853e-05
0.00181401
0.000103927
0.00160526
0.0002086
0.00123762
0.000367482
0.00110762
0.000725676
0.000822946
0.00116157
0.000389152
0.00154451
0.00232197
-0.000717613
0.00934192
-0.00123259
0.00411496
-0.00131904
0.00285521
-0.00136926
0.00210573
-0.00138587
0.00139636
-0.00128306
0.000511015
-0.000985278
-0.000618106
-0.000566531
-0.00172681
-0.000132726
-0.00255162
0.000252144
-0.00303402
0.00056471
-0.00317725
0.000804358
-0.00305442
0.000986178
-0.00273235
0.00113775
-0.00227599
0.0012905
-0.0017528
0.00149505
-0.0012285
0.00178305
-0.000807699
0.00191635
-0.000641262
0.00181833
-0.000655453
0.00164206
-0.000659151
0.00149221
-0.000576721
0.00136893
-0.000469821
0.0012833
-0.000359644
0.00124846
-0.00024668
0.0012872
-0.000153717
0.00133237
-0.000116516
0.00138235
-0.00010695
0.00143398
-9.50561e-05
0.00147698
-5.92604e-05
0.00149216
1.64077e-05
0.00145926
0.00013682
0.0013662
0.000301658
0.00121342
0.000520262
0.00108062
0.000858475
0.000938597
0.00130359
0.000623578
0.00185952
0.000557416
0.00238813
-0.000964914
0.00152212
-0.00142828
0.000463155
-0.00138143
-0.000625705
0.0103741
-0.000976215
0.00446546
-0.000547046
0.00242604
-0.000176247
0.00173493
0.00011165
0.00110846
0.000522437
0.000100226
0.00103652
-0.00113219
0.00145742
-0.00214772
0.00173607
-0.00283026
0.0018734
-0.00317135
0.00190288
-0.00320674
0.00185216
-0.0030037
0.00175293
-0.00263312
0.00164149
-0.00216455
0.00155091
-0.00166222
0.00150593
-0.00118351
0.00149999
-0.000801769
0.00144631
-0.000587577
0.0013024
-0.000511551
0.00111173
-0.000468482
0.000942845
-0.000407835
0.000812862
-0.00033984
0.000728064
-0.000274848
0.00069632
-0.000214938
0.000715432
-0.000172832
0.000761103
-0.000162189
0.000822312
-0.000168161
0.000894443
-0.000167189
0.000972089
-0.000136908
0.00104325
-5.4754e-05
0.00109054
8.95309e-05
0.00110993
0.000282264
0.00110905
0.000521138
0.00113485
0.000832676
0.00123481
0.00120362
0.00142231
0.00167203
0.00186613
0.0019443
0.00212782
0.00126043
0.00173925
0.000851728
0.000414209
-0.000676959
0.0115019
-0.000551485
0.00433999
0.000591967
0.00128259
0.00140226
0.000924633
0.00211552
0.000395194
0.00283667
-0.00062092
0.00337095
-0.00166648
0.00364208
-0.00241884
0.00365999
-0.00284818
0.00347243
-0.00298379
0.00314333
-0.00287763
0.00273375
-0.00259412
0.00229736
-0.00219673
0.00188082
-0.00174801
0.00151897
-0.00130037
0.00122665
-0.000891201
0.00100176
-0.000576878
0.000807305
-0.000393123
0.000610277
-0.000314524
0.000421578
-0.000279785
0.000266007
-0.000252266
0.000153598
-0.000227433
8.60074e-05
-0.000207259
6.41222e-05
-0.000193055
8.1972e-05
-0.000190683
0.000124697
-0.000204916
0.000182782
-0.000226248
0.000255055
-0.000239464
0.000345565
-0.00022742
0.000459213
-0.000168405
0.000583721
-3.49791e-05
0.000708816
0.000157168
0.000845597
0.000384354
0.00103136
0.000646912
0.00131416
0.000920818
0.00175515
0.00123104
0.00242166
0.0012778
0.00296275
0.000719326
0.00298564
0.000828838
0.00346083
0.00260262
0.00940367
0.00331323
0.00362938
0.00373046
0.000865351
0.00445743
0.000197666
0.00530216
-0.00044954
0.00591752
-0.00123629
0.00611358
-0.00186254
0.00592945
-0.00223471
0.00544598
-0.00236472
0.00475735
-0.00229516
0.00395948
-0.00207976
0.00313544
-0.00177008
0.00234705
-0.00140833
0.00164248
-0.00104345
0.00105352
-0.000711409
0.000585084
-0.000422772
0.000242499
-0.000234295
-5.12124e-06
-0.000145504
-0.000196033
-0.000123614
-0.00034728
-0.00012854
-0.000462965
-0.000136583
-0.000544637
-0.000145763
-0.000595068
-0.000156831
-0.000617223
-0.000170902
-0.000617381
-0.000190527
-0.000605686
-0.000216613
-0.000588113
-0.000243823
-0.000563921
-0.000263657
-0.000524926
-0.000266417
-0.000452576
-0.000240756
-0.000318405
-0.000169153
-0.000138006
-2.3233e-05
7.46463e-05
0.0001717
0.000343293
0.000378263
0.00067925
0.000584859
0.00112302
0.000787267
0.00161274
0.000788071
0.00182256
0.000509503
0.00108488
0.00156652
0.00479417
0.00995696
0.0135783
0.0124638
0.00197983
0.0117706
0.000890884
0.0111085
0.000212516
0.0102055
-0.000333301
0.0090396
-0.000696616
0.00771709
-0.000912195
0.00633215
-0.000979783
0.00495964
-0.000922648
0.00366697
-0.000787091
0.00250459
-0.000607702
0.00149602
-0.000399774
0.000663045
-0.000210468
1.08388e-05
-5.92052e-05
-0.000442817
3.08818e-05
-0.000718352
4.12379e-05
-0.000888409
2.45513e-05
-0.00100995
-2.07396e-06
-0.00110881
-2.96888e-05
-0.00119044
-5.49457e-05
-0.00125695
-7.92575e-05
-0.00131127
-0.000102518
-0.0013572
-0.000124972
-0.00140109
-0.000146633
-0.00145169
-0.000166016
-0.00151667
-0.000178846
-0.00160332
-0.000177013
-0.00172034
-0.0001494
-0.00187788
-8.32126e-05
-0.00208148
3.44366e-05
-0.00231829
0.000213573
-0.00261507
0.00046848
-0.00305262
0.000815811
-0.00372183
0.00125407
-0.0046897
0.00175513
-0.00607292
0.00217129
-0.00775473
0.00219131
-0.00728678
0.00109856
-0.00221782
0.00466656
0.00349624
0.00373967
0.00181778
0.00409407
-0.000141875
0.00409586
-0.000335097
0.00368672
-0.000287469
0.00305044
-0.000275916
0.00229534
-0.000224686
0.00148761
-0.000114914
0.000673569
2.6944e-05
-8.53979e-05
0.000151263
-0.000702234
0.00021706
-0.00113322
0.000220519
-0.00140298
0.000210554
-0.00155493
0.000182825
-0.00165253
0.000138835
-0.00172356
9.55778e-05
-0.00178356
5.79295e-05
-0.00184025
2.69931e-05
-0.00189812
2.92327e-06
-0.00195896
-1.84228e-05
-0.00202348
-3.79908e-05
-0.00209335
-5.5108e-05
-0.0021715
-6.84842e-05
-0.00226127
-7.62477e-05
-0.00236355
-7.65718e-05
-0.00247731
-6.32497e-05
-0.00259882
-2.78977e-05
-0.00272009
3.80537e-05
-0.0028293
0.00014365
-0.00292337
0.00030764
-0.00300968
0.000554784
-0.00309333
0.00089946
-0.00316974
0.00133048
-0.00319369
0.00177908
-0.00311337
0.00209097
-0.00274917
0.00182711
-0.00148851
-0.000162102
-0.00363466
-0.000523135
0.00408481
0.000306943
0.000987701
-0.000103724
0.000268794
-0.000514669
7.58483e-05
-0.000870528
6.83891e-05
-0.00124169
9.5248e-05
-0.00160442
0.000138037
-0.00190787
0.000188535
-0.00211391
0.000232984
-0.00222548
0.000262829
-0.00227469
0.000266265
-0.00229271
0.000238538
-0.00228525
0.000203096
-0.00226967
0.000167244
-0.00226389
0.000133048
-0.00227225
0.000103936
-0.00229415
7.98281e-05
-0.00232721
6.00507e-05
-0.00236804
4.37482e-05
-0.00241739
3.09302e-05
-0.00247471
1.93243e-05
-0.00253817
8.34612e-06
-0.00260496
-1.69327e-06
-0.00267198
-9.22789e-06
-0.00273573
-1.28221e-05
-0.00278945
-9.53469e-06
-0.00282248
5.13392e-06
-0.00282547
4.10337e-05
-0.00278784
0.000106026
-0.00268809
0.000207887
-0.00249522
0.000361907
-0.00218254
0.000586779
-0.00173052
0.000878454
-0.0011104
0.00115895
-0.000152031
0.0011326
0.00114196
0.000533123
0.00158206
-0.000602206
-0.00197411
-0.00721163
-0.0101184
-0.00599081
-0.00498338
-0.00470369
-0.00462121
-0.0045488
-0.0044515
-0.00431301
-0.0041254
-0.00389458
-0.00363508
-0.00337328
-0.00314025
-0.00294356
-0.00278344
-0.00265806
-0.00256224
-0.00249086
-0.00243953
-0.00240469
-0.00238282
-0.00237265
-0.00237351
-0.00238441
-0.00240277
-0.00242462
-0.00244301
-0.00244653
-0.00241389
-0.00231598
-0.00211592
-0.00176153
-0.00118198
-0.000310476
0.000841755
0.00196761
0.00249374
0.00188413
)
;

boundaryField
{
    floor
    {
        type            calculated;
        value           nonuniform List<scalar> 
29
(
0
0
0
0
0
0
0
0
0
0
0
0
0
0
0
0
0
0
0
0
-3.57177e-06
-9.2219e-06
-1.40774e-05
-1.84743e-05
-1.43693e-06
-2.66014e-06
-7.59017e-06
-7.98743e-06
-7.22618e-06
)
;
    }
    ceiling
    {
        type            calculated;
        value           nonuniform List<scalar> 
43
(
-4.54238e-05
-4.4108e-05
-4.28015e-05
-1.9731e-05
-1.09002e-05
-6.63416e-06
-4.02637e-06
-2.05493e-06
-4.49411e-07
9.22244e-07
2.15734e-06
3.32647e-06
4.46348e-06
5.51153e-06
6.40264e-06
7.11682e-06
7.67509e-06
8.10982e-06
8.44849e-06
8.71075e-06
8.9107e-06
9.05734e-06
9.15626e-06
9.20508e-06
9.19834e-06
9.13408e-06
9.0204e-06
8.85833e-06
8.64882e-06
8.39512e-06
8.11509e-06
7.81976e-06
7.51812e-06
7.22176e-06
6.95139e-06
6.72047e-06
6.74648e-06
6.99213e-06
7.39964e-06
8.65011e-06
1.11202e-05
8.07172e-06
-6.54388e-05
)
;
    }
    sWall
    {
        type            calculated;
        value           uniform -0.000275335;
    }
    nWall
    {
        type            calculated;
        value           nonuniform List<scalar> 6(-4.7047e-05 -5.63971e-05 -6.09826e-05 -7.16684e-05 -7.84876e-05 -9.86365e-05);
    }
    sideWalls
    {
        type            empty;
        value           nonuniform 0();
    }
    glass1
    {
        type            calculated;
        value           nonuniform List<scalar> 9(-5.61622e-05 -0.000151241 -0.000231342 -0.000299586 -0.000357563 -0.00040648 -0.000450797 -0.000504436 -0.000564417);
    }
    glass2
    {
        type            calculated;
        value           nonuniform List<scalar> 2(-0.000248458 -0.0002748);
    }
    sun
    {
        type            calculated;
        value           uniform 0;
    }
    heatsource1
    {
        type            calculated;
        value           nonuniform List<scalar> 3(2.03938e-07 2.03896e-07 2.03913e-07);
    }
    heatsource2
    {
        type            calculated;
        value           nonuniform List<scalar> 4(5.11012e-08 5.12205e-08 0 0);
    }
    Table_master
    {
        type            calculated;
        value           nonuniform List<scalar> 9(-1.52954e-07 -1.53037e-07 -1.53067e-07 -1.53086e-07 -1.531e-07 -1.5311e-07 -1.53113e-07 -1.53107e-07 -1.53074e-07);
    }
    Table_slave
    {
        type            calculated;
        value           nonuniform List<scalar> 9(1.5283e-07 1.52857e-07 1.5284e-07 1.52827e-07 1.52823e-07 1.52826e-07 1.52842e-07 1.52885e-07 1.52964e-07);
    }
    inlet
    {
        type            calculated;
        value           uniform -0.00618296;
    }
    outlet
    {
        type            calculated;
        value           nonuniform List<scalar> 2(0.00753239 0.0029509);
    }
}


// ************************************************************************* //
