/*--------------------------------*- C++ -*----------------------------------*\
  =========                 |
  \\      /  F ield         | OpenFOAM: The Open Source CFD Toolbox
   \\    /   O peration     | Website:  https://openfoam.org
    \\  /    A nd           | Version:  6
     \\/     M anipulation  |
\*---------------------------------------------------------------------------*/
FoamFile
{
    version     2.0;
    format      ascii;
    class       volScalarField;
    location    "200";
    object      epsilon;
}
// * * * * * * * * * * * * * * * * * * * * * * * * * * * * * * * * * * * * * //

dimensions      [0 2 -3 0 0 0 0];

internalField   nonuniform List<scalar> 
459
(
0.000484848
0.000637327
0.000679123
0.000784584
0.00089251
0.00100387
0.00112464
0.00124002
0.00131853
0.00133958
0.00128946
0.00116678
0.00098276
0.000765164
0.000556291
4.11234e-05
7.26461e-05
0.000107759
0.000112701
0.000104493
9.2199e-05
7.61302e-05
6.17316e-05
5.03035e-05
4.14345e-05
3.45224e-05
2.90779e-05
2.47349e-05
2.12363e-05
1.83253e-05
1.57869e-05
1.3415e-05
1.17026e-05
8.69384e-06
0.00119943
0.00168466
0.000602131
0.000588309
0.000621192
0.000675209
0.000754553
0.000849855
0.000931193
0.000971356
0.000954142
0.00087912
0.000757145
0.000613754
0.000499895
0.000608092
0.000146542
4.73117e-05
0.000115836
0.000129179
0.000121491
0.000106378
9.13244e-05
8.45715e-05
6.84028e-05
5.38412e-05
4.2331e-05
3.35105e-05
2.67892e-05
2.16476e-05
1.77314e-05
1.4828e-05
1.302e-05
1.21493e-05
2.50319e-05
1.80308e-05
0.00215335
0.00401686
0.000739066
0.000566101
0.000602042
0.000688228
0.000812801
0.000955024
0.00106891
0.00112248
0.00110623
0.00102753
0.000898296
0.000749915
0.000620142
0.000559036
0.000697488
0.000332405
0.000257127
0.000205473
0.000165832
0.000134856
0.000116834
0.000221249
0.000149597
0.000104762
7.5987e-05
5.69294e-05
4.39104e-05
3.47771e-05
2.82822e-05
2.37076e-05
1.78563e-05
1.4727e-05
4.36906e-05
2.7211e-05
0.00344005
0.00822326
0.00115747
0.000584596
0.000606114
0.000734824
0.000935936
0.00114237
0.0012777
0.00132413
0.00129006
0.00119114
0.00103313
0.000864504
0.000716044
0.000618239
0.000599551
0.00112714
0.000643549
0.000398742
0.000274571
0.000202802
0.000157606
0.000137401
0.000322275
0.000240025
0.000190152
0.000156782
0.000131605
0.000111497
9.41933e-05
7.81517e-05
6.21213e-05
3.57288e-05
2.26109e-05
6.84184e-05
3.6399e-05
0.0051928
0.0145543
0.0022705
0.000722483
0.00066106
0.000855154
0.0012202
0.00148099
0.00159672
0.00160258
0.00152796
0.00138664
0.0011923
0.000974945
0.000767902
0.000599067
0.000484222
0.000437834
0.000363776
0.000294852
0.000238004
0.000192325
0.000156315
0.000131135
0.000126344
0.000116013
0.000105616
9.55257e-05
8.54373e-05
7.54666e-05
6.57711e-05
5.66622e-05
4.82742e-05
3.73785e-05
2.76551e-05
5.16241e-05
4.00558e-05
6.79246e-05
0.000121295
0.000172297
0.00761519
0.021567
0.00508222
0.00144204
0.00108123
0.0014499
0.00191905
0.00208113
0.00208256
0.00200265
0.00186289
0.00166026
0.00140096
0.00111289
0.000836786
0.000610753
0.000455228
0.000366878
0.000311017
0.000264345
0.000220931
0.000182427
0.000150583
0.000127092
0.000113767
0.000106158
0.000100575
9.48838e-05
8.80472e-05
7.93383e-05
6.89406e-05
5.84402e-05
4.88771e-05
4.01853e-05
3.4177e-05
4.16004e-05
4.2501e-05
5.27736e-05
0.000222701
0.000196475
0.0103619
0.0257692
0.0103581
0.00460256
0.00341255
0.00347816
0.00332087
0.00306705
0.00281095
0.00257158
0.00231978
0.00201885
0.00166197
0.00127913
0.000919876
0.000635153
0.000447758
0.00034359
0.000284081
0.000239246
0.00019933
0.000165165
0.00013853
0.000120499
0.000111169
0.000107835
0.000106974
0.00010664
0.000105749
0.000102924
9.51835e-05
8.46545e-05
7.42265e-05
6.51515e-05
6.1501e-05
6.765e-05
8.52006e-05
0.000135332
0.000306977
0.000301139
0.0109421
0.0275549
0.0156038
0.0109034
0.00845273
0.00653529
0.00518525
0.00429781
0.00371892
0.0032981
0.00290584
0.0024594
0.00195313
0.00143419
0.000964232
0.000616309
0.000407502
0.000299818
0.00024134
0.000200621
0.000167528
0.000141922
0.000124227
0.000114232
0.000111009
0.000112752
0.000117795
0.000125596
0.000136248
0.000149702
0.000165009
0.000175345
0.000185741
0.0002066
0.000249125
0.000373023
0.000682864
0.00128027
0.00371625
0.0011116
0.0100866
0.0167079
0.0132653
0.0101121
0.00788245
0.00643786
0.0055421
0.00498801
0.0045845
0.00416637
0.00361731
0.00290592
0.00213563
0.00141868
0.000808732
0.000460614
0.000306205
0.000231914
0.000189381
0.000159642
0.00013711
0.000121126
0.000111394
0.000107351
0.000108231
0.000113314
0.000122385
0.000136047
0.000155592
0.000182886
0.000220467
0.000272282
0.000344043
0.000451638
0.000609163
0.00082284
0.00106884
0.00128652
0.00145653
0.00092274
0.0034023
0.0052587
0.00659084
0.0068855
0.00681743
0.00645519
0.00575996
0.00477551
0.0035412
0.00219208
0.00128217
0.000742665
0.000439113
0.000283662
0.00020802
0.000168014
0.000143369
0.000126238
0.000114091
0.000105883
0.000101048
9.91265e-05
9.96776e-05
0.000102725
0.000108795
0.000118933
0.000134673
0.00015814
0.000192216
0.000241098
0.000309874
0.000405218
0.000530592
0.000675653
0.000804806
0.000869709
0.000832213
0.000536706
0.00265152
0.00658385
0.00725782
0.00611745
0.00533007
0.00445584
0.00344495
0.00248528
0.00169193
0.00105409
0.000638593
0.000401449
0.000276205
0.00021362
0.000183016
0.000167517
0.000158992
0.000153737
0.000150114
0.000147297
0.000144869
0.000142687
0.000140977
0.00014023
0.000141365
0.000145665
0.000154723
0.000170464
0.00019552
0.000233358
0.000288457
0.000365232
0.000463995
0.000577317
0.000660509
0.00074996
0.000776252
0.000571306
0.00196766
0.00234337
0.00263458
0.00334674
0.00305048
0.00274994
0.00252972
0.00220415
0.00179393
0.00137312
0.000998157
0.000697615
0.000487406
0.000357077
0.000278786
0.000229613
0.000196159
0.000171698
0.000153099
0.000138928
0.000128364
0.000120785
0.000115759
0.000113109
0.000112876
0.000115436
0.000121321
0.000131131
0.000145526
0.000165313
0.00019141
0.000225238
0.000268866
0.000324858
0.000395174
0.00049141
0.000521779
0.000479773
0.000399511
0.000323628
)
;

boundaryField
{
    floor
    {
        Cmu             0.09;
        kappa           0.41;
        E               9.8;
        type            epsilonWallFunction;
        value           nonuniform List<scalar> 
29
(
0.000556291
4.11234e-05
7.26461e-05
0.000107759
0.000112701
0.000104493
9.2199e-05
7.61302e-05
6.17316e-05
5.03035e-05
4.14345e-05
3.45224e-05
2.90779e-05
2.47349e-05
2.12363e-05
1.83253e-05
1.57869e-05
1.3415e-05
1.17026e-05
8.69384e-06
8.69384e-06
1.80308e-05
2.7211e-05
3.6399e-05
0.000556291
4.11234e-05
4.73117e-05
0.000332405
0.00112714
)
;
    }
    ceiling
    {
        Cmu             0.09;
        kappa           0.41;
        E               9.8;
        type            epsilonWallFunction;
        value           nonuniform List<scalar> 
43
(
0.00196766
0.00234337
0.00263458
0.00334674
0.00305048
0.00274994
0.00252972
0.00220415
0.00179393
0.00137312
0.000998157
0.000697615
0.000487406
0.000357077
0.000278786
0.000229613
0.000196159
0.000171698
0.000153099
0.000138928
0.000128364
0.000120785
0.000115759
0.000113109
0.000112876
0.000115436
0.000121321
0.000131131
0.000145526
0.000165313
0.00019141
0.000225238
0.000268866
0.000324858
0.000395174
0.00049141
0.000521779
0.000479773
0.000399511
0.000323628
0.0100866
0.0167079
0.00265152
)
;
    }
    sWall
    {
        Cmu             0.09;
        kappa           0.41;
        E               9.8;
        type            epsilonWallFunction;
        value           uniform 0.00196766;
    }
    nWall
    {
        Cmu             0.09;
        kappa           0.41;
        E               9.8;
        type            epsilonWallFunction;
        value           nonuniform List<scalar> 6(0.000172297 0.000196475 0.000301139 0.000536706 0.000571306 0.000323628);
    }
    sideWalls
    {
        type            empty;
    }
    glass1
    {
        Cmu             0.09;
        kappa           0.41;
        E               9.8;
        type            epsilonWallFunction;
        value           nonuniform List<scalar> 9(0.000484848 0.00119943 0.00215335 0.00344005 0.0051928 0.00761519 0.0103619 0.0109421 0.0100866);
    }
    glass2
    {
        Cmu             0.09;
        kappa           0.41;
        E               9.8;
        type            epsilonWallFunction;
        value           nonuniform List<scalar> 2(0.0011116 0.00092274);
    }
    sun
    {
        Cmu             0.09;
        kappa           0.41;
        E               9.8;
        type            epsilonWallFunction;
        value           nonuniform List<scalar> 
14
(
0.000484848
0.000637327
0.000679123
0.000784584
0.00089251
0.00100387
0.00112464
0.00124002
0.00131853
0.00133958
0.00128946
0.00116678
0.00098276
0.000765164
)
;
    }
    heatsource1
    {
        Cmu             0.09;
        kappa           0.41;
        E               9.8;
        type            epsilonWallFunction;
        value           nonuniform List<scalar> 3(6.79246e-05 0.000121295 0.000172297);
    }
    heatsource2
    {
        Cmu             0.09;
        kappa           0.41;
        E               9.8;
        type            epsilonWallFunction;
        value           nonuniform List<scalar> 4(0.000608092 0.000146542 0.000146542 0.000697488);
    }
    Table_master
    {
        Cmu             0.09;
        kappa           0.41;
        E               9.8;
        type            epsilonWallFunction;
        value           nonuniform List<scalar> 9(0.000221249 0.000149597 0.000104762 7.5987e-05 5.69294e-05 4.39104e-05 3.47771e-05 2.82822e-05 2.37076e-05);
    }
    Table_slave
    {
        Cmu             0.09;
        kappa           0.41;
        E               9.8;
        type            epsilonWallFunction;
        value           nonuniform List<scalar> 9(0.000322275 0.000240025 0.000190152 0.000156782 0.000131605 0.000111497 9.41933e-05 7.81517e-05 6.21213e-05);
    }
    inlet
    {
        type            turbulentMixingLengthDissipationRateInlet;
        mixingLength    0.01;
        phi             phi;
        k               k;
        value           uniform 0.000101881;
    }
    outlet
    {
        type            zeroGradient;
    }
}


// ************************************************************************* //
