/*--------------------------------*- C++ -*----------------------------------*\
  =========                 |
  \\      /  F ield         | OpenFOAM: The Open Source CFD Toolbox
   \\    /   O peration     | Website:  https://openfoam.org
    \\  /    A nd           | Version:  6
     \\/     M anipulation  |
\*---------------------------------------------------------------------------*/
FoamFile
{
    version     2.0;
    format      ascii;
    class       volScalarField;
    location    "500";
    object      epsilon;
}
// * * * * * * * * * * * * * * * * * * * * * * * * * * * * * * * * * * * * * //

dimensions      [0 2 -3 0 0 0 0];

internalField   nonuniform List<scalar> 
459
(
0.000143323
0.000165249
0.000161906
0.000177524
0.000191124
0.000202769
0.000212833
0.000221776
0.000230143
0.000238247
0.000243412
0.000244624
0.000241823
0.000236831
0.000230952
7.50048e-05
6.02726e-05
5.0934e-05
4.49001e-05
4.04895e-05
3.68023e-05
3.34037e-05
3.04216e-05
2.77926e-05
2.54445e-05
2.33314e-05
2.14169e-05
1.96663e-05
1.80398e-05
1.64849e-05
1.49365e-05
1.32887e-05
1.19785e-05
9.34433e-06
0.000467066
0.00097797
0.000154098
0.000137026
0.000133254
0.000131827
0.000132469
0.000136182
0.000144016
0.000156367
0.000169013
0.000179078
0.000184097
0.000185592
0.000195777
0.000240378
0.000188364
0.000113869
6.14615e-05
4.21149e-05
3.31084e-05
2.77616e-05
2.42747e-05
2.27221e-05
2.0821e-05
1.90071e-05
1.72436e-05
1.55565e-05
1.39744e-05
1.25069e-05
1.1156e-05
1.00075e-05
9.55163e-06
9.8917e-06
2.49833e-05
1.77286e-05
0.00102032
0.00307027
0.000228989
0.000136483
0.000130621
0.000133494
0.000140134
0.000150877
0.000165836
0.00018419
0.000201911
0.000213366
0.000214351
0.000206714
0.000200576
0.000210234
0.000290735
0.000153331
5.66936e-05
3.59752e-05
2.83004e-05
2.43172e-05
2.31697e-05
5.07485e-05
3.84508e-05
3.0324e-05
2.47675e-05
2.08276e-05
1.79414e-05
1.57858e-05
1.4199e-05
1.31709e-05
1.07671e-05
1.02633e-05
4.65962e-05
2.6915e-05
0.0019457
0.00729093
0.000465643
0.000145932
0.000133119
0.000140793
0.00015251
0.000168527
0.000189956
0.000217024
0.000243518
0.000258403
0.000255982
0.000238541
0.000213781
0.000193545
0.000200739
0.000253681
0.000102394
4.61228e-05
2.95366e-05
2.39476e-05
2.22142e-05
2.37375e-05
6.12636e-05
5.55328e-05
5.36208e-05
5.2567e-05
5.06656e-05
4.7002e-05
4.2987e-05
3.8594e-05
3.32768e-05
2.12488e-05
1.53723e-05
8.1388e-05
3.66855e-05
0.00338347
0.0140244
0.00112627
0.000176331
0.000132959
0.00014163
0.000157658
0.000181061
0.000215516
0.000263377
0.000308243
0.000329722
0.000323486
0.000294865
0.000251772
0.000206149
0.000173568
0.000156386
7.67913e-05
4.20584e-05
2.70501e-05
2.31167e-05
2.35828e-05
2.61886e-05
3.13262e-05
3.53055e-05
3.8465e-05
4.01969e-05
3.97715e-05
3.69465e-05
3.34301e-05
3.04124e-05
2.7904e-05
2.34659e-05
1.90602e-05
5.91843e-05
4.07482e-05
8.39914e-05
0.000143645
0.00019595
0.00550482
0.0214637
0.00299871
0.000340673
0.000159504
0.000149024
0.000161001
0.000187323
0.000239565
0.000335008
0.000404974
0.000428351
0.000412479
0.000369005
0.000306324
0.000236264
0.00017363
0.000132051
8.18652e-05
4.27271e-05
2.76864e-05
2.54901e-05
2.80821e-05
3.28854e-05
3.93319e-05
4.64402e-05
5.30098e-05
5.76585e-05
5.88861e-05
5.52272e-05
4.67035e-05
3.83166e-05
3.13628e-05
2.58554e-05
2.31147e-05
4.11864e-05
4.1869e-05
5.80237e-05
0.00026877
0.000219089
0.00848146
0.0257672
0.0077603
0.00156974
0.000582456
0.000329011
0.000265969
0.000267503
0.000343946
0.000498405
0.000565133
0.000564978
0.000523183
0.00045612
0.000370639
0.000275709
0.000188513
0.000139724
9.18931e-05
4.53791e-05
3.1483e-05
3.10368e-05
3.53813e-05
4.22166e-05
5.10213e-05
6.1368e-05
7.2252e-05
8.19295e-05
8.87952e-05
9.00188e-05
8.04637e-05
6.52924e-05
5.24546e-05
4.28575e-05
3.96718e-05
4.93859e-05
6.4403e-05
0.000113566
0.000302288
0.000272107
0.00946905
0.0324748
0.0161183
0.00896688
0.00460666
0.00234369
0.00136946
0.000990422
0.000926522
0.000902309
0.0008441
0.000758545
0.000658654
0.000551346
0.000435298
0.000313041
0.00020253
0.000149076
9.99013e-05
5.02141e-05
3.79034e-05
3.8859e-05
4.45367e-05
5.29699e-05
6.37325e-05
7.66124e-05
9.13567e-05
0.000107666
0.000125201
0.00014305
0.000158812
0.000158114
0.000156141
0.000166326
0.000193703
0.000299562
0.00059529
0.00132541
0.00444233
0.00120025
0.00904505
0.0165156
0.0135525
0.0101591
0.00729121
0.00502539
0.00347709
0.00252418
0.0019234
0.00150212
0.00119921
0.000971253
0.00078907
0.000632251
0.000482156
0.000331329
0.000199217
0.000149344
0.000104749
5.74938e-05
4.64446e-05
4.75771e-05
5.32727e-05
6.17992e-05
7.28403e-05
8.6468e-05
0.000103027
0.000123241
0.000148357
0.000180281
0.000221746
0.00027626
0.000348795
0.000466571
0.000646173
0.000896392
0.00118716
0.00143912
0.00160988
0.000970359
0.00567283
0.00774316
0.00616033
0.00467963
0.00352302
0.00267901
0.00207392
0.00162565
0.00128617
0.00102356
0.000812791
0.000634579
0.000468848
0.000306093
0.000165499
0.000133785
0.000109682
6.9625e-05
5.8197e-05
5.78569e-05
6.19088e-05
6.85638e-05
7.74529e-05
8.86083e-05
0.000102346
0.000119367
0.00014095
0.000169232
0.000207639
0.000261501
0.000336858
0.000442634
0.000583469
0.000745654
0.000883007
0.000931041
0.00084309
0.00053387
0.00406144
0.00697379
0.00558466
0.00422741
0.00324097
0.00248862
0.00190838
0.00146725
0.00112659
0.000862456
0.000655167
0.000489763
0.000353943
0.000231667
0.000103471
6.14198e-05
6.81164e-05
6.29264e-05
5.80117e-05
5.75114e-05
6.01117e-05
6.51048e-05
7.24454e-05
8.24106e-05
9.55399e-05
0.000112687
0.000135136
0.000164785
0.000204411
0.00025767
0.000329678
0.000426034
0.000548211
0.000688072
0.000797254
0.000914389
0.000740358
0.000552878
0.00270002
0.00316979
0.0036034
0.00436865
0.00371697
0.00294461
0.00233926
0.00185966
0.00146071
0.00113135
0.000895584
0.000711198
0.000558015
0.000426718
0.000311967
0.000194797
5.52254e-05
5.19033e-05
5.44198e-05
5.56849e-05
5.89917e-05
6.45037e-05
7.1782e-05
8.07285e-05
9.1427e-05
0.000104057
0.000118901
0.000136405
0.000157314
0.00018294
0.000215624
0.000255761
0.000305503
0.000367766
0.000446411
0.000563312
0.000610961
0.000576307
0.000473702
0.000378102
)
;

boundaryField
{
    floor
    {
        Cmu             0.09;
        kappa           0.41;
        E               9.8;
        type            epsilonWallFunction;
        value           nonuniform List<scalar> 
29
(
0.000230952
7.50048e-05
6.02726e-05
5.0934e-05
4.49001e-05
4.04895e-05
3.68023e-05
3.34037e-05
3.04216e-05
2.77926e-05
2.54445e-05
2.33314e-05
2.14169e-05
1.96663e-05
1.80398e-05
1.64849e-05
1.49365e-05
1.32887e-05
1.19785e-05
9.34433e-06
9.34433e-06
1.77286e-05
2.6915e-05
3.66855e-05
0.000230952
7.50048e-05
0.000113869
0.000153331
0.000253681
)
;
    }
    ceiling
    {
        Cmu             0.09;
        kappa           0.41;
        E               9.8;
        type            epsilonWallFunction;
        value           nonuniform List<scalar> 
43
(
0.00270002
0.00316979
0.0036034
0.00436865
0.00371697
0.00294461
0.00233926
0.00185966
0.00146071
0.00113135
0.000895584
0.000711198
0.000558015
0.000426718
0.000311967
0.000194797
5.52254e-05
5.19033e-05
5.44198e-05
5.56849e-05
5.89917e-05
6.45037e-05
7.1782e-05
8.07285e-05
9.1427e-05
0.000104057
0.000118901
0.000136405
0.000157314
0.00018294
0.000215624
0.000255761
0.000305503
0.000367766
0.000446411
0.000563312
0.000610961
0.000576307
0.000473702
0.000378102
0.00904505
0.0165156
0.00406144
)
;
    }
    sWall
    {
        Cmu             0.09;
        kappa           0.41;
        E               9.8;
        type            epsilonWallFunction;
        value           uniform 0.00270002;
    }
    nWall
    {
        Cmu             0.09;
        kappa           0.41;
        E               9.8;
        type            epsilonWallFunction;
        value           nonuniform List<scalar> 6(0.00019595 0.000219089 0.000272107 0.00053387 0.000552878 0.000378102);
    }
    sideWalls
    {
        type            empty;
    }
    glass1
    {
        Cmu             0.09;
        kappa           0.41;
        E               9.8;
        type            epsilonWallFunction;
        value           nonuniform List<scalar> 9(0.000143323 0.000467066 0.00102032 0.0019457 0.00338347 0.00550482 0.00848146 0.00946905 0.00904505);
    }
    glass2
    {
        Cmu             0.09;
        kappa           0.41;
        E               9.8;
        type            epsilonWallFunction;
        value           nonuniform List<scalar> 2(0.00120025 0.000970359);
    }
    sun
    {
        Cmu             0.09;
        kappa           0.41;
        E               9.8;
        type            epsilonWallFunction;
        value           nonuniform List<scalar> 
14
(
0.000143323
0.000165249
0.000161906
0.000177524
0.000191124
0.000202769
0.000212833
0.000221776
0.000230143
0.000238247
0.000243412
0.000244624
0.000241823
0.000236831
)
;
    }
    heatsource1
    {
        Cmu             0.09;
        kappa           0.41;
        E               9.8;
        type            epsilonWallFunction;
        value           nonuniform List<scalar> 3(8.39914e-05 0.000143645 0.00019595);
    }
    heatsource2
    {
        Cmu             0.09;
        kappa           0.41;
        E               9.8;
        type            epsilonWallFunction;
        value           nonuniform List<scalar> 4(0.000240378 0.000188364 0.000188364 0.000290735);
    }
    Table_master
    {
        Cmu             0.09;
        kappa           0.41;
        E               9.8;
        type            epsilonWallFunction;
        value           nonuniform List<scalar> 9(5.07485e-05 3.84508e-05 3.0324e-05 2.47675e-05 2.08276e-05 1.79414e-05 1.57858e-05 1.4199e-05 1.31709e-05);
    }
    Table_slave
    {
        Cmu             0.09;
        kappa           0.41;
        E               9.8;
        type            epsilonWallFunction;
        value           nonuniform List<scalar> 9(6.12636e-05 5.55328e-05 5.36208e-05 5.2567e-05 5.06656e-05 4.7002e-05 4.2987e-05 3.8594e-05 3.32768e-05);
    }
    inlet
    {
        type            turbulentMixingLengthDissipationRateInlet;
        mixingLength    0.01;
        phi             phi;
        k               k;
        value           uniform 0.000101881;
    }
    outlet
    {
        type            zeroGradient;
    }
}


// ************************************************************************* //
