// -*- C++ -*-
// File generated by PyFoam - sorry for the ugliness

FoamFile
{
 version 2.0;
 format ascii;
 class volVectorField;
 location "130";
 object U;
}

dimensions [ 0 1 -1 0 0 0 0 ];

internalField nonuniform List<vector> 459
(
  (-0.00317723 0.0719586 0)
  (-0.145855 0.024227 0)
  (-0.175609 0.00912821 0)
  (-0.19441 -0.00296497 0)
  (-0.193135 -0.015694 0)
  (-0.170179 -0.0298587 0)
  (-0.128268 -0.0438254 0)
  (-0.0743957 -0.0534767 0)
  (-0.0139196 -0.0538621 0)
  (0.0432136 -0.0397403 0)
  (0.0770655 -0.026602 0)
  (0.0986255 -0.0142342 0)
  (0.104414 -0.00187117 0)
  (0.0894788 0.0156413 0)
  (0.086205 0.0515251 0)
  (-0.0754121 0.00755886 0)
  (-0.0134369 0.00415093 0)
  (-0.0210664 -0.0131365 0)
  (-0.000268887 -0.0245191 0)
  (0.0238069 -0.0220485 0)
  (0.0431838 -0.0164332 0)
  (0.0572773 -0.00961313 0)
  (0.0659821 -0.00579601 0)
  (0.0703616 -0.00431943 0)
  (0.0726015 -0.00371 0)
  (0.0740829 -0.00330253 0)
  (0.0751255 -0.00293061 0)
  (0.0756008 -0.00247844 0)
  (0.0750632 -0.00164594 0)
  (0.0726211 0.000116229 0)
  (0.0664541 0.00373437 0)
  (0.0545518 0.00941493 0)
  (0.0155676 0.0207479 0)
  (0.0815022 0.00866102 0)
  (0.116625 0.149056 0)
  (-0.12671 0.0698747 0)
  (-0.139704 0.0429797 0)
  (-0.159333 0.0175331 0)
  (-0.159518 -0.0118679 0)
  (-0.139148 -0.0442297 0)
  (-0.101952 -0.0729257 0)
  (-0.055838 -0.0889165 0)
  (-0.00738259 -0.0858803 0)
  (0.0352915 -0.0654457 0)
  (0.065231 -0.0420595 0)
  (0.0852379 -0.018773 0)
  (0.0952833 0.00478264 0)
  (0.0966331 0.029484 0)
  (0.100676 0.0613157 0)
  (0.0944769 0.0592991 0)
  (0.0607793 0.056991 0)
  (-0.122278 0.0166634 0)
  (0.0147059 0.00930574 0)
  (0.0218633 -0.0242343 0)
  (0.0349904 -0.0346189 0)
  (0.0489136 -0.0321545 0)
  (0.0609432 -0.0243794 0)
  (0.066781 -0.0116667 0)
  (0.0685699 -0.00373848 0)
  (0.0688576 -0.000652547 0)
  (0.069189 0.000537218 0)
  (0.0696452 0.00122916 0)
  (0.0700078 0.00182814 0)
  (0.0702317 0.00270556 0)
  (0.0701693 0.00432707 0)
  (0.0692179 0.00781144 0)
  (0.0646948 0.0162448 0)
  (0.0551568 0.0259885 0)
  (0.0118718 0.0401426 0)
  (0.14122 0.0270307 0)
  (0.227695 0.222127 0)
  (-0.12692 0.106639 0)
  (-0.106119 0.0668297 0)
  (-0.125231 0.0251935 0)
  (-0.125304 -0.0223985 0)
  (-0.104679 -0.072955 0)
  (-0.0702423 -0.114583 0)
  (-0.0314518 -0.133322 0)
  (0.00674131 -0.124313 0)
  (0.0379934 -0.0971443 0)
  (0.0622628 -0.0651475 0)
  (0.078948 -0.0332126 0)
  (0.0884804 -0.00251722 0)
  (0.0923158 0.0271593 0)
  (0.0937283 0.0557212 0)
  (0.0853308 0.0679541 0)
  (0.0671498 0.0980207 0)
  (-0.152231 0.00249774 0)
  (0.059551 -0.032596 0)
  (0.0621771 -0.0462304 0)
  (0.0678659 -0.0480432 0)
  (0.0742308 -0.0425379 0)
  (0.0801276 -0.0353583 0)
  (0.0790261 -0.0274128 0)
  (0.0695117 -0.0179081 0)
  (0.0621709 -0.0127396 0)
  (0.0587209 -0.00984122 0)
  (0.0570401 -0.00797605 0)
  (0.0558952 -0.0066576 0)
  (0.0552204 -0.00549314 0)
  (0.0559769 -0.00371038 0)
  (0.0600315 0.00133618 0)
  (0.0603108 0.0210008 0)
  (0.0546202 0.0365922 0)
  (0.00620795 0.0556594 0)
  (0.178122 0.0560222 0)
  (0.330784 0.280597 0)
  (-0.140937 0.137197 0)
  (-0.0726399 0.0883709 0)
  (-0.0897925 0.0337635 0)
  (-0.0857242 -0.0314631 0)
  (-0.0615096 -0.100381 0)
  (-0.0301552 -0.15185 0)
  (-6.68382e-05 -0.169631 0)
  (0.0261726 -0.155234 0)
  (0.0476496 -0.122602 0)
  (0.0645086 -0.0834549 0)
  (0.0759035 -0.0446081 0)
  (0.0827534 -0.00882685 0)
  (0.0868006 0.0236175 0)
  (0.0914934 0.0528255 0)
  (0.0993098 0.0752186 0)
  (0.112499 0.104312 0)
  (0.141598 0.0388012 0)
  (0.113137 0.008015 0)
  (0.114616 -0.0260332 0)
  (0.105596 -0.0436124 0)
  (0.0972927 -0.0467701 0)
  (0.0913841 -0.0418085 0)
  (0.0860684 -0.0322407 0)
  (0.0864837 -0.0191371 0)
  (0.0939115 -0.0116829 0)
  (0.0979474 -0.00731903 0)
  (0.0968848 -0.00437419 0)
  (0.092857 -0.00212688 0)
  (0.0870868 -0.000238305 0)
  (0.0796676 0.00160526 0)
  (0.0698813 0.00389489 0)
  (0.0549065 0.0073698 0)
  (0.0457528 0.0271277 0)
  (0.0491633 0.0432096 0)
  (0.00631708 0.0635064 0)
  (0.201016 0.0954887 0)
  (0.42367 0.324933 0)
  (-0.163836 0.159814 0)
  (-0.0404848 0.101524 0)
  (-0.052058 0.0381535 0)
  (-0.035138 -0.044134 0)
  (-0.00669888 -0.127431 0)
  (0.0186403 -0.181097 0)
  (0.036249 -0.193078 0)
  (0.0499861 -0.174771 0)
  (0.0604037 -0.137786 0)
  (0.0674454 -0.0937239 0)
  (0.0713403 -0.0507638 0)
  (0.073589 -0.0127947 0)
  (0.0760472 0.0195871 0)
  (0.0816726 0.0461497 0)
  (0.0926346 0.0644954 0)
  (0.110366 0.0719819 0)
  (0.12751 0.0317691 0)
  (0.129133 0.00260074 0)
  (0.122271 -0.0219516 0)
  (0.110857 -0.0347759 0)
  (0.0985956 -0.0374101 0)
  (0.0876541 -0.0332697 0)
  (0.0785945 -0.024368 0)
  (0.0735609 -0.0110049 0)
  (0.0716941 -0.00204463 0)
  (0.068609 0.00313799 0)
  (0.0641527 0.0063312 0)
  (0.0590055 0.00864259 0)
  (0.0536877 0.0106399 0)
  (0.0483 0.0128236 0)
  (0.0429059 0.0158171 0)
  (0.0372284 0.0203992 0)
  (0.0350043 0.0305996 0)
  (0.0466047 0.0408207 0)
  (0.0310887 0.052113 0)
  (0.130368 0.089517 0)
  (0.117995 0.0729392 0)
  (0.095568 0.0557113 0)
  (-0.0739259 0.0586742 0)
  (0.498575 0.359548 0)
  (-0.190438 0.171999 0)
  (-0.0127041 0.0987554 0)
  (-0.00801887 0.0310538 0)
  (0.0317682 -0.0732231 0)
  (0.0570973 -0.1525 0)
  (0.0714699 -0.196696 0)
  (0.0765919 -0.203824 0)
  (0.0759854 -0.181137 0)
  (0.0721046 -0.140558 0)
  (0.0665245 -0.0936499 0)
  (0.0606575 -0.0493985 0)
  (0.0563663 -0.0122083 0)
  (0.0551386 0.0170497 0)
  (0.059445 0.038112 0)
  (0.069586 0.049581 0)
  (0.0855066 0.0483186 0)
  (0.0981107 0.0251075 0)
  (0.10082 0.00269945 0)
  (0.0961654 -0.0139506 0)
  (0.086763 -0.0232798 0)
  (0.0753309 -0.025529 0)
  (0.063896 -0.0223403 0)
  (0.0536751 -0.0152708 0)
  (0.0458156 -0.00567346 0)
  (0.0398271 0.00202544 0)
  (0.0351049 0.00690065 0)
  (0.0307155 0.00993747 0)
  (0.0266178 0.012094 0)
  (0.0230194 0.0139292 0)
  (0.02016 0.0158914 0)
  (0.0184855 0.0184459 0)
  (0.0182977 0.0218366 0)
  (0.0213142 0.0263011 0)
  (0.0333611 0.0295861 0)
  (0.0315434 0.0262641 0)
  (0.0702634 0.0456124 0)
  (0.0727129 0.0373023 0)
  (0.0838102 0.0424072 0)
  (-0.0937256 0.0827867 0)
  (0.563417 0.388851 0)
  (-0.203505 0.155146 0)
  (0.025143 0.0464384 0)
  (0.072547 -0.0266706 0)
  (0.111148 -0.109417 0)
  (0.128453 -0.17197 0)
  (0.129253 -0.202222 0)
  (0.117579 -0.199542 0)
  (0.0983484 -0.170961 0)
  (0.076607 -0.127871 0)
  (0.056028 -0.0807906 0)
  (0.0392555 -0.0386971 0)
  (0.0281843 -0.00579721 0)
  (0.023966 0.0172008 0)
  (0.0278144 0.0313951 0)
  (0.0373199 0.0374288 0)
  (0.0503831 0.034043 0)
  (0.059763 0.019348 0)
  (0.0618493 0.00393985 0)
  (0.0582041 -0.00747436 0)
  (0.050122 -0.0136984 0)
  (0.0398002 -0.014796 0)
  (0.0290163 -0.0117774 0)
  (0.0190883 -0.00591257 0)
  (0.0106291 0.00141973 0)
  (0.00494645 0.00734007 0)
  (0.00116135 0.0111179 0)
  (-0.00179602 0.0134596 0)
  (-0.00404008 0.014952 0)
  (-0.00546898 0.0159797 0)
  (-0.00571317 0.0167534 0)
  (-0.00418437 0.0174275 0)
  (-0.000396215 0.0179523 0)
  (0.00632629 0.018017 0)
  (0.017052 0.0172098 0)
  (0.018957 0.0119214 0)
  (0.0378259 0.0212842 0)
  (0.0520843 0.023884 0)
  (0.0885171 0.0469857 0)
  (-0.0917053 0.122785 0)
  (0.658145 0.377 0)
  (-0.0171402 0.123091 0)
  (0.104471 -0.0416574 0)
  (0.194537 -0.106146 0)
  (0.219319 -0.147645 0)
  (0.212343 -0.177045 0)
  (0.187025 -0.186216 0)
  (0.149547 -0.172304 0)
  (0.106194 -0.139246 0)
  (0.0640684 -0.0969116 0)
  (0.0284664 -0.0539694 0)
  (0.00327123 -0.0189282 0)
  (-0.0111373 0.00474181 0)
  (-0.0133331 0.0176583 0)
  (-0.00901189 0.0249864 0)
  (-0.000394995 0.0274461 0)
  (0.00974174 0.0240622 0)
  (0.0161888 0.0148183 0)
  (0.017069 0.00515702 0)
  (0.0135833 -0.00185911 0)
  (0.0066772 -0.00521303 0)
  (-0.00240258 -0.00491602 0)
  (-0.0117865 -0.00181872 0)
  (-0.0200175 0.00272769 0)
  (-0.0255885 0.00734518 0)
  (-0.0288406 0.0109743 0)
  (-0.0306643 0.0134176 0)
  (-0.0316222 0.0148963 0)
  (-0.0318474 0.0155523 0)
  (-0.0312214 0.015404 0)
  (-0.0293845 0.0143324 0)
  (-0.025826 0.0121511 0)
  (-0.0202557 0.00875304 0)
  (-0.0130372 0.00457307 0)
  (-0.0059891 0.00126977 0)
  (-0.00948466 -0.00063489 0)
  (-0.00831958 0.0104114 0)
  (0.00180927 0.0376972 0)
  (-0.0216463 0.0994816 0)
  (-0.330658 0.164478 0)
  (0.790812 0.358471 0)
  (0.37567 0.247025 0)
  (0.393482 0.150173 0)
  (0.399051 0.037341 0)
  (0.356651 -0.0523997 0)
  (0.291398 -0.105201 0)
  (0.218877 -0.122528 0)
  (0.146131 -0.11229 0)
  (0.0773984 -0.0832325 0)
  (0.0194147 -0.0481988 0)
  (-0.0236997 -0.0155032 0)
  (-0.0444742 0.0025266 0)
  (-0.0526733 0.0120368 0)
  (-0.0525258 0.0171195 0)
  (-0.0482327 0.0199909 0)
  (-0.0416709 0.0205982 0)
  (-0.0350636 0.0184385 0)
  (-0.031304 0.0136703 0)
  (-0.0315439 0.00866304 0)
  (-0.0351165 0.00519746 0)
  (-0.040617 0.00395466 0)
  (-0.0469032 0.00470308 0)
  (-0.0524701 0.00660968 0)
  (-0.0565776 0.00898149 0)
  (-0.0589633 0.0113325 0)
  (-0.059879 0.0132654 0)
  (-0.0597841 0.0145838 0)
  (-0.0590538 0.0152133 0)
  (-0.0579573 0.015081 0)
  (-0.0567744 0.0141256 0)
  (-0.055947 0.0123709 0)
  (-0.0563161 0.0101978 0)
  (-0.0593596 0.00888055 0)
  (-0.0668375 0.0109416 0)
  (-0.0799731 0.0189235 0)
  (-0.0998392 0.033585 0)
  (-0.122152 0.0538762 0)
  (-0.147643 0.0726715 0)
  (-0.203997 0.0766481 0)
  (-0.369736 0.0402782 0)
  (0.179431 -0.0547785 0)
  (0.218921 -0.0740687 0)
  (0.206721 -0.0887901 0)
  (0.153718 -0.0844073 0)
  (0.0904804 -0.0682075 0)
  (0.0282432 -0.0447382 0)
  (-0.0317532 -0.0142649 0)
  (-0.0674442 0.00368175 0)
  (-0.0872878 0.01337 0)
  (-0.0942761 0.0172646 0)
  (-0.0952081 0.0191721 0)
  (-0.0929219 0.02027 0)
  (-0.0889755 0.0210573 0)
  (-0.0843964 0.0212741 0)
  (-0.0804112 0.0206096 0)
  (-0.0783288 0.0191505 0)
  (-0.0785562 0.0177514 0)
  (-0.0805348 0.0171342 0)
  (-0.0832757 0.0175986 0)
  (-0.0858644 0.0189808 0)
  (-0.0876405 0.0208579 0)
  (-0.0883453 0.0229077 0)
  (-0.087975 0.0249303 0)
  (-0.0867063 0.0267938 0)
  (-0.0847928 0.0284237 0)
  (-0.0824868 0.0298004 0)
  (-0.0800368 0.0309607 0)
  (-0.0777144 0.0320117 0)
  (-0.0758383 0.033123 0)
  (-0.0747687 0.0344971 0)
  (-0.0747851 0.036373 0)
  (-0.0758075 0.039324 0)
  (-0.0772831 0.0450309 0)
  (-0.078309 0.0566577 0)
  (-0.0769483 0.076296 0)
  (-0.0722586 0.0942656 0)
  (-0.0725008 0.077471 0)
  (-0.0459046 -0.148787 0)
  (0.0145524 0.0335085 0)
  (0.00257867 -0.0196478 0)
  (-0.00853121 -0.0523211 0)
  (-0.042001 -0.0584341 0)
  (-0.0787344 -0.0570995 0)
  (-0.108066 -0.0545165 0)
  (-0.126153 -0.0539936 0)
  (-0.133605 -0.056366 0)
  (-0.136219 -0.0588648 0)
  (-0.135713 -0.0612667 0)
  (-0.133517 -0.0623951 0)
  (-0.13022 -0.0624343 0)
  (-0.126176 -0.0620493 0)
  (-0.121782 -0.0621306 0)
  (-0.117629 -0.0634187 0)
  (-0.11434 -0.0661829 0)
  (-0.112176 -0.0700039 0)
  (-0.110939 -0.0742037 0)
  (-0.110176 -0.0781726 0)
  (-0.1094 -0.0815879 0)
  (-0.108247 -0.0844111 0)
  (-0.106519 -0.086739 0)
  (-0.104145 -0.08877 0)
  (-0.10116 -0.0907743 0)
  (-0.0976762 -0.0930238 0)
  (-0.0938606 -0.0957287 0)
  (-0.0899188 -0.0989861 0)
  (-0.0860661 -0.102702 0)
  (-0.0824785 -0.106455 0)
  (-0.0792024 -0.109303 0)
  (-0.0759572 -0.109609 0)
  (-0.0717044 -0.105125 0)
  (-0.0640455 -0.0936017 0)
  (-0.0494158 -0.0741602 0)
  (-0.0261477 -0.0500942 0)
  (0.0109666 -0.0425331 0)
  (0.0653068 -0.121767 0)
  (-0.00432224 -0.196708 0)
  (-0.0590505 -0.229133 0)
  (-0.265745 -0.0280077 0)
  (-0.227695 0.193722 0)
  (-0.210779 0.192722 0)
  (-0.205098 0.194231 0)
  (-0.2064 0.197185 0)
  (-0.207581 0.20429 0)
  (-0.204818 0.213837 0)
  (-0.198802 0.224834 0)
  (-0.191364 0.234377 0)
  (-0.1842 0.241522 0)
  (-0.177933 0.246397 0)
  (-0.172527 0.249342 0)
  (-0.167475 0.251262 0)
  (-0.162309 0.253189 0)
  (-0.156814 0.256005 0)
  (-0.151097 0.260249 0)
  (-0.145474 0.26598 0)
  (-0.140223 0.272775 0)
  (-0.135439 0.279999 0)
  (-0.131044 0.287074 0)
  (-0.126867 0.293655 0)
  (-0.122733 0.299646 0)
  (-0.118498 0.305126 0)
  (-0.114062 0.310298 0)
  (-0.109389 0.315433 0)
  (-0.104503 0.320802 0)
  (-0.0994717 0.326654 0)
  (-0.0943753 0.333187 0)
  (-0.0892658 0.340515 0)
  (-0.084117 0.348551 0)
  (-0.0787422 0.356854 0)
  (-0.0726307 0.364498 0)
  (-0.0647514 0.370171 0)
  (-0.0537003 0.37288 0)
  (-0.0386637 0.373662 0)
  (-0.0202631 0.378112 0)
  (0.0104204 0.387211 0)
  (0.0579926 0.446085 0)
  (-0.150101 0.512659 0)
)
;

boundaryField
{
  floor
  {
    type noSlip;
  }
  ceiling
  {
    type noSlip;
  }
  sWall
  {
    type noSlip;
  }
  nWall
  {
    type noSlip;
  }
  sideWalls
  {
    type empty;
  }
  glass1
  {
    type noSlip;
  }
  glass2
  {
    type noSlip;
  }
  sun
  {
    type noSlip;
  }
  heatsource1
  {
    type noSlip;
  }
  heatsource2
  {
    type noSlip;
  }
  Table_master
  {
    type noSlip;
  }
  Table_slave
  {
    type noSlip;
  }
  inlet
  {
    type fixedValue;
    value uniform (0.277164 -0.114805 0);
  }
  outlet
  {
    type zeroGradient;
  }
} 	// ************************************************************************* //

