/*--------------------------------*- C++ -*----------------------------------*\
  =========                 |
  \\      /  F ield         | OpenFOAM: The Open Source CFD Toolbox
   \\    /   O peration     | Website:  https://openfoam.org
    \\  /    A nd           | Version:  6
     \\/     M anipulation  |
\*---------------------------------------------------------------------------*/
FoamFile
{
    version     2.0;
    format      ascii;
    class       volScalarField;
    location    "550";
    object      epsilon;
}
// * * * * * * * * * * * * * * * * * * * * * * * * * * * * * * * * * * * * * //

dimensions      [0 2 -3 0 0 0 0];

internalField   nonuniform List<scalar> 
459
(
0.000263417
0.000339216
0.000356364
0.000410153
0.000464522
0.000519567
0.000577464
0.000642294
0.000697685
0.000733942
0.000740043
0.000707054
0.000630368
0.000510986
0.000367704
7.42012e-05
0.000175026
0.000151052
0.000128495
0.000110952
9.55723e-05
7.95693e-05
6.56072e-05
5.43622e-05
4.54617e-05
3.84241e-05
3.27686e-05
2.81431e-05
2.4272e-05
2.09231e-05
1.787e-05
1.50859e-05
1.18313e-05
1.53835e-05
0.000683379
0.0010145
0.000315319
0.000302897
0.00031418
0.000333681
0.000363704
0.000408062
0.000456668
0.000497293
0.000516449
0.000504985
0.00046135
0.000394006
0.000330332
0.000422272
7.8046e-05
0.000186638
0.000380607
0.000194529
0.000134498
0.000103579
8.47192e-05
7.70185e-05
6.32158e-05
5.09809e-05
4.11327e-05
3.34178e-05
2.74012e-05
2.26885e-05
1.90284e-05
1.6493e-05
1.54202e-05
1.95636e-05
2.16913e-05
3.04744e-05
0.00126954
0.00254258
0.00039164
0.000283164
0.000289109
0.000316226
0.000359508
0.00041961
0.000486101
0.000541325
0.000571799
0.000570991
0.00053836
0.000480741
0.000415457
0.000365789
0.000391281
0.000355343
0.000258776
0.000183255
0.00013945
0.00011118
9.79057e-05
0.00019987
0.000136206
9.68103e-05
7.16053e-05
5.48915e-05
4.34406e-05
3.53878e-05
2.96772e-05
2.58012e-05
2.05055e-05
2.18487e-05
2.97443e-05
3.99395e-05
0.00208781
0.00530502
0.000620781
0.000281145
0.000273131
0.000307792
0.000366613
0.000452745
0.000540558
0.000604601
0.000638153
0.000640018
0.000609461
0.000550176
0.00047766
0.000411036
0.000372878
0.000777063
0.000457659
0.000288825
0.000201941
0.000151594
0.000121011
0.000110145
0.000268236
0.000205187
0.000170616
0.000149824
0.000135435
0.000123034
0.000109497
9.66861e-05
8.27751e-05
5.04179e-05
3.59787e-05
5.12509e-05
5.68017e-05
0.00322224
0.00947378
0.00121138
0.000319104
0.000263097
0.000301163
0.000388406
0.000535968
0.000647925
0.000710456
0.000736545
0.000730531
0.00068817
0.000612262
0.000516436
0.000420157
0.000339526
0.000306191
0.000261032
0.000217821
0.000180422
0.000150334
0.00012794
0.000113761
0.000115048
0.000111072
0.000107021
0.000102913
9.80251e-05
9.15529e-05
8.29892e-05
7.35997e-05
6.46059e-05
5.32614e-05
4.26069e-05
5.54904e-05
6.03025e-05
8.30247e-05
7.87279e-05
6.86531e-05
0.00480098
0.0140969
0.00270219
0.000558133
0.000334788
0.000348376
0.00049804
0.000742169
0.000848337
0.000885417
0.000889031
0.000866034
0.000807182
0.000706981
0.00057868
0.000450223
0.000348008
0.000285118
0.000245279
0.000213987
0.000187249
0.000165091
0.000148332
0.000137599
0.00013414
0.00013429
0.000134616
0.000132891
0.000128211
0.000120356
0.000109344
9.484e-05
8.01005e-05
6.68018e-05
5.52768e-05
5.52363e-05
6.23908e-05
6.94811e-05
0.000172969
0.000131273
0.00674516
0.0169619
0.00591208
0.00184981
0.00102839
0.000854545
0.00106627
0.00118059
0.00118958
0.00115788
0.00111819
0.00106726
0.000982211
0.000848896
0.000681976
0.000518771
0.000393079
0.000316564
0.000272961
0.000243633
0.000221195
0.000204545
0.000194068
0.000189796
0.00019109
0.000194697
0.000196086
0.000192532
0.000183684
0.000171175
0.000157325
0.000143098
0.000124846
0.000109125
9.79781e-05
9.23686e-05
9.40279e-05
0.000101769
0.000275517
0.000215387
0.00730153
0.020714
0.0107062
0.00643919
0.00410075
0.00295725
0.00238133
0.00198971
0.00172181
0.00154908
0.00144153
0.00135277
0.0012308
0.00104933
0.000829356
0.000624076
0.000473081
0.000387126
0.000342665
0.000317659
0.00030293
0.000295407
0.0002944
0.000298486
0.000305139
0.000310171
0.000308488
0.000296679
0.00027517
0.00024954
0.000228755
0.000219401
0.00022152
0.000226538
0.00024951
0.000287871
0.000350777
0.000429627
0.00159623
0.000425303
0.00683506
0.0118706
0.00981075
0.00728032
0.00538652
0.00410162
0.00320597
0.00259484
0.00220544
0.00198526
0.00186462
0.00175736
0.00158718
0.00133017
0.00103454
0.000789207
0.00062907
0.000559543
0.000531158
0.00052064
0.000518496
0.000522112
0.000531078
0.000543284
0.000554822
0.000559509
0.000549423
0.000517716
0.000463278
0.000395867
0.00033595
0.000302167
0.000301809
0.000332064
0.000390448
0.000483917
0.000614792
0.000781099
0.00096343
0.000523912
0.00460612
0.0061843
0.00486435
0.00392665
0.00328336
0.00287965
0.00267924
0.00261071
0.00257299
0.00246003
0.00220418
0.00182982
0.00145221
0.00124958
0.00115787
0.00113435
0.00114021
0.00115383
0.00116487
0.00117454
0.00118815
0.0012054
0.0012222
0.00122924
0.00121107
0.00114863
0.00102763
0.000853294
0.000665501
0.000520065
0.000432085
0.000395788
0.000413943
0.000484227
0.000597037
0.000729467
0.000885056
0.000887252
0.00293025
0.00431079
0.00391556
0.00375625
0.00394453
0.00415163
0.00439167
0.00464234
0.00480725
0.00476297
0.00443726
0.00396802
0.00350311
0.00322374
0.00309733
0.00306717
0.00307978
0.00309842
0.00310313
0.00310092
0.0031107
0.00313913
0.00318698
0.00324371
0.00328038
0.0032482
0.00309216
0.002786
0.00237566
0.00192917
0.00150926
0.00116747
0.000928799
0.000795097
0.000742036
0.000749415
0.00187384
0.00130373
0.00118756
0.00153636
0.00197635
0.00211342
0.00175847
0.0016984
0.00171308
0.00185538
0.00205156
0.00224182
0.0023821
0.00242799
0.00235902
0.00222077
0.00209825
0.00200228
0.00193953
0.00189923
0.00186883
0.00184129
0.00181929
0.001805
0.00179536
0.00178912
0.00178076
0.00175996
0.00171329
0.0016298
0.00151023
0.00137496
0.00123847
0.00111072
0.00100094
0.000913122
0.000849784
0.000808941
0.000780302
0.000748325
0.000822833
0.000751025
)
;

boundaryField
{
    floor
    {
        Cmu             0.09;
        kappa           0.41;
        E               9.8;
        type            epsilonWallFunction;
        value           nonuniform List<scalar> 
29
(
0.000367704
7.42012e-05
0.000175026
0.000151052
0.000128495
0.000110952
9.55723e-05
7.95693e-05
6.56072e-05
5.43622e-05
4.54617e-05
3.84241e-05
3.27686e-05
2.81431e-05
2.4272e-05
2.09231e-05
1.787e-05
1.50859e-05
1.18313e-05
1.53835e-05
1.53835e-05
3.04744e-05
3.99395e-05
5.68017e-05
0.000367704
7.42012e-05
0.000186638
0.000355343
0.000777063
)
;
    }
    ceiling
    {
        Cmu             0.09;
        kappa           0.41;
        E               9.8;
        type            epsilonWallFunction;
        value           nonuniform List<scalar> 
43
(
0.00118756
0.00153636
0.00197635
0.00211342
0.00175847
0.0016984
0.00171308
0.00185538
0.00205156
0.00224182
0.0023821
0.00242799
0.00235902
0.00222077
0.00209825
0.00200228
0.00193953
0.00189923
0.00186883
0.00184129
0.00181929
0.001805
0.00179536
0.00178912
0.00178076
0.00175996
0.00171329
0.0016298
0.00151023
0.00137496
0.00123847
0.00111072
0.00100094
0.000913122
0.000849784
0.000808941
0.000780302
0.000748325
0.000822833
0.000751025
0.00683506
0.0118706
0.00293025
)
;
    }
    sWall
    {
        Cmu             0.09;
        kappa           0.41;
        E               9.8;
        type            epsilonWallFunction;
        value           uniform 0.00118756;
    }
    nWall
    {
        Cmu             0.09;
        kappa           0.41;
        E               9.8;
        type            epsilonWallFunction;
        value           nonuniform List<scalar> 6(6.86531e-05 0.000131273 0.000215387 0.000887252 0.00130373 0.000751025);
    }
    sideWalls
    {
        type            empty;
    }
    glass1
    {
        Cmu             0.09;
        kappa           0.41;
        E               9.8;
        type            epsilonWallFunction;
        value           nonuniform List<scalar> 9(0.000263417 0.000683379 0.00126954 0.00208781 0.00322224 0.00480098 0.00674516 0.00730153 0.00683506);
    }
    glass2
    {
        Cmu             0.09;
        kappa           0.41;
        E               9.8;
        type            epsilonWallFunction;
        value           nonuniform List<scalar> 2(0.000425303 0.000523912);
    }
    sun
    {
        Cmu             0.09;
        kappa           0.41;
        E               9.8;
        type            epsilonWallFunction;
        value           nonuniform List<scalar> 
14
(
0.000263417
0.000339216
0.000356364
0.000410153
0.000464522
0.000519567
0.000577464
0.000642294
0.000697685
0.000733942
0.000740043
0.000707054
0.000630368
0.000510986
)
;
    }
    heatsource1
    {
        Cmu             0.09;
        kappa           0.41;
        E               9.8;
        type            epsilonWallFunction;
        value           nonuniform List<scalar> 3(8.30247e-05 7.87279e-05 6.86531e-05);
    }
    heatsource2
    {
        Cmu             0.09;
        kappa           0.41;
        E               9.8;
        type            epsilonWallFunction;
        value           nonuniform List<scalar> 4(0.000422272 7.8046e-05 7.8046e-05 0.000391281);
    }
    Table_master
    {
        Cmu             0.09;
        kappa           0.41;
        E               9.8;
        type            epsilonWallFunction;
        value           nonuniform List<scalar> 9(0.00019987 0.000136206 9.68103e-05 7.16053e-05 5.48915e-05 4.34406e-05 3.53878e-05 2.96772e-05 2.58012e-05);
    }
    Table_slave
    {
        Cmu             0.09;
        kappa           0.41;
        E               9.8;
        type            epsilonWallFunction;
        value           nonuniform List<scalar> 9(0.000268236 0.000205187 0.000170616 0.000149824 0.000135435 0.000123034 0.000109497 9.66861e-05 8.27751e-05);
    }
    inlet
    {
        type            turbulentMixingLengthDissipationRateInlet;
        mixingLength    0.01;
        phi             phi;
        k               k;
        value           uniform 3.01869e-05;
    }
    outlet
    {
        type            zeroGradient;
    }
}


// ************************************************************************* //
