/*--------------------------------*- C++ -*----------------------------------*\
  =========                 |
  \\      /  F ield         | OpenFOAM: The Open Source CFD Toolbox
   \\    /   O peration     | Website:  https://openfoam.org
    \\  /    A nd           | Version:  6
     \\/     M anipulation  |
\*---------------------------------------------------------------------------*/
FoamFile
{
    version     2.0;
    format      ascii;
    class       surfaceScalarField;
    location    "550";
    object      phi;
}
// * * * * * * * * * * * * * * * * * * * * * * * * * * * * * * * * * * * * * //

dimensions      [1 0 -1 0 0 0 0];

internalField   nonuniform List<scalar> 
852
(
-0.00249541
0.00253847
-0.00333191
0.000836488
-0.00400007
0.000668162
-0.00454295
0.000542874
-0.00492918
0.000386222
-0.00513552
0.000206337
-0.00513803
2.5096e-06
-0.00491242
-0.000225608
-0.00445379
-0.000458635
-0.00379355
-0.000660243
-0.00299442
-0.000799138
-0.00213517
-0.000859253
-0.00130058
-0.000834597
-0.000580403
-0.000720176
-0.000583813
0.000150082
-0.000155006
0.000417549
-0.00026747
0.000805317
-0.000387771
0.00113657
-0.000331255
0.00138502
-0.000248459
0.00155542
-0.000170397
0.00164191
-8.64941e-05
0.0016719
-3.00004e-05
0.00167988
-7.98338e-06
0.00167805
1.82851e-06
0.0016685
9.54167e-06
0.00165032
1.81746e-05
0.00161813
3.21871e-05
0.00155702
6.11098e-05
0.00143192
0.000125093
0.00118217
0.000249745
0.000752774
0.000429393
3.68971e-05
0.000715872
3.01791e-05
-0.00181024
0.00446528
-0.00265454
0.00168078
-0.00335766
0.00137128
-0.00389923
0.00108444
-0.00428232
0.000769304
-0.00449468
0.000418697
-0.00451154
1.93644e-05
-0.00430927
-0.000427882
-0.00389051
-0.000877395
-0.00329863
-0.00125213
-0.00260525
-0.00149252
-0.00189382
-0.00157068
-0.00124616
-0.00148226
-0.00072503
-0.00124131
-0.000440394
-0.000868452
-4.63852e-05
-0.000394063
-4.64395e-05
-2.32991e-05
-0.000143852
0.000685078
-0.000975851
0.00103946
-0.000742157
0.00129397
-0.000585764
0.00148853
-0.000443028
0.00161932
-0.000301193
0.00164873
-0.000115904
0.00165686
-3.81345e-05
0.00166453
-1.56614e-05
0.00167065
-4.29131e-06
0.00167441
5.77109e-06
0.00167575
1.68312e-05
0.00167353
3.44001e-05
0.00166282
7.18209e-05
0.00160808
0.000179826
0.00139518
0.000462638
0.00102832
0.000796252
0.000639827
0.00110436
0.000651753
-0.00129866
0.00594291
-0.00204744
0.00242955
-0.00268731
0.00201115
-0.00316294
0.00156007
-0.00350835
0.00111471
-0.00371049
0.000620835
-0.00373331
4.2177e-05
-0.00353523
-0.000625963
-0.00312959
-0.00128304
-0.00257912
-0.0018026
-0.00196076
-0.00211088
-0.00134649
-0.00218495
-0.000795782
-0.00203297
-0.000355963
-0.00168114
-4.90949e-05
-0.00117532
0.000126572
-0.000569734
8.01282e-05
0.000983554
-0.00114479
0.00107046
-0.00106276
0.00128574
-0.00095744
0.00144448
-0.000744506
0.00155723
-0.000555789
0.00167306
-0.000417023
0.0015573
0.00151931
0.0015038
0.00149965
0.00150557
0.00152255
0.00155709
0.00162906
0.00180903
0.00160189
0.000669779
0.00134799
0.00105014
0.000966252
0.0014861
0.00158913
-0.000936616
0.00711198
-0.0015507
0.00304362
-0.00199869
0.00245914
-0.00233576
0.00189714
-0.00259329
0.00137224
-0.00275143
0.000778971
-0.00275486
4.56003e-05
-0.00252973
-0.000851097
-0.00212518
-0.00168759
-0.00162764
-0.00230014
-0.00110778
-0.00263075
-0.000614964
-0.00267777
-0.000177406
-0.00247053
0.000200699
-0.00205924
0.00054051
-0.00151514
0.00091304
-0.000942268
0.00151119
-0.00051803
0.00207928
-0.000585262
0.00187584
-0.000941353
0.00171282
-0.000899745
0.00156483
-0.000809455
0.00149072
-0.0006704
0.00145986
-0.000524934
0.0014138
-0.000370964
0.0015939
-0.000180258
0.00171904
-0.000125295
0.00183134
-0.000112456
0.0019369
-0.000105712
0.00202847
-9.1732e-05
0.00208958
-6.1262e-05
0.00208949
-6.69621e-08
0.00198308
0.000106251
0.00170029
0.000282635
0.00169001
0.000680057
0.00158816
0.00115199
0.0013861
0.00168815
0.0029377
-0.000677332
0.00806755
-0.00115958
0.00352587
-0.00130042
0.00259998
-0.00143025
0.00202696
-0.00154198
0.00148397
-0.0016039
0.000840879
-0.00153512
-2.318e-05
-0.0012433
-0.00114292
-0.000859236
-0.00207166
-0.000462757
-0.00269662
-9.65098e-05
-0.00299699
0.000218516
-0.0029928
0.000480245
-0.00273227
0.000712245
-0.00229125
0.000949719
-0.00175262
0.00123001
-0.00122257
0.00154738
-0.000835403
0.00171622
-0.000754108
0.00155648
-0.000781609
0.00140568
-0.000748949
0.00126812
-0.000671906
0.00117048
-0.000572767
0.00111379
-0.000468246
0.00110343
-0.000360607
0.0011852
-0.000262038
0.00127881
-0.000218909
0.00137608
-0.000209725
0.00147581
-0.000205449
0.00157282
-0.000188748
0.00165731
-0.000145756
0.00171482
-5.75856e-05
0.00172821
9.28544e-05
0.00169788
0.000312961
0.00173804
0.000639882
0.00188807
0.00100195
0.00239169
0.00118452
0.00367073
0.00165866
0.00244678
0.00122374
0.00148983
0.000956745
0.00153017
-0.00059826
0.00898307
-0.000940043
0.00386765
-0.000645609
0.00230554
-0.000479051
0.0018604
-0.000389562
0.00139447
-0.000271226
0.000722538
-1.58393e-05
-0.000278572
0.000319371
-0.00147813
0.000619956
-0.00237224
0.000845489
-0.00292215
0.000989997
-0.0031415
0.00106842
-0.00307121
0.00110677
-0.00277062
0.00112987
-0.00231435
0.00116352
-0.00178627
0.00122422
-0.00128328
0.00129147
-0.000902651
0.00125608
-0.000718725
0.00111723
-0.000642759
0.000958618
-0.000590344
0.000816766
-0.000530059
0.000710707
-0.000466712
0.000649029
-0.000406573
0.000639717
-0.0003513
0.00068655
-0.000308877
0.000762897
-0.000295261
0.000852437
-0.000299271
0.000948767
-0.000301785
0.00104872
-0.000288707
0.00115099
-0.000248031
0.00125637
-0.000162974
0.0013565
-7.27888e-06
0.00144702
0.000222436
0.00158025
0.000506649
0.00178696
0.000795237
0.00200723
0.000964243
0.00230793
0.00135795
0.00202439
0.00150727
0.00123472
0.00174641
0.00280771
-0.000711925
0.010047
-0.00063572
0.00379144
0.000204211
0.00146561
0.000652749
0.00141185
0.000944813
0.0011024
0.0013238
0.000343543
0.00177408
-0.000728855
0.00206927
-0.00177333
0.00220382
-0.00250679
0.0021895
-0.00290783
0.00205963
-0.00301162
0.00185623
-0.00286782
0.00162152
-0.00253592
0.0013898
-0.00208264
0.00118516
-0.00158163
0.0010207
-0.00111883
0.000885283
-0.000767235
0.000734326
-0.000567773
0.000565805
-0.000474242
0.000400368
-0.000424912
0.000260163
-0.000389858
0.00015683
-0.000363384
9.58586e-05
-0.000345607
8.06006e-05
-0.000336047
0.000108117
-0.000336399
0.000162664
-0.000349814
0.000230794
-0.000367407
0.000306219
-0.000377215
0.000387561
-0.000370055
0.000478708
-0.000339185
0.000591269
-0.000275542
0.000741799
-0.000157815
0.000916861
4.73664e-05
0.00110821
0.000315291
0.00132229
0.000581156
0.00149113
0.000795393
0.00170865
0.00114043
0.00181726
0.00139866
0.00153751
0.00202616
0.00439018
0.00201023
0.00843003
0.00256004
0.00324162
0.00260671
0.00141894
0.00282192
0.00119664
0.00311956
0.000804754
0.00358062
-0.000117522
0.00395523
-0.00110347
0.00402625
-0.00184435
0.0038276
-0.00230813
0.00343923
-0.00251947
0.00293886
-0.00251125
0.00239335
-0.0023223
0.00185749
-0.00200006
0.00136896
-0.00159412
0.000947071
-0.00115974
0.000606348
-0.000778112
0.000339379
-0.000500272
0.000123433
-0.000351832
-6.13123e-05
-0.000289502
-0.000217571
-0.000268659
-0.000342136
-0.000265299
-0.00043467
-0.000270855
-0.000495893
-0.000284391
-0.000527074
-0.000304872
-0.000532029
-0.000331451
-0.000519565
-0.000362284
-0.000496787
-0.000390191
-0.000467957
-0.000406052
-0.000435974
-0.000402046
-0.000400498
-0.000374666
-0.000348895
-0.000327151
-0.000247266
-0.00025945
-6.1196e-05
-0.000138709
0.000173517
8.05719e-05
0.000408636
0.000346031
0.000593784
0.000610238
0.000812139
0.000922064
0.00101111
0.00119968
0.00059298
0.00244428
0.0051731
0.00883299
0.0120449
0.0103264
0.0031374
0.00922076
0.00230229
0.00848285
0.00154266
0.00784026
0.00052507
0.00704072
-0.000303931
0.00611433
-0.000917951
0.0051383
-0.0013321
0.00416253
-0.00154369
0.00322062
-0.00156934
0.00234304
-0.00144472
0.00156316
-0.00122019
0.000903332
-0.000934293
0.000362514
-0.000618933
-4.45028e-05
-0.000371102
-0.00033078
-0.000214001
-0.000533044
-0.000149574
-0.000687863
-0.00013469
-0.0008128
-0.000143727
-0.000916629
-0.000161476
-0.00100449
-0.000183001
-0.00107936
-0.000209525
-0.00114379
-0.000240453
-0.00120033
-0.000274915
-0.00125198
-0.000310639
-0.00130042
-0.000341758
-0.00134765
-0.000358822
-0.00140072
-0.000348982
-0.00147689
-0.000298506
-0.00159825
-0.000205796
-0.00177773
-7.9979e-05
-0.00201548
9.90326e-05
-0.00230485
0.000369941
-0.0027097
0.000750867
-0.00337173
0.00127227
-0.00442849
0.00197882
-0.00595636
0.00272755
-0.00627604
0.00276395
-0.000898491
0.00385996
0.00350704
0.0037579
0.00240437
0.00448656
0.000814017
0.00473812
0.00027353
0.00457154
-0.000137337
0.0041511
-0.000497498
0.00354113
-0.000722115
0.00280562
-0.000808177
0.00201156
-0.000775285
0.00122231
-0.000655473
0.000504771
-0.000502664
-9.08654e-05
-0.000338667
-0.00053043
-0.000179377
-0.00081118
-9.03593e-05
-0.00098801
-3.71772e-05
-0.001113
-2.45949e-05
-0.00121256
-3.51316e-05
-0.0013004
-5.5891e-05
-0.00138532
-7.65683e-05
-0.0014732
-9.51277e-05
-0.0015672
-0.000115523
-0.00167061
-0.000137051
-0.00178605
-0.000159485
-0.00191445
-0.000182248
-0.00205343
-0.000202785
-0.00219714
-0.000215115
-0.00233877
-0.000207358
-0.00247856
-0.00015872
-0.0026215
-6.28639e-05
-0.00276984
6.83605e-05
-0.00291202
0.0002412
-0.00303376
0.000491676
-0.00313418
0.000851283
-0.00320122
0.0013393
-0.00318895
0.00196654
-0.0029781
0.0025167
-0.0013147
0.00110055
-0.00216899
0.000526122
0.00296729
0.00196916
0.000961351
0.00240491
0.000378283
0.00247969
0.000198757
0.00230714
3.52203e-05
0.00195084
-0.000141194
0.00145783
-0.000229109
0.000883637
-0.000233994
0.000305478
-0.00019714
-0.00021212
-0.000137891
-0.000647161
-6.7634e-05
-0.000979487
-6.35119e-06
-0.00119184
3.29635e-05
-0.00133046
4.82611e-05
-0.00141586
4.82169e-05
-0.00147868
3.82162e-05
-0.00153778
2.39613e-05
-0.00160212
8.44521e-06
-0.00167185
-6.85248e-06
-0.00174612
-2.08567e-05
-0.00182834
-3.33135e-05
-0.00192169
-4.37081e-05
-0.00203063
-5.05465e-05
-0.00216076
-5.21259e-05
-0.00231665
-4.68989e-05
-0.00249807
-3.37029e-05
-0.00269343
-1.20042e-05
-0.00287274
2.05842e-05
-0.00300169
6.60744e-05
-0.00306785
0.00013452
-0.00306183
0.000235175
-0.00294414
0.00037398
-0.00266376
0.000570897
-0.00215473
0.000830261
-0.00122305
0.00103486
0.000337598
0.000956041
0.00141649
2.1655e-05
-0.000707884
-0.00359155
-0.00491647
-0.00197254
-0.00104397
-0.000704591
-0.000548002
-0.000557588
-0.000745261
-0.00102189
-0.0013041
-0.00155008
-0.00173762
-0.00185602
-0.00191446
-0.00193469
-0.0019405
-0.00194694
-0.00196376
-0.00199513
-0.00204227
-0.0021049
-0.00218167
-0.00227099
-0.00237077
-0.00247746
-0.00258592
-0.00268956
-0.0027808
-0.00285154
-0.0028912
-0.00288711
-0.00281642
-0.0026469
-0.00234025
-0.00183804
-0.00107747
-0.000113126
0.000771502
0.000723449
)
;

boundaryField
{
    floor
    {
        type            calculated;
        value           nonuniform List<scalar> 
29
(
0
0
0
0
0
0
0
0
0
0
0
0
0
0
0
0
0
0
0
0
6.71565e-06
1.82487e-05
2.88694e-05
3.75297e-05
3.40758e-06
4.92056e-06
1.21419e-05
1.73842e-05
1.71704e-05
)
;
    }
    ceiling
    {
        type            calculated;
        value           nonuniform List<scalar> 
43
(
2.8324e-05
2.50737e-05
2.33641e-05
3.27839e-05
3.88981e-05
4.21535e-05
4.47839e-05
4.64563e-05
4.74962e-05
4.82038e-05
4.88293e-05
4.96312e-05
5.07564e-05
5.20779e-05
5.31916e-05
5.40626e-05
5.46493e-05
5.50343e-05
5.53217e-05
5.55747e-05
5.57759e-05
5.59088e-05
5.59997e-05
5.60604e-05
5.61386e-05
5.63244e-05
5.67431e-05
5.75233e-05
5.87293e-05
6.02448e-05
6.19746e-05
6.38267e-05
6.56518e-05
6.73178e-05
6.86805e-05
6.96857e-05
7.0509e-05
7.14069e-05
6.97025e-05
7.19382e-05
3.633e-05
2.97336e-05
1.3641e-05
)
;
    }
    sWall
    {
        type            calculated;
        value           uniform -0.000219993;
    }
    nWall
    {
        type            calculated;
        value           nonuniform List<scalar> 6(-4.05517e-05 -4.28257e-05 -4.49689e-05 -4.42094e-05 -4.46202e-05 -5.63796e-05);
    }
    sideWalls
    {
        type            empty;
        value           nonuniform 0();
    }
    glass1
    {
        type            calculated;
        value           nonuniform List<scalar> 9(-4.30563e-05 -0.000116577 -0.00017897 -0.000232452 -0.000278241 -0.000317269 -0.000352013 -0.000393252 -0.0004393);
    }
    glass2
    {
        type            calculated;
        value           nonuniform List<scalar> 2(-0.000189939 -0.000204455);
    }
    sun
    {
        type            calculated;
        value           uniform 0;
    }
    heatsource1
    {
        type            calculated;
        value           nonuniform List<scalar> 3(2.00254e-07 2.00787e-07 2.01192e-07);
    }
    heatsource2
    {
        type            calculated;
        value           nonuniform List<scalar> 4(5.0383e-08 5.04829e-08 0 0);
    }
    Table_master
    {
        type            calculated;
        value           nonuniform List<scalar> 9(-1.50759e-07 -1.50848e-07 -1.50873e-07 -1.50887e-07 -1.50895e-07 -1.50896e-07 -1.50891e-07 -1.50874e-07 -1.50822e-07);
    }
    Table_slave
    {
        type            calculated;
        value           nonuniform List<scalar> 9(1.50688e-07 1.50702e-07 1.50667e-07 1.50632e-07 1.50601e-07 1.50582e-07 1.50584e-07 1.5059e-07 1.50636e-07);
    }
    inlet
    {
        type            calculated;
        value           uniform -0.00422959;
    }
    outlet
    {
        type            calculated;
        value           nonuniform List<scalar> 2(0.00378322 0.00129985);
    }
}


// ************************************************************************* //
