/*--------------------------------*- C++ -*----------------------------------*\
  =========                 |
  \\      /  F ield         | OpenFOAM: The Open Source CFD Toolbox
   \\    /   O peration     | Website:  https://openfoam.org
    \\  /    A nd           | Version:  6
     \\/     M anipulation  |
\*---------------------------------------------------------------------------*/
FoamFile
{
    version     2.0;
    format      ascii;
    class       surfaceScalarField;
    location    "700";
    object      phi;
}
// * * * * * * * * * * * * * * * * * * * * * * * * * * * * * * * * * * * * * //

dimensions      [1 0 -1 0 0 0 0];

internalField   nonuniform List<scalar> 
852
(
-0.00236031
0.00242354
-0.00240392
4.36705e-05
-0.00244373
3.98825e-05
-0.00255143
0.000107787
-0.0026708
0.000119466
-0.00277164
0.000100937
-0.00283514
6.36205e-05
-0.0028454
1.03783e-05
-0.00278596
-5.93213e-05
-0.00263859
-0.000147243
-0.002387
-0.000251454
-0.00201935
-0.000367528
-0.00152049
-0.000498727
-0.000849319
-0.000671048
-0.000846951
-0.000878768
0.00088409
-0.00110109
0.000222242
-0.00116638
6.52641e-05
-0.00114579
-2.0569e-05
-0.00108024
-6.55148e-05
-0.000993888
-8.63045e-05
-0.000862128
-0.000131699
-0.00068035
-0.000181709
-0.000495284
-0.000184984
-0.000359245
-0.000135945
-0.000308879
-5.02639e-05
-0.000340022
3.12532e-05
-0.000405215
6.53033e-05
-0.000433314
2.82139e-05
-0.000344346
-8.88155e-05
-0.000103661
-0.000240463
0.000279409
-0.000382807
0.000529139
-0.00024948
0.000533178
-0.00169552
0.00427954
-0.00214711
0.000495354
-0.00236807
0.000260947
-0.00253299
0.000272821
-0.00267797
0.000264568
-0.00279533
0.000218427
-0.00287427
0.000142702
-0.00290368
3.99402e-05
-0.00287245
-9.0408e-05
-0.00276877
-0.000250771
-0.00257835
-0.000441728
-0.00228603
-0.000659703
-0.00188279
-0.000901825
-0.0014011
-0.0011526
-0.00091309
-0.00133484
0.000258839
-0.00117187
0.000258863
-0.000333019
0.0012299
-0.000496433
0.000385568
-0.000592354
0.000161136
-0.000641379
2.84337e-05
-0.000667565
-3.9302e-05
-0.000754482
6.44561e-07
-0.000769137
-0.00011699
-0.00073049
-0.000220275
-0.00070091
-0.000214436
-0.00069172
-0.000144968
-0.000694877
-4.69303e-05
-0.000695981
3.25314e-05
-0.000691157
6.06582e-05
-0.000693523
3.08025e-05
-0.000673338
-0.000108686
-0.000582819
-0.000330586
-0.000591404
-0.000373827
-0.000573474
-0.000267097
-2.98712e-05
-0.00124218
0.00575701
-0.00185475
0.00110804
-0.00216721
0.000573518
-0.00237668
0.000482415
-0.00254399
0.000432022
-0.00267785
0.00035243
-0.00277666
0.000241662
-0.00283549
9.89243e-05
-0.00284887
-7.68637e-05
-0.00281253
-0.000286952
-0.00272206
-0.000532043
-0.00257457
-0.000807034
-0.0023744
-0.00110184
-0.00214013
-0.00138672
-0.0018912
-0.00158364
-0.0015054
-0.00155756
-0.00124645
-0.000377052
0.00162369
-0.000605034
0.000613542
-0.000692841
0.000249001
-0.000706262
4.19754e-05
-0.000642864
-0.000102518
-0.000362213
-0.000279806
-0.000479055
-0.000699119
-0.000913215
-0.00105776
-0.00110425
-0.00107128
-0.00101014
-0.000978758
-0.00108675
-0.00082625
-0.000590487
-0.000771493
-0.000427977
-0.000642736
-0.00039526
-0.000663046
-0.000911561
0.00696434
-0.00157606
0.00177265
-0.00190346
0.000901054
-0.00213367
0.000712756
-0.00230383
0.000602326
-0.00243335
0.000482101
-0.00253185
0.000340319
-0.00260292
0.000170148
-0.00264736
-3.22613e-05
-0.00266896
-0.000265185
-0.00267761
-0.000523231
-0.002686
-0.000798481
-0.00271218
-0.0010755
-0.002779
-0.00131974
-0.00289311
-0.00146938
-0.00301434
-0.0014362
-0.00323588
-0.00102481
-0.00289884
-0.000324136
-0.00192325
0.000648136
-0.00196139
0.000651808
-0.00209017
0.000377948
-0.00221089
0.000162892
-0.00228934
-2.38612e-05
-0.00242026
-0.000148662
-0.0022648
-0.000155365
-0.00208513
-0.000179549
-0.00188203
-0.000202958
-0.00166993
-0.000211926
-0.00146538
-0.000204324
-0.00128375
-0.000181361
-0.00113109
-0.00015231
-0.000985631
-0.00014502
-0.000761577
-0.000223556
-0.000895447
-0.000455976
-0.000728397
-0.000594409
-0.000340882
-0.000782197
-0.000994604
-0.000668414
0.00797994
-0.0013458
0.00245016
-0.00160024
0.00115563
-0.00181166
0.000924322
-0.00196417
0.000754985
-0.00205987
0.000577957
-0.00211842
0.000399025
-0.00215644
0.000208329
-0.00218383
-4.70572e-06
-0.00221156
-0.000237298
-0.00225865
-0.000475969
-0.00234318
-0.000713791
-0.00247928
-0.000939227
-0.00267228
-0.00112657
-0.00291088
-0.00123062
-0.00316533
-0.00118158
-0.00330275
-0.000887218
-0.00325032
-0.000376399
-0.00277082
0.000168802
-0.00243965
0.000320826
-0.00230539
0.000243902
-0.00225682
0.000114558
-0.0022491
-3.13232e-05
-0.00225197
-0.000145501
-0.00219534
-0.000211693
-0.00211349
-0.000261056
-0.00202108
-0.000295002
-0.00192499
-0.000307602
-0.00183334
-0.000295515
-0.00175165
-0.000262545
-0.00167641
-0.000227013
-0.00159113
-0.000229728
-0.0014869
-0.000327216
-0.00140084
-0.000541498
-0.00115693
-0.000837824
-0.000686039
-0.00125264
-4.09037e-06
-0.00167613
0.00139656
-0.00140039
0.00118662
0.000210485
0.00122892
-0.000629475
0.0090017
-0.00125052
0.00307133
-0.00121428
0.00111954
-0.00131713
0.00102732
-0.00147912
0.000917137
-0.00154636
0.000645359
-0.00154073
0.000393568
-0.00150662
0.00017438
-0.00147209
-3.90619e-05
-0.00145977
-0.000249458
-0.00149207
-0.000443504
-0.00158527
-0.000620431
-0.00174494
-0.000779384
-0.00196373
-0.000907622
-0.00222013
-0.000974051
-0.00247199
-0.000929541
-0.0026288
-0.000730224
-0.0026062
-0.000398805
-0.00236258
-7.46027e-05
-0.00211767
7.61331e-05
-0.00195691
8.33728e-05
-0.00186658
2.44717e-05
-0.00183298
-6.46655e-05
-0.00182916
-0.000149035
-0.00182677
-0.000213772
-0.00182397
-0.000263521
-0.00182348
-0.000295126
-0.00182804
-0.000302642
-0.00184066
-0.00028246
-0.00186299
-0.000239753
-0.001893
-0.000196525
-0.00192616
-0.000196084
-0.00196181
-0.000291108
-0.00198602
-0.000516855
-0.00192955
-0.000893902
-0.00173145
-0.00145039
-0.00127064
-0.00213661
-5.6848e-05
-0.00261388
0.00119695
-0.00104278
0.00247022
-0.000856936
0.0102926
-0.000894696
0.00310922
-0.000297038
0.000522029
-0.000252105
0.000982555
-0.000547558
0.00121277
-0.00068996
0.000787939
-0.000667105
0.000370891
-0.000580358
8.78101e-05
-0.000494156
-0.000125086
-0.000447929
-0.000295514
-0.000461283
-0.000429985
-0.000547979
-0.000533573
-0.000708413
-0.00061879
-0.000928156
-0.000687718
-0.00117788
-0.000724159
-0.00141201
-0.000695249
-0.00156878
-0.000573279
-0.00159134
-0.000376049
-0.00148755
-0.000178194
-0.00134893
-6.22665e-05
-0.00123481
-3.05081e-05
-0.0011628
-4.72925e-05
-0.00113745
-8.97755e-05
-0.00114659
-0.000139636
-0.00117526
-0.000184833
-0.00121758
-0.000220896
-0.00127115
-0.000241221
-0.00133549
-0.000237947
-0.0014125
-0.000205056
-0.00150785
-0.000144004
-0.00163217
-7.17885e-05
-0.00180015
-2.76975e-05
-0.00202532
-6.55505e-05
-0.00230625
-0.000235556
-0.00261937
-0.000580442
-0.0029363
-0.00113315
-0.00318913
-0.0018835
-0.00315493
-0.00264784
-0.00153829
-0.00265924
0.000983618
0.00185175
0.00892808
0.00258444
0.00237663
0.00259903
0.000507567
0.00202584
0.0015559
0.00146516
0.00177361
0.00115088
0.0011024
0.000993392
0.000528561
0.000916969
0.000164416
0.000886604
-9.454e-05
0.000863291
-0.000272027
0.000804628
-0.000371155
0.000694276
-0.000423058
0.000527796
-0.000452149
0.000311234
-0.000470998
6.57586e-05
-0.000478524
-0.000167119
-0.000462208
-0.000336863
-0.000403368
-0.000409218
-0.000303519
-0.000391927
-0.000195301
-0.000334246
-0.000119754
-0.00027904
-8.55124e-05
-0.000245204
-8.09207e-05
-0.000239551
-9.52151e-05
-0.000260195
-0.000118769
-0.00030113
-0.000143662
-0.000357518
-0.000164253
-0.000424528
-0.000173933
-0.000497087
-0.000165085
-0.000571006
-0.000130809
-0.000646265
-6.83961e-05
-0.000735223
1.75319e-05
-0.00088037
0.000117816
-0.00115403
0.000208469
-0.00162106
0.000231831
-0.0023008
9.96247e-05
-0.00320631
-0.000227333
-0.00445484
-0.000634702
-0.00607691
-0.00102553
-0.00633889
-0.00239704
-0.00514443
0.00946697
0.011836
0.00940182
0.00294185
0.00637687
0.00458099
0.00496816
0.00318248
0.00412475
0.00194596
0.00354686
0.00110661
0.00313492
0.000576521
0.00280303
0.000237513
0.00251744
1.37187e-05
0.00227367
-0.00012722
0.00205608
-0.0002053
0.00184447
-0.000240379
0.0016254
-0.000251763
0.00139949
-0.000252455
0.00118283
-0.000245394
0.00100433
-0.000224695
0.000887663
-0.000186688
0.000832886
-0.000140353
0.000815821
-0.000102512
0.000811044
-8.05557e-05
0.000803184
-7.28768e-05
0.000784045
-7.58884e-05
0.000750846
-8.53762e-05
0.000704393
-9.70087e-05
0.00064704
-0.000106689
0.00058301
-0.000109678
0.000518723
-0.000100557
0.000462336
-7.41618e-05
0.000421754
-2.75346e-05
0.000400574
3.9008e-05
0.000398566
0.000120137
0.000415874
0.000191485
0.000446945
0.000201088
0.000461491
8.54024e-05
0.000426614
-0.000192152
0.000386192
-0.000593997
0.000454117
-0.00109319
0.000238828
-0.00218151
-0.00467293
-0.00128717
0.00304129
0.000950226
0.00234377
0.00249508
0.00163777
0.00312886
0.00131233
0.0033513
0.000884325
0.00341609
0.00051188
0.00339867
0.000255099
0.00332279
8.97531e-05
0.00321235
-1.66196e-05
0.0030837
-7.64882e-05
0.00294471
-0.000101225
0.00279803
-0.000104913
0.00264534
-9.96067e-05
0.00248958
-8.94637e-05
0.00234118
-7.61362e-05
0.00221421
-5.95465e-05
0.0021159
-4.18833e-05
0.00204202
-2.8465e-05
0.00198372
-2.20861e-05
0.00193314
-2.21318e-05
0.00188429
-2.68636e-05
0.00183328
-3.41959e-05
0.00177833
-4.18814e-05
0.00171945
-4.76316e-05
0.00165885
-4.88858e-05
0.00160131
-4.28263e-05
0.00155411
-2.67552e-05
0.00152541
1.37202e-06
0.00152379
4.08597e-05
0.00155753
8.66459e-05
0.00163095
0.000118323
0.00173493
9.7382e-05
0.00183645
-1.58503e-05
0.00189511
-0.000250548
0.00191018
-0.000608804
0.00192317
-0.00110593
0.00167866
-0.00193678
-0.00294259
-0.000614535
0.00364217
0.00127249
0.000456929
0.0022275
0.000682944
0.00292013
0.000619866
0.0034101
0.000394525
0.00369893
0.000223218
0.00384323
0.000110973
0.00389697
3.61783e-05
0.00388986
-9.34593e-06
0.00384011
-2.65641e-05
0.00376706
-2.80031e-05
0.0036811
-1.87882e-05
0.00358576
-4.1061e-06
0.00348319
1.32751e-05
0.00337758
2.96449e-05
0.00327571
4.24839e-05
0.00318395
5.00359e-05
0.00310433
5.13162e-05
0.00303531
4.70942e-05
0.00297397
3.93693e-05
0.00291711
3.01474e-05
0.0028621
2.09788e-05
0.00280736
1.30135e-05
0.00275275
7.13208e-06
0.00269992
4.09865e-06
0.00265261
4.65073e-06
0.00261648
9.53637e-06
0.00259848
1.95522e-05
0.00260394
3.55771e-05
0.00263956
5.12257e-05
0.00270334
5.47457e-05
0.00277588
2.50559e-05
0.00281509
-5.48476e-05
0.00275427
-0.000189503
0.00253816
-0.000392471
0.00208415
-0.000651695
0.00115515
-0.00100757
-0.0017259
0.00359525
-0.00184189
0.00178065
0.00221903
0.00288287
0.00348262
0.00385573
0.00405615
0.00414295
0.00415362
0.00411754
0.0040632
0.00400655
0.00395848
0.00392467
0.00390813
0.00390814
0.00392147
0.00394305
0.00396672
0.00398705
0.00400051
0.00400557
0.00400227
0.00399176
0.00397613
0.00395823
0.00394167
0.00393081
0.00393083
0.00394779
0.00398133
0.00401927
0.00402824
0.00395787
0.00375327
0.00334599
0.00267962
0.00165799
)
;

boundaryField
{
    floor
    {
        type            calculated;
        value           nonuniform List<scalar> 
29
(
0
0
0
0
0
0
0
0
0
0
0
0
0
0
0
0
0
0
0
0
-3.83105e-06
-1.01942e-05
-8.96959e-06
-8.79294e-06
-2.24656e-06
-5.45827e-06
-1.29329e-05
-1.68289e-05
-1.28234e-05
)
;
    }
    ceiling
    {
        type            calculated;
        value           nonuniform List<scalar> 
43
(
4.96556e-05
3.30734e-05
1.9843e-05
1.87571e-05
1.93183e-05
2.03332e-05
2.16237e-05
2.29994e-05
2.4373e-05
2.57004e-05
2.69219e-05
2.7965e-05
2.88195e-05
2.94658e-05
2.98785e-05
2.99973e-05
2.98036e-05
2.93262e-05
2.86317e-05
2.78098e-05
2.69416e-05
2.60801e-05
2.52497e-05
2.44543e-05
2.36855e-05
2.29286e-05
2.21665e-05
2.13827e-05
2.05632e-05
1.96976e-05
1.87829e-05
1.7851e-05
1.69731e-05
1.62567e-05
1.57007e-05
1.52693e-05
1.49905e-05
1.48616e-05
1.42333e-05
1.51546e-05
9.94918e-06
7.68328e-06
1.38536e-05
)
;
    }
    sWall
    {
        type            calculated;
        value           uniform -0.000136933;
    }
    nWall
    {
        type            calculated;
        value           nonuniform List<scalar> 6(-4.11824e-05 -4.40787e-05 -5.14158e-05 -5.14788e-05 -6.13438e-05 -8.28787e-05);
    }
    sideWalls
    {
        type            empty;
        value           nonuniform 0();
    }
    glass1
    {
        type            calculated;
        value           nonuniform List<scalar> 9(-6.31748e-05 -0.000160437 -0.00023523 -0.000295711 -0.000347126 -0.00039222 -0.000433902 -0.000487153 -0.000548778);
    }
    glass2
    {
        type            calculated;
        value           nonuniform List<scalar> 2(-0.000210648 -0.000232467);
    }
    sun
    {
        type            calculated;
        value           uniform 0;
    }
    heatsource1
    {
        type            calculated;
        value           nonuniform List<scalar> 3(2.03485e-07 2.03784e-07 2.04284e-07);
    }
    heatsource2
    {
        type            calculated;
        value           nonuniform List<scalar> 4(5.11952e-08 5.13447e-08 0 0);
    }
    Table_master
    {
        type            calculated;
        value           nonuniform List<scalar> 9(-1.54521e-07 -1.54476e-07 -1.54376e-07 -1.54258e-07 -1.54155e-07 -1.54063e-07 -1.53973e-07 -1.53866e-07 -1.53649e-07);
    }
    Table_slave
    {
        type            calculated;
        value           nonuniform List<scalar> 9(1.53063e-07 1.53117e-07 1.53173e-07 1.53236e-07 1.53298e-07 1.5335e-07 1.53378e-07 1.53369e-07 1.53289e-07);
    }
    inlet
    {
        type            calculated;
        value           uniform 0.00118796;
    }
    outlet
    {
        type            calculated;
        value           nonuniform List<scalar> 2(-0.00350763 0.00540437);
    }
}


// ************************************************************************* //
