/*--------------------------------*- C++ -*----------------------------------*\
  =========                 |
  \\      /  F ield         | OpenFOAM: The Open Source CFD Toolbox
   \\    /   O peration     | Website:  https://openfoam.org
    \\  /    A nd           | Version:  6
     \\/     M anipulation  |
\*---------------------------------------------------------------------------*/
FoamFile
{
    version     2.0;
    format      ascii;
    class       volScalarField;
    location    "500";
    object      alphat;
}
// * * * * * * * * * * * * * * * * * * * * * * * * * * * * * * * * * * * * * //

dimensions      [1 -1 -1 0 0 0 0];

internalField   nonuniform List<scalar> 
459
(
0.000940104
0.00099309
0.00077754
0.000679885
0.000662058
0.000660054
0.000663039
0.000668842
0.000676781
0.000686348
0.000696716
0.00070655
0.000714021
0.000715877
0.000703372
0.000435156
0.000397889
0.000375773
0.00037784
0.00037312
0.000372832
0.000364731
0.000371659
0.000385356
0.000398008
0.000399948
0.000392059
0.000380601
0.000367044
0.000351427
0.000335728
0.000320967
0.000302568
0.000278369
0.00169134
0.00424891
0.00249427
0.00270358
0.00322681
0.00343032
0.00348884
0.00348851
0.00345684
0.00339916
0.00330665
0.00315543
0.0029013
0.00247067
0.00177314
0.000809938
0.000570318
0.000561107
0.00139819
0.00149986
0.00140493
0.00123253
0.00105813
0.000895693
0.00101253
0.00118599
0.00131296
0.00135353
0.0013037
0.00119651
0.00107008
0.000960084
0.000917364
0.000689046
0.000497924
0.000322002
0.00232462
0.00764755
0.00450366
0.00357223
0.0040185
0.00460356
0.00496836
0.00511193
0.00510883
0.00500892
0.004829
0.00455612
0.00415082
0.00355495
0.00273229
0.00177221
0.000894799
0.000750807
0.00217797
0.00198904
0.00155505
0.0011129
0.000728343
0.00039431
0.000406412
0.000423285
0.000435013
0.000442162
0.000448786
0.000460416
0.000487752
0.000541702
0.00133583
0.00121967
0.000972261
0.000450935
0.0028563
0.0112022
0.00781779
0.00556245
0.00472227
0.00483676
0.0054263
0.00593304
0.00619171
0.0062469
0.00616321
0.00596085
0.00561217
0.00505026
0.00419713
0.00304017
0.00179777
0.00100176
0.00268411
0.00312212
0.00262891
0.00202365
0.00149058
0.00107727
0.000770684
0.0007631
0.000755779
0.000748519
0.000742788
0.000740279
0.000743316
0.000755762
0.000784941
0.00193441
0.00180358
0.00148901
0.000736437
0.00327951
0.0139169
0.0112772
0.00851741
0.00650638
0.00529149
0.00531735
0.00602427
0.00671688
0.00712803
0.00732471
0.00739562
0.00738209
0.00728697
0.00709334
0.00678242
0.00636858
0.00596403
0.00594114
0.00567604
0.00538333
0.00513737
0.00493234
0.00472361
0.00452081
0.00437592
0.00422029
0.00404702
0.00385617
0.00364909
0.00342803
0.00319613
0.00295426
0.00269678
0.00228887
0.0018598
0.00141558
0.000884798
0.000862655
0.000754208
0.00371374
0.0142459
0.0122977
0.0102957
0.00834273
0.00654472
0.00535596
0.00553012
0.00650381
0.0073394
0.0078768
0.0082134
0.00843816
0.00859028
0.00867433
0.00867361
0.00856404
0.00834232
0.00806206
0.00775339
0.00748147
0.00726087
0.00706878
0.00686911
0.0066595
0.00643644
0.00619539
0.00593507
0.0056547
0.00535276
0.00502631
0.00467113
0.00428241
0.00385572
0.0033927
0.0029159
0.00245647
0.00205869
0.00170817
0.00109062
0.00363677
0.0109218
0.0109721
0.0107082
0.00927865
0.00750633
0.0059172
0.00510076
0.00570621
0.00680052
0.0076701
0.0082692
0.008706
0.00904237
0.009297
0.00946365
0.00951649
0.00944171
0.00926675
0.00904459
0.00881799
0.00860224
0.008392
0.00817886
0.0079554
0.00771617
0.00745979
0.00718626
0.00689634
0.00659093
0.00627021
0.00593285
0.00557495
0.00518756
0.00475437
0.00425126
0.00365775
0.0030224
0.00243615
0.00130536
0.00348987
0.00560428
0.011432
0.0117957
0.0101202
0.00810949
0.00640904
0.00534168
0.00520088
0.0059336
0.00687288
0.00761965
0.00820633
0.00870926
0.00913775
0.00947303
0.00968514
0.00977237
0.00974607
0.00964239
0.00949828
0.00933326
0.00915519
0.00896664
0.00876589
0.00854927
0.0083145
0.00806098
0.00778959
0.00750227
0.00720147
0.00688982
0.00656932
0.00623947
0.005894
0.00551102
0.00502552
0.00434211
0.00360888
0.00146703
0.00343823
0.00573064
0.0271645
0.0185886
0.0121726
0.00902612
0.00723786
0.00627043
0.00598091
0.00617754
0.00660217
0.00708689
0.00757302
0.00804693
0.00849705
0.00890397
0.00923827
0.0094702
0.00959393
0.00962532
0.00959343
0.00951827
0.00941122
0.00928166
0.00913376
0.00896666
0.00877856
0.00856877
0.00833773
0.00808654
0.00781671
0.00753004
0.00722864
0.00691468
0.00659027
0.00625328
0.00587951
0.00539138
0.00462009
0.00161628
0.0340594
0.0252616
0.0127169
0.00942932
0.00815714
0.0073732
0.00706849
0.00711242
0.00735135
0.007659
0.0079723
0.0082688
0.00854506
0.00880097
0.00903127
0.00922534
0.00937287
0.00947078
0.00952253
0.00953043
0.00949773
0.00943522
0.00934616
0.00923119
0.00909187
0.00893031
0.00874821
0.00854653
0.0083254
0.00808425
0.00782205
0.00753758
0.00722934
0.00689355
0.00651314
0.00602142
0.00509491
0.001799
0.00982445
0.017744
0.0122901
0.00917739
0.00754378
0.00687636
0.0068375
0.00719328
0.00770895
0.00818822
0.00856028
0.00881983
0.00899415
0.00911555
0.0092072
0.00928017
0.00933737
0.00937885
0.00940533
0.00941889
0.00942095
0.00940999
0.00937236
0.00930471
0.00921354
0.00910448
0.0089811
0.00884465
0.00869433
0.00852754
0.00834005
0.00812583
0.0078763
0.00757804
0.00720761
0.00671075
0.00594884
0.00202574
0.00156853
0.00210194
0.0060676
0.00550133
0.00461813
0.0038841
0.00333067
0.00292084
0.00262421
0.00242112
0.0022975
0.00223734
0.00221572
0.00221141
0.0022113
0.00220958
0.00220473
0.00219705
0.00218718
0.00217566
0.00216289
0.00214927
0.00213513
0.0021205
0.00210641
0.00209257
0.0020781
0.00206271
0.00204637
0.00202915
0.00201101
0.00199181
0.00197119
0.00194853
0.00192284
0.00189237
0.00185411
0.00180311
0.00174008
0.00149693
)
;

boundaryField
{
    floor
    {
        type            compressible::alphatWallFunction;
        Prt             0.85;
        value           nonuniform List<scalar> 
29
(
9.98478e-05
5.93024e-05
5.34391e-05
4.99419e-05
5.02765e-05
4.95257e-05
4.94771e-05
4.81861e-05
4.92864e-05
5.14574e-05
5.34558e-05
5.37606e-05
5.25155e-05
5.07052e-05
4.85511e-05
4.6056e-05
4.35328e-05
4.11456e-05
3.81488e-05
3.41703e-05
3.41698e-05
4.13143e-05
6.17833e-05
0.000104719
9.98467e-05
5.93016e-05
7.86403e-05
0.000106765
0.000142719
)
;
    }
    ceiling
    {
        type            compressible::alphatWallFunction;
        Prt             0.85;
        value           nonuniform List<scalar> 
43
(
0.000220772
0.000290987
0.000773115
0.00070693
0.000602358
0.000513922
0.000446124
0.000395171
0.000357823
0.000331991
0.000316146
0.000308391
0.000305589
0.000305021
0.000304996
0.000304765
0.000304133
0.000303134
0.000301854
0.000300359
0.000298703
0.000296936
0.000295101
0.000293201
0.000291371
0.000289571
0.000287689
0.000285685
0.000283558
0.000281313
0.000278947
0.00027644
0.000273745
0.000270782
0.000267416
0.000263421
0.000258393
0.000251678
0.000243352
0.000210915
0.000459156
0.00073296
0.00119918
)
;
    }
    sWall
    {
        type            compressible::alphatWallFunction;
        Prt             0.85;
        value           uniform 0.000219937;
    }
    nWall
    {
        type            compressible::alphatWallFunction;
        Prt             0.85;
        value           nonuniform List<scalar> 6(0.000107098 0.000155062 0.000184725 0.000250885 0.000280564 0.000210666);
    }
    sideWalls
    {
        type            empty;
    }
    glass1
    {
        type            compressible::alphatWallFunction;
        Prt             0.85;
        value           nonuniform List<scalar> 9(0.000130872 0.000232354 0.000314182 0.000381189 0.000433701 0.000486904 0.000477816 0.000460082 0.00045401);
    }
    glass2
    {
        type            compressible::alphatWallFunction;
        Prt             0.85;
        value           nonuniform List<scalar> 2(0.000206534 0.00022654);
    }
    sun
    {
        type            compressible::alphatWallFunction;
        Prt             0.85;
        value           nonuniform List<scalar> 
14
(
0.000133933
0.000141401
0.000110603
9.63508e-05
9.37299e-05
9.34395e-05
9.3886e-05
9.4748e-05
9.59238e-05
9.73376e-05
9.88658e-05
0.000100312
0.00010141
0.000101682
)
;
    }
    heatsource1
    {
        type            compressible::alphatWallFunction;
        Prt             0.85;
        value           nonuniform List<scalar> 3(0.000126116 0.00012296 0.000107167);
    }
    heatsource2
    {
        type            compressible::alphatWallFunction;
        Prt             0.85;
        value           nonuniform List<scalar> 4(0.000115353 8.00471e-05 8.00461e-05 0.000127532);
    }
    Table_master
    {
        type            compressible::alphatWallFunction;
        Prt             0.85;
        value           nonuniform List<scalar> 9(5.29331e-05 5.48414e-05 5.749e-05 5.93235e-05 6.04378e-05 6.1464e-05 6.32597e-05 6.74669e-05 7.56954e-05);
    }
    Table_slave
    {
        type            compressible::alphatWallFunction;
        Prt             0.85;
        value           nonuniform List<scalar> 9(0.000109664 0.00010856 0.000107492 0.000106433 0.000105595 0.000105228 0.000105669 0.000107481 0.000111718);
    }
    inlet
    {
        type            fixedValue;
        value           uniform 1.94e-05;
    }
    outlet
    {
        type            zeroGradient;
    }
}


// ************************************************************************* //
