/*--------------------------------*- C++ -*----------------------------------*\
  =========                 |
  \\      /  F ield         | OpenFOAM: The Open Source CFD Toolbox
   \\    /   O peration     | Website:  https://openfoam.org
    \\  /    A nd           | Version:  6
     \\/     M anipulation  |
\*---------------------------------------------------------------------------*/
FoamFile
{
    version     2.0;
    format      ascii;
    class       volScalarField;
    location    "1100";
    object      epsilon;
}
// * * * * * * * * * * * * * * * * * * * * * * * * * * * * * * * * * * * * * //

dimensions      [0 2 -3 0 0 0 0];

internalField   nonuniform List<scalar> 
459
(
0.000638812
0.000857773
0.000940316
0.00110088
0.00127546
0.00147544
0.00166457
0.00178958
0.00181379
0.00172233
0.00151973
0.00110688
0.000784486
0.000493218
0.000302784
7.9122e-05
0.000133573
0.00022071
0.000291446
0.000308032
0.000298951
0.000259041
0.000216458
0.000181069
0.000153035
0.000130957
0.000113578
9.97602e-05
8.84834e-05
7.90358e-05
7.07608e-05
6.2689e-05
5.37294e-05
4.082e-05
0.00146728
0.00196204
0.000801374
0.000805227
0.000888408
0.00103108
0.00120005
0.0013275
0.00136347
0.00129253
0.00113544
0.000893041
0.000692322
0.000522505
0.000386859
0.000622075
0.00030935
6.7422e-05
0.000148961
0.000212498
0.00023761
0.000240168
0.000235357
0.00025096
0.000212666
0.000173252
0.000140701
0.000114884
9.46808e-05
7.87636e-05
6.58415e-05
5.53938e-05
4.90314e-05
4.77817e-05
5.66629e-05
4.92215e-05
0.00252565
0.00437258
0.000946188
0.000799277
0.000918279
0.00113519
0.00136529
0.00150789
0.00153457
0.00144734
0.00126747
0.00104719
0.000845084
0.000669658
0.000519351
0.000485269
0.000636312
0.000233924
0.000267549
0.000281027
0.000279037
0.00026592
0.000266676
0.000623629
0.000439269
0.000316961
0.000235123
0.000178691
0.00013815
0.000107654
8.38962e-05
6.6745e-05
4.88456e-05
4.18978e-05
5.87845e-05
5.2481e-05
0.00391361
0.00870721
0.00141259
0.00087167
0.00102673
0.00138054
0.00166391
0.00177937
0.00176894
0.00164306
0.00143959
0.00119868
0.000964313
0.000768981
0.000619445
0.000536991
0.000548656
0.000990082
0.000663973
0.000493896
0.00040931
0.000360752
0.000324776
0.000316908
0.000841585
0.000630957
0.000496943
0.000403446
0.000334765
0.00027955
0.000231656
0.000187591
0.000144662
8.36918e-05
5.19105e-05
6.69763e-05
5.56701e-05
0.0057704
0.0152634
0.00266251
0.00113931
0.00132974
0.00193885
0.00217559
0.00219587
0.00211082
0.0019321
0.0016692
0.00135469
0.00104827
0.00079953
0.000625236
0.000523285
0.000504652
0.000554786
0.00052324
0.000489788
0.000460531
0.000425028
0.000379617
0.000332111
0.000320385
0.000295738
0.000273818
0.000251945
0.000228884
0.000203368
0.000175226
0.000144773
0.00011214
7.64135e-05
5.02621e-05
5.87876e-05
4.76966e-05
6.76563e-05
0.000115044
0.000154332
0.00830012
0.0226528
0.0059182
0.00227535
0.00270445
0.00301932
0.00296953
0.00281363
0.00261236
0.00233681
0.00196831
0.00153956
0.00113049
0.000809898
0.000601011
0.000497229
0.000483161
0.000517588
0.000548365
0.000555746
0.000532062
0.00048162
0.000414134
0.000343178
0.000290917
0.000261493
0.000242496
0.000222095
0.000197846
0.000170281
0.000140729
0.000110952
8.2698e-05
5.8756e-05
4.35864e-05
4.8834e-05
4.36876e-05
5.21689e-05
0.000220428
0.000172319
0.011024
0.0271264
0.0120913
0.00658858
0.00560262
0.00476636
0.00412758
0.00366623
0.00328369
0.00286098
0.00233921
0.00175061
0.00120992
0.000813331
0.000584862
0.000499367
0.000513196
0.000568043
0.000603354
0.000595475
0.000546848
0.000471882
0.000386665
0.000307297
0.000253956
0.000226616
0.000207519
0.000186327
0.000161801
0.000135193
0.000108324
8.31021e-05
6.08862e-05
4.49291e-05
3.9462e-05
4.70969e-05
5.2717e-05
8.19083e-05
0.000199239
0.000182678
0.011541
0.0275605
0.0165002
0.0116528
0.00855374
0.00657877
0.00538782
0.00466097
0.00410306
0.00349109
0.00274671
0.00192234
0.00121484
0.000760299
0.000549516
0.000506886
0.000536104
0.000575746
0.000578998
0.000535071
0.000459902
0.000374389
0.000296198
0.000236862
0.000200331
0.000179525
0.000164347
0.000149839
0.000134119
0.000118109
0.000102654
8.86049e-05
7.69528e-05
7.05509e-05
7.54177e-05
0.000124748
0.000257859
0.000730833
0.00289714
0.000844692
0.01063
0.0172544
0.0135623
0.0104387
0.00822622
0.00693513
0.00619887
0.00566417
0.00501867
0.00409396
0.00296129
0.00174501
0.000930802
0.000608982
0.000494527
0.000469113
0.000472631
0.000468794
0.00043959
0.000385246
0.000317498
0.000252577
0.000200855
0.000165547
0.000144073
0.000131099
0.000122508
0.000116864
0.000114293
0.000115903
0.000124078
0.000143008
0.000179879
0.000246908
0.00036307
0.000551569
0.000809632
0.00107536
0.00122482
0.000759319
0.00281115
0.00464701
0.00660095
0.00711113
0.00690655
0.00609173
0.00453032
0.002726
0.00155711
0.000892769
0.000577024
0.000441142
0.000384292
0.000357506
0.000335407
0.00030564
0.000267012
0.00022583
0.000189455
0.00016103
0.000141035
0.000127763
0.000118801
0.000112849
0.00010982
0.000110243
0.000114601
0.000124066
0.000140736
0.000167983
0.000211196
0.000278208
0.000377406
0.000509357
0.000652547
0.0007541
0.000744987
0.000510941
0.00297489
0.00895139
0.00820387
0.0060281
0.00434499
0.00297773
0.00190533
0.00118134
0.000745511
0.000513592
0.000401084
0.000346284
0.00031673
0.000296886
0.000279621
0.000262658
0.000246706
0.000233342
0.00022293
0.000213951
0.000204364
0.000192955
0.000180289
0.000167989
0.000158043
0.000152103
0.000151439
0.000157031
0.00017028
0.000193471
0.000230237
0.000285343
0.000362
0.000454995
0.000544058
0.000659163
0.000701549
0.000547221
0.00214519
0.0025707
0.00291192
0.00364183
0.00285333
0.00227782
0.00185466
0.00144029
0.00107914
0.000809782
0.000632799
0.000525132
0.000458176
0.000412024
0.000375075
0.000341023
0.000307253
0.000274203
0.000244146
0.000219074
0.000199428
0.000184476
0.000173327
0.000165541
0.000160982
0.000159794
0.000162017
0.000167543
0.000176214
0.00018818
0.000203992
0.000224702
0.000252024
0.000288474
0.000337023
0.000401273
0.000451178
0.000434015
0.000366762
0.000308272
)
;

boundaryField
{
    floor
    {
        Cmu             0.09;
        kappa           0.41;
        E               9.8;
        type            epsilonWallFunction;
        value           nonuniform List<scalar> 
29
(
0.000302784
7.9122e-05
0.000133573
0.00022071
0.000291446
0.000308032
0.000298951
0.000259041
0.000216458
0.000181069
0.000153035
0.000130957
0.000113578
9.97602e-05
8.84834e-05
7.90358e-05
7.07608e-05
6.2689e-05
5.37294e-05
4.082e-05
4.082e-05
4.92215e-05
5.2481e-05
5.56701e-05
0.000302784
7.9122e-05
6.7422e-05
0.000233924
0.000990082
)
;
    }
    ceiling
    {
        Cmu             0.09;
        kappa           0.41;
        E               9.8;
        type            epsilonWallFunction;
        value           nonuniform List<scalar> 
43
(
0.00214519
0.0025707
0.00291192
0.00364183
0.00285333
0.00227782
0.00185466
0.00144029
0.00107914
0.000809782
0.000632799
0.000525132
0.000458176
0.000412024
0.000375075
0.000341023
0.000307253
0.000274203
0.000244146
0.000219074
0.000199428
0.000184476
0.000173327
0.000165541
0.000160982
0.000159794
0.000162017
0.000167543
0.000176214
0.00018818
0.000203992
0.000224702
0.000252024
0.000288474
0.000337023
0.000401273
0.000451178
0.000434015
0.000366762
0.000308272
0.01063
0.0172544
0.00297489
)
;
    }
    sWall
    {
        Cmu             0.09;
        kappa           0.41;
        E               9.8;
        type            epsilonWallFunction;
        value           uniform 0.00214519;
    }
    nWall
    {
        Cmu             0.09;
        kappa           0.41;
        E               9.8;
        type            epsilonWallFunction;
        value           nonuniform List<scalar> 6(0.000154332 0.000172319 0.000182678 0.000510941 0.000547221 0.000308272);
    }
    sideWalls
    {
        type            empty;
    }
    glass1
    {
        Cmu             0.09;
        kappa           0.41;
        E               9.8;
        type            epsilonWallFunction;
        value           nonuniform List<scalar> 9(0.000638812 0.00146728 0.00252565 0.00391361 0.0057704 0.00830012 0.011024 0.011541 0.01063);
    }
    glass2
    {
        Cmu             0.09;
        kappa           0.41;
        E               9.8;
        type            epsilonWallFunction;
        value           nonuniform List<scalar> 2(0.000844692 0.000759319);
    }
    sun
    {
        Cmu             0.09;
        kappa           0.41;
        E               9.8;
        type            epsilonWallFunction;
        value           nonuniform List<scalar> 
14
(
0.000638812
0.000857773
0.000940316
0.00110088
0.00127546
0.00147544
0.00166457
0.00178958
0.00181379
0.00172233
0.00151973
0.00110688
0.000784486
0.000493218
)
;
    }
    heatsource1
    {
        Cmu             0.09;
        kappa           0.41;
        E               9.8;
        type            epsilonWallFunction;
        value           nonuniform List<scalar> 3(6.76563e-05 0.000115044 0.000154332);
    }
    heatsource2
    {
        Cmu             0.09;
        kappa           0.41;
        E               9.8;
        type            epsilonWallFunction;
        value           nonuniform List<scalar> 4(0.000622075 0.00030935 0.00030935 0.000636312);
    }
    Table_master
    {
        Cmu             0.09;
        kappa           0.41;
        E               9.8;
        type            epsilonWallFunction;
        value           nonuniform List<scalar> 9(0.000623629 0.000439269 0.000316961 0.000235123 0.000178691 0.00013815 0.000107654 8.38962e-05 6.6745e-05);
    }
    Table_slave
    {
        Cmu             0.09;
        kappa           0.41;
        E               9.8;
        type            epsilonWallFunction;
        value           nonuniform List<scalar> 9(0.000841585 0.000630957 0.000496943 0.000403446 0.000334765 0.00027955 0.000231656 0.000187591 0.000144662);
    }
    inlet
    {
        type            turbulentMixingLengthDissipationRateInlet;
        mixingLength    0.01;
        phi             phi;
        k               k;
        value           uniform 0.000101881;
    }
    outlet
    {
        type            zeroGradient;
    }
}


// ************************************************************************* //
