/*--------------------------------*- C++ -*----------------------------------*\
  =========                 |
  \\      /  F ield         | OpenFOAM: The Open Source CFD Toolbox
   \\    /   O peration     | Website:  https://openfoam.org
    \\  /    A nd           | Version:  6
     \\/     M anipulation  |
\*---------------------------------------------------------------------------*/
FoamFile
{
    version     2.0;
    format      ascii;
    class       volScalarField;
    location    "600";
    object      nut;
}
// * * * * * * * * * * * * * * * * * * * * * * * * * * * * * * * * * * * * * //

dimensions      [0 2 -1 0 0 0 0];

internalField   nonuniform List<scalar> 
459
(
0.000720749
0.000752941
0.000745165
0.000768185
0.00078721
0.000802756
0.000815642
0.000826653
0.000836561
0.00084618
0.000852503
0.000854595
0.000852403
0.000847681
0.000841289
0.000619829
0.000576812
0.000545727
0.000524214
0.000507824
0.000492834
0.000476812
0.000461506
0.000446937
0.00043296
0.000419523
0.000406573
0.000394021
0.000381696
0.000369272
0.000356233
0.000341559
0.00032943
0.000302546
0.00108318
0.00169807
0.00144851
0.00166809
0.00178053
0.00190004
0.00201855
0.00212581
0.00220709
0.00224458
0.0022502
0.00219768
0.00205327
0.00177212
0.0013166
0.000853539
0.000797464
0.000712579
0.00102751
0.00125272
0.00143254
0.00154083
0.00154526
0.00135797
0.0012376
0.00113876
0.00105406
0.000978716
0.000909825
0.000844237
0.000777441
0.000705563
0.000640556
0.000586401
0.000683892
0.000378011
0.00141746
0.00251118
0.00158192
0.00230969
0.00247785
0.00259873
0.00269066
0.00275975
0.00281076
0.00283996
0.00285096
0.00282112
0.0027213
0.00251782
0.00217125
0.00164808
0.000912562
0.000791114
0.00171986
0.00207923
0.00222656
0.00225105
0.00199144
0.000565999
0.000510261
0.000467495
0.000434192
0.000407735
0.000386296
0.000368769
0.000354781
0.000345058
0.000396646
0.000473566
0.000777517
0.000435886
0.00176803
0.00379335
0.00151593
0.00257899
0.00284087
0.00293376
0.00297765
0.00299819
0.00301303
0.00302832
0.00304486
0.00304537
0.00300593
0.00290087
0.00269475
0.00232075
0.00167041
0.000892342
0.00218327
0.00238811
0.00244906
0.00245327
0.00241825
0.0021158
0.000581251
0.000557725
0.0005495
0.000545377
0.00053878
0.000525695
0.000509451
0.000490981
0.000467128
0.000450775
0.000474711
0.000899548
0.000483842
0.00213268
0.00555639
0.00181594
0.00245808
0.00298587
0.0030811
0.00309329
0.00307689
0.00306343
0.00307294
0.00310154
0.00313685
0.00314656
0.00310169
0.0029757
0.00276481
0.00253657
0.00238303
0.00238312
0.00246167
0.00241378
0.0023673
0.00235622
0.00232735
0.002141
0.00213784
0.00216299
0.00217282
0.0021481
0.00207648
0.00190541
0.00165279
0.00135085
0.00102858
0.000778413
0.000863971
0.000604504
0.000628641
0.000750357
0.000832995
0.00251078
0.00749361
0.00313103
0.00211464
0.00282004
0.00307006
0.00313363
0.00312102
0.0030726
0.00304672
0.00309158
0.00316291
0.00321056
0.0032018
0.00309516
0.00284764
0.00248336
0.00220434
0.00233657
0.00242746
0.00232221
0.0022436
0.00224495
0.00229962
0.00237014
0.00245718
0.00252821
0.00256881
0.00257239
0.00253669
0.00243647
0.00223217
0.00192775
0.00154146
0.00117869
0.000918723
0.000755418
0.000701644
0.00105959
0.000866001
0.00290052
0.0091119
0.00590738
0.0029442
0.00224194
0.00239632
0.00273174
0.00299024
0.00315068
0.00302307
0.00309295
0.00317627
0.00323487
0.00324396
0.00316022
0.0029113
0.00245909
0.00204552
0.00227526
0.00241575
0.00227858
0.00218381
0.00218608
0.00225286
0.00234782
0.0024466
0.0025297
0.002585
0.00261471
0.00262388
0.002615
0.00248989
0.00222518
0.00186138
0.00151429
0.00119974
0.00100586
0.000973041
0.00105384
0.000939698
0.00300928
0.00926239
0.00747441
0.00574859
0.00416217
0.00317823
0.00282937
0.00287635
0.00306939
0.00312326
0.00316164
0.00320558
0.00324067
0.00323779
0.00315059
0.00289916
0.00241872
0.00192409
0.00220002
0.00242803
0.00227224
0.00216611
0.00215619
0.00220224
0.00226871
0.00233608
0.00239519
0.00244404
0.00249045
0.0025467
0.00262542
0.0026958
0.0025128
0.00220134
0.00194862
0.00186069
0.00201286
0.00258171
0.00353333
0.00152848
0.0029625
0.00362025
0.00406169
0.00420629
0.004067
0.00373963
0.00343423
0.00325021
0.00317366
0.00314821
0.00316589
0.00319923
0.00321777
0.00318928
0.00307387
0.00279451
0.00226979
0.0017268
0.0021218
0.00244448
0.00227233
0.00214386
0.00210425
0.00211072
0.00213134
0.00215019
0.00215948
0.00215612
0.00213992
0.00211138
0.00207095
0.00201995
0.00196926
0.00194378
0.0019752
0.00205308
0.00210858
0.00207121
0.00194993
0.00141909
0.00213322
0.00359555
0.00390985
0.00387358
0.00374223
0.00361602
0.00352463
0.00344915
0.00338032
0.00330343
0.00320132
0.00305706
0.00284722
0.0025039
0.0019385
0.00140761
0.00203046
0.00243411
0.00224592
0.00209032
0.00202012
0.00199121
0.00197851
0.00197098
0.00196274
0.00195145
0.00193827
0.00192786
0.00192789
0.0019467
0.00197819
0.00202248
0.00207631
0.00211294
0.00208596
0.00197157
0.00177566
0.00115836
0.00226711
0.00411926
0.00433194
0.00420041
0.00404221
0.00387178
0.00369712
0.00352105
0.0032917
0.00302455
0.00274064
0.00245013
0.00215197
0.00181538
0.001378
0.00100091
0.00164597
0.00189822
0.00177
0.00165361
0.00159564
0.00157373
0.00157827
0.00160576
0.0016531
0.00171628
0.00178983
0.00186609
0.00193385
0.00201271
0.00210137
0.00219636
0.00228756
0.00236243
0.00237957
0.00243854
0.00225885
0.00117168
0.00198062
0.00208791
0.00217839
0.00232109
0.00219898
0.00203084
0.00188392
0.00174933
0.0016203
0.00149637
0.00138856
0.00129143
0.00119851
0.00110619
0.0010122
0.000914422
0.000803903
0.000583007
0.000584062
0.000593482
0.000597751
0.000606934
0.000621662
0.000640618
0.000663053
0.000688553
0.00071692
0.000748215
0.000782869
0.000821917
0.000867479
0.000917889
0.000973745
0.00103562
0.00110417
0.00119355
0.00122535
0.00120121
0.00112426
0.00104166
)
;

boundaryField
{
    floor
    {
        type            nutkWallFunction;
        Cmu             0.09;
        kappa           0.41;
        E               9.8;
        value           nonuniform List<scalar> 
29
(
0.000101864
7.48215e-05
6.94441e-05
6.55277e-05
6.28013e-05
6.0715e-05
5.87995e-05
5.6744e-05
5.47722e-05
5.28877e-05
5.10725e-05
4.93204e-05
4.7625e-05
4.59753e-05
4.43488e-05
4.27024e-05
4.09669e-05
3.90039e-05
3.73732e-05
3.37298e-05
3.37298e-05
4.38613e-05
5.14529e-05
5.76466e-05
0.000101864
7.48215e-05
8.62687e-05
9.58224e-05
0.000107973
)
;
    }
    ceiling
    {
        type            nutkWallFunction;
        Cmu             0.09;
        kappa           0.41;
        E               9.8;
        value           nonuniform List<scalar> 
43
(
0.000231174
0.000242829
0.00025261
0.000268038
0.000254941
0.000236753
0.000220716
0.000205903
0.000191584
0.000177713
0.000165543
0.000154487
0.000143825
0.000133138
0.000122155
0.000110602
9.73767e-05
7.02328e-05
7.03582e-05
7.15385e-05
7.20723e-05
7.32186e-05
7.50533e-05
7.74073e-05
8.01825e-05
8.33234e-05
8.68014e-05
9.06193e-05
9.48252e-05
9.95384e-05
0.000105005
0.000111014
0.000117628
0.000124904
0.000132908
0.00014326
0.000146922
0.000144143
0.000135243
0.000125613
0.000336186
0.000404258
0.00026208
)
;
    }
    sWall
    {
        type            nutkWallFunction;
        Cmu             0.09;
        kappa           0.41;
        E               9.8;
        value           uniform 0.000231237;
    }
    nWall
    {
        type            nutkWallFunction;
        Cmu             0.09;
        kappa           0.41;
        E               9.8;
        value           nonuniform List<scalar> 6(0.000100872 0.00010483 0.000113606 0.000139205 0.000140746 0.00012562);
    }
    sideWalls
    {
        type            empty;
    }
    glass1
    {
        type            nutkWallFunction;
        Cmu             0.09;
        kappa           0.41;
        E               9.8;
        value           nonuniform List<scalar> 9(8.72364e-05 0.000130573 0.000169039 0.000208296 0.000248231 0.00028887 0.000330088 0.000341492 0.000336611);
    }
    glass2
    {
        type            nutkWallFunction;
        Cmu             0.09;
        kappa           0.41;
        E               9.8;
        value           nonuniform List<scalar> 2(0.000181414 0.000169084);
    }
    sun
    {
        type            nutkWallFunction;
        Cmu             0.09;
        kappa           0.41;
        E               9.8;
        value           nonuniform List<scalar> 
14
(
8.72654e-05
9.1191e-05
9.02447e-05
9.30426e-05
9.53475e-05
9.72261e-05
9.878e-05
0.000100105
0.000101296
0.000102451
0.000103209
0.00010346
0.000103197
0.000102631
)
;
    }
    heatsource1
    {
        type            nutkWallFunction;
        Cmu             0.09;
        kappa           0.41;
        E               9.8;
        value           nonuniform List<scalar> 3(7.59205e-05 9.08793e-05 0.00010087);
    }
    heatsource2
    {
        type            nutkWallFunction;
        Cmu             0.09;
        kappa           0.41;
        E               9.8;
        value           nonuniform List<scalar> 4(0.000103333 9.65875e-05 9.65875e-05 0.000110377);
    }
    Table_master
    {
        type            nutkWallFunction;
        Cmu             0.09;
        kappa           0.41;
        E               9.8;
        value           nonuniform List<scalar> 9(6.80913e-05 6.10329e-05 5.55528e-05 5.12421e-05 4.77879e-05 4.49681e-05 4.26482e-05 4.07866e-05 3.94869e-05);
    }
    Table_slave
    {
        type            nutkWallFunction;
        Cmu             0.09;
        kappa           0.41;
        E               9.8;
        value           nonuniform List<scalar> 9(7.0006e-05 6.70473e-05 6.60095e-05 6.54885e-05 6.46539e-05 6.2995e-05 6.09282e-05 5.85684e-05 5.55046e-05);
    }
    inlet
    {
        type            calculated;
        value           uniform 0.000100623;
    }
    outlet
    {
        type            calculated;
        value           nonuniform List<scalar> 2(0.00198062 0.00208791);
    }
}


// ************************************************************************* //
