// -*- C++ -*-
// File generated by PyFoam - sorry for the ugliness

FoamFile
{
 version 2.0;
 format ascii;
 class volVectorField;
 location "600";
 object U;
}

dimensions [ 0 1 -1 0 0 0 0 ];

internalField nonuniform List<vector> 459
(
  (0.0700107 0.0774626 0)
  (-0.152338 0.0136151 0)
  (-0.159412 0.0141672 0)
  (-0.187183 0.0116995 0)
  (-0.211463 0.00834764 0)
  (-0.231729 0.00461779 0)
  (-0.247278 0.000509594 0)
  (-0.257363 -0.00410054 0)
  (-0.261018 -0.00938544 0)
  (-0.256855 -0.0155863 0)
  (-0.243306 -0.0233224 0)
  (-0.217554 -0.033054 0)
  (-0.178046 -0.0466165 0)
  (-0.134518 -0.067916 0)
  (-0.122663 -0.0978211 0)
  (0.0769865 -0.042285 0)
  (0.0525095 -0.0262626 0)
  (0.0659736 -0.0160985 0)
  (0.0794682 -0.0107325 0)
  (0.086429 -0.00767022 0)
  (0.0897056 -0.00541094 0)
  (0.0911394 -0.00348585 0)
  (0.0908007 -0.00228631 0)
  (0.0895011 -0.00167071 0)
  (0.0879862 -0.00132605 0)
  (0.0864932 -0.00107582 0)
  (0.084963 -0.0008442 0)
  (0.0832379 -0.000545925 0)
  (0.081009 -3.32288e-06 0)
  (0.0775781 0.00117733 0)
  (0.0715699 0.00355647 0)
  (0.0614715 0.00635704 0)
  (0.050332 0.0090834 0)
  (-0.00705708 0.0250547 0)
  (0.271802 0.164894 0)
  (-0.162458 0.0432544 0)
  (-0.135523 0.0451885 0)
  (-0.16752 0.0408599 0)
  (-0.192327 0.0355352 0)
  (-0.212942 0.0295269 0)
  (-0.228988 0.0225717 0)
  (-0.239891 0.0142915 0)
  (-0.24477 0.00428287 0)
  (-0.242291 -0.00780308 0)
  (-0.232058 -0.0213294 0)
  (-0.213231 -0.0360215 0)
  (-0.187173 -0.0531855 0)
  (-0.160716 -0.0753363 0)
  (-0.140756 -0.0949754 0)
  (-0.107085 -0.0776726 0)
  (-0.0639019 -0.0681874 0)
  (0.0791005 -0.0628432 0)
  (0.0348749 -0.0308691 0)
  (0.0443644 -0.0139502 0)
  (0.0559593 -0.0077662 0)
  (0.0629468 -0.00519407 0)
  (0.0673774 -0.00259826 0)
  (0.0702151 0.00137673 0)
  (0.0707707 0.00350003 0)
  (0.070675 0.00415971 0)
  (0.0707716 0.0042714 0)
  (0.0710225 0.00427177 0)
  (0.0712532 0.00432335 0)
  (0.071399 0.00460188 0)
  (0.0713985 0.00548553 0)
  (0.0706781 0.00792415 0)
  (0.0666611 0.0146295 0)
  (0.0562895 0.020734 0)
  (0.0500756 0.025228 0)
  (-0.0497513 0.0523332 0)
  (0.451524 0.250425 0)
  (-0.203045 0.0767428 0)
  (-0.104486 0.0757362 0)
  (-0.14087 0.0649205 0)
  (-0.162908 0.0547127 0)
  (-0.181679 0.0436887 0)
  (-0.196675 0.0311406 0)
  (-0.207368 0.0165835 0)
  (-0.212784 -0.000246526 0)
  (-0.211364 -0.0191309 0)
  (-0.202879 -0.0397471 0)
  (-0.187784 -0.0609561 0)
  (-0.168274 -0.0821667 0)
  (-0.147962 -0.102337 0)
  (-0.126319 -0.114865 0)
  (-0.0978685 -0.111245 0)
  (-0.0812692 -0.116968 0)
  (0.0532446 -0.0770776 0)
  (0.0110531 -0.0409039 0)
  (0.0229515 -0.0239864 0)
  (0.0344732 -0.0176291 0)
  (0.0430979 -0.0140098 0)
  (0.0495232 -0.0108319 0)
  (0.0537864 -0.00772934 0)
  (0.053358 -0.005398 0)
  (0.0529161 -0.00429491 0)
  (0.0536851 -0.00376552 0)
  (0.0550242 -0.00343468 0)
  (0.0564767 -0.00314754 0)
  (0.058103 -0.00273985 0)
  (0.0604854 -0.00183073 0)
  (0.0650666 0.00163399 0)
  (0.0643529 0.0200173 0)
  (0.051393 0.0332248 0)
  (0.0552284 0.0420823 0)
  (-0.0884828 0.0797784 0)
  (0.605667 0.321206 0)
  (-0.256082 0.111408 0)
  (-0.0677956 0.102816 0)
  (-0.110504 0.0865291 0)
  (-0.127028 0.0737747 0)
  (-0.142228 0.0602121 0)
  (-0.155093 0.0446066 0)
  (-0.165027 0.0261206 0)
  (-0.170787 0.00411888 0)
  (-0.170178 -0.0213146 0)
  (-0.163038 -0.0485863 0)
  (-0.151074 -0.0752359 0)
  (-0.136766 -0.099312 0)
  (-0.122672 -0.118889 0)
  (-0.10923 -0.130652 0)
  (-0.0974277 -0.132772 0)
  (-0.0904687 -0.119059 0)
  (-0.064193 -0.0488121 0)
  (-0.000477588 -0.0799131 0)
  (-7.4193e-05 -0.0533391 0)
  (0.0106723 -0.0358172 0)
  (0.0205203 -0.0273005 0)
  (0.0287841 -0.0217601 0)
  (0.0354973 -0.0162968 0)
  (0.044307 -0.0127503 0)
  (0.0567887 -0.0112515 0)
  (0.0680738 -0.00998384 0)
  (0.0774531 -0.00859134 0)
  (0.0845667 -0.00677034 0)
  (0.0885982 -0.00438882 0)
  (0.088088 -0.00138904 0)
  (0.0818815 0.00247698 0)
  (0.0678426 0.00783249 0)
  (0.0541399 0.0298653 0)
  (0.040974 0.0484379 0)
  (0.0604295 0.0625511 0)
  (-0.130411 0.103008 0)
  (0.733029 0.378571 0)
  (-0.308533 0.144774 0)
  (-0.0284279 0.119999 0)
  (-0.0776421 0.101203 0)
  (-0.0872883 0.087487 0)
  (-0.0974295 0.0724357 0)
  (-0.10657 0.0546321 0)
  (-0.114254 0.033026 0)
  (-0.119172 0.00669569 0)
  (-0.117988 -0.0242689 0)
  (-0.110962 -0.0569565 0)
  (-0.101209 -0.0869016 0)
  (-0.0909362 -0.111549 0)
  (-0.0818847 -0.129871 0)
  (-0.074444 -0.141379 0)
  (-0.0681263 -0.146281 0)
  (-0.057579 -0.140158 0)
  (-0.0363796 -0.109663 0)
  (-0.0119551 -0.0906372 0)
  (-0.00515681 -0.063394 0)
  (0.00270212 -0.0454934 0)
  (0.0101263 -0.0357516 0)
  (0.0171815 -0.0294731 0)
  (0.024397 -0.0242192 0)
  (0.0331436 -0.019417 0)
  (0.0430766 -0.0165617 0)
  (0.0524479 -0.0144567 0)
  (0.0608222 -0.0118687 0)
  (0.0678237 -0.00792344 0)
  (0.072702 -0.00207411 0)
  (0.074233 0.00529861 0)
  (0.071304 0.0136627 0)
  (0.0639976 0.0235865 0)
  (0.0547837 0.0406557 0)
  (0.0416135 0.0610459 0)
  (0.0684982 0.0831877 0)
  (-0.0357973 0.117339 0)
  (0.0418773 0.0211803 0)
  (-0.0749688 -0.042132 0)
  (-0.284209 -0.0651515 0)
  (0.820714 0.42898 0)
  (-0.352991 0.172538 0)
  (0.0038811 0.120508 0)
  (-0.0416148 0.10917 0)
  (-0.0451224 0.0958662 0)
  (-0.0500835 0.0798369 0)
  (-0.0543768 0.0609955 0)
  (-0.0581547 0.0379867 0)
  (-0.0605999 0.00897629 0)
  (-0.0553114 -0.0272663 0)
  (-0.0475532 -0.0646659 0)
  (-0.0405604 -0.0959351 0)
  (-0.0351823 -0.119426 0)
  (-0.0321375 -0.135601 0)
  (-0.0312721 -0.145481 0)
  (-0.0317194 -0.149867 0)
  (-0.0280493 -0.146869 0)
  (-0.0190819 -0.128924 0)
  (-0.00914678 -0.0980089 0)
  (-0.00655536 -0.0681839 0)
  (-0.0031617 -0.0511435 0)
  (0.000517468 -0.0414117 0)
  (0.00486586 -0.0354112 0)
  (0.0100179 -0.0309792 0)
  (0.0162964 -0.0274837 0)
  (0.0233389 -0.0252624 0)
  (0.030563 -0.0232337 0)
  (0.0376506 -0.0202692 0)
  (0.0444265 -0.0153046 0)
  (0.0504586 -0.00737939 0)
  (0.055462 0.0035463 0)
  (0.0567028 0.0157055 0)
  (0.0553629 0.0287639 0)
  (0.0539311 0.0450272 0)
  (0.0496232 0.0648548 0)
  (0.0769493 0.0903404 0)
  (0.0461324 0.111897 0)
  (0.0949003 0.0719083 0)
  (0.121518 0.045058 0)
  (-0.146102 -0.0166418 0)
  (0.844924 0.47412 0)
  (-0.374135 0.164588 0)
  (0.0236794 0.0777911 0)
  (0.00845447 0.108887 0)
  (0.00529544 0.10606 0)
  (0.00178531 0.0854366 0)
  (0.00158634 0.0629511 0)
  (0.00260862 0.0387426 0)
  (0.00366625 0.00656345 0)
  (0.0199139 -0.0360385 0)
  (0.0269824 -0.0727382 0)
  (0.0289779 -0.100839 0)
  (0.0272883 -0.120807 0)
  (0.0223823 -0.133995 0)
  (0.0151398 -0.141993 0)
  (0.0063124 -0.146418 0)
  (0.00102855 -0.147953 0)
  (-0.00166461 -0.135304 0)
  (-0.00192419 -0.0992058 0)
  (-0.00678197 -0.0671727 0)
  (-0.00856164 -0.0513511 0)
  (-0.00961427 -0.0429701 0)
  (-0.00929004 -0.038033 0)
  (-0.00783258 -0.0347848 0)
  (-0.00530053 -0.0325644 0)
  (-0.00195139 -0.0310559 0)
  (0.00213319 -0.0294392 0)
  (0.00661272 -0.0268599 0)
  (0.0117009 -0.0222244 0)
  (0.0175172 -0.0141958 0)
  (0.0252867 -0.00154645 0)
  (0.0330252 0.013054 0)
  (0.0381553 0.027097 0)
  (0.0445973 0.0419121 0)
  (0.050635 0.0581277 0)
  (0.0766088 0.0791417 0)
  (0.0869949 0.0881299 0)
  (0.124221 0.0568564 0)
  (0.167557 0.042565 0)
  (-0.0357084 0.0944388 0)
  (0.942475 0.490454 0)
  (-0.130944 0.146896 0)
  (0.085574 0.00791325 0)
  (0.125424 0.0450988 0)
  (0.103775 0.0719981 0)
  (0.0866503 0.0620934 0)
  (0.0835243 0.0395104 0)
  (0.0865229 0.0132379 0)
  (0.0979665 -0.0196133 0)
  (0.110913 -0.0499549 0)
  (0.112184 -0.0762545 0)
  (0.105247 -0.0971618 0)
  (0.0930998 -0.112395 0)
  (0.077464 -0.122625 0)
  (0.0599007 -0.129185 0)
  (0.0414028 -0.13401 0)
  (0.0270922 -0.138974 0)
  (0.0141471 -0.130365 0)
  (0.00567505 -0.0934144 0)
  (-0.00828239 -0.0600984 0)
  (-0.0155116 -0.0468542 0)
  (-0.0213349 -0.0403846 0)
  (-0.0253852 -0.036776 0)
  (-0.0282109 -0.0346405 0)
  (-0.030106 -0.033382 0)
  (-0.0313239 -0.0325622 0)
  (-0.0319911 -0.0316169 0)
  (-0.032075 -0.0299345 0)
  (-0.0313167 -0.0268735 0)
  (-0.0291968 -0.0217465 0)
  (-0.0242232 -0.0138347 0)
  (-0.0105603 -0.00232502 0)
  (4.76759e-08 0.0107669 0)
  (0.012079 0.0215338 0)
  (0.0239554 0.0296976 0)
  (0.0474514 0.0392884 0)
  (0.0679105 0.0321723 0)
  (0.0892741 -0.00384032 0)
  (0.152118 0.0402606 0)
  (-0.450266 0.2179 0)
  (1.06989 0.451839 0)
  (0.518159 0.301866 0)
  (0.519564 0.233558 0)
  (0.488716 0.195593 0)
  (0.40556 0.169494 0)
  (0.333228 0.131643 0)
  (0.291636 0.0893313 0)
  (0.269896 0.0490739 0)
  (0.255712 0.011474 0)
  (0.234051 -0.0238493 0)
  (0.208932 -0.0530739 0)
  (0.181942 -0.0747413 0)
  (0.153673 -0.0895344 0)
  (0.124617 -0.0991127 0)
  (0.0955211 -0.105529 0)
  (0.0669054 -0.111465 0)
  (0.0451186 -0.12018 0)
  (0.0235751 -0.115322 0)
  (0.0101051 -0.0774994 0)
  (-0.0125339 -0.0475834 0)
  (-0.0248354 -0.0386962 0)
  (-0.0346789 -0.03482 0)
  (-0.0427029 -0.0326327 0)
  (-0.0497713 -0.0313192 0)
  (-0.0563247 -0.0305031 0)
  (-0.0626885 -0.0298137 0)
  (-0.0691018 -0.0287679 0)
  (-0.0757459 -0.0267808 0)
  (-0.0828263 -0.0231723 0)
  (-0.0906672 -0.0172096 0)
  (-0.0996349 -0.00821231 0)
  (-0.109756 0.00413673 0)
  (-0.118405 0.0186553 0)
  (-0.133268 0.0351524 0)
  (-0.158881 0.0537114 0)
  (-0.197126 0.0728369 0)
  (-0.252633 0.087275 0)
  (-0.316892 0.0943132 0)
  (-0.389072 0.0950658 0)
  (-0.657421 0.0898078 0)
  (-0.240313 0.101169 0)
  (0.175108 0.173942 0)
  (0.265377 0.168241 0)
  (0.262636 0.137309 0)
  (0.263495 0.0972912 0)
  (0.265617 0.0564345 0)
  (0.262174 0.0201278 0)
  (0.250743 -0.00944342 0)
  (0.23091 -0.0316492 0)
  (0.205263 -0.0475181 0)
  (0.17566 -0.0583343 0)
  (0.14363 -0.0654397 0)
  (0.110357 -0.0704657 0)
  (0.0766292 -0.0763331 0)
  (0.0511741 -0.0892339 0)
  (0.019071 -0.0886113 0)
  (0.00444603 -0.0464234 0)
  (-0.0216937 -0.0267878 0)
  (-0.0370122 -0.0239174 0)
  (-0.0485792 -0.0233665 0)
  (-0.0587159 -0.0232054 0)
  (-0.0684217 -0.0231718 0)
  (-0.0780301 -0.0231042 0)
  (-0.0877701 -0.0227634 0)
  (-0.0977454 -0.0217795 0)
  (-0.107876 -0.0196363 0)
  (-0.117863 -0.0156871 0)
  (-0.127138 -0.00922808 0)
  (-0.134769 0.00038616 0)
  (-0.139521 0.0133381 0)
  (-0.142157 0.0298613 0)
  (-0.144072 0.0501453 0)
  (-0.146734 0.0730459 0)
  (-0.150925 0.0942008 0)
  (-0.153498 0.101982 0)
  (-0.135545 0.0737757 0)
  (-0.0838115 -0.0315915 0)
  (-0.291157 -0.223577 0)
  (-0.12142 0.253758 0)
  (0.0899181 0.182591 0)
  (0.10762 0.134445 0)
  (0.139536 0.110058 0)
  (0.173613 0.080908 0)
  (0.198956 0.0513389 0)
  (0.211074 0.027634 0)
  (0.210708 0.0116572 0)
  (0.200908 -0.000148393 0)
  (0.183744 -0.00921943 0)
  (0.161325 -0.0161099 0)
  (0.135134 -0.0213143 0)
  (0.106073 -0.0260183 0)
  (0.0744129 -0.0347022 0)
  (0.0478126 -0.0607121 0)
  (-0.00706126 -0.0642168 0)
  (-0.0238548 0.0116779 0)
  (-0.0418547 0.0284438 0)
  (-0.0544686 0.0241803 0)
  (-0.0640256 0.0221721 0)
  (-0.0729094 0.0213482 0)
  (-0.0815557 0.0202898 0)
  (-0.0900126 0.0190342 0)
  (-0.0982862 0.0178351 0)
  (-0.106285 0.0168967 0)
  (-0.113788 0.0163769 0)
  (-0.120436 0.0164044 0)
  (-0.125685 0.0170899 0)
  (-0.128545 0.0185063 0)
  (-0.127506 0.0231759 0)
  (-0.120822 0.0326569 0)
  (-0.107493 0.047636 0)
  (-0.0880125 0.0675821 0)
  (-0.0640227 0.087681 0)
  (-0.0387599 0.0992111 0)
  (0.00466623 0.0810651 0)
  (0.146663 0.00393334 0)
  (-0.21001 -0.136304 0)
  (-0.152797 -0.366221 0)
  (-0.444814 -0.100051 0)
  (-0.323339 0.153829 0)
  (-0.169724 0.060969 0)
  (-0.0827842 0.0361494 0)
  (0.0195092 0.0333859 0)
  (0.0842853 0.0128386 0)
  (0.130937 -0.00812749 0)
  (0.15922 -0.0268354 0)
  (0.170224 -0.0433742 0)
  (0.168579 -0.0565809 0)
  (0.157654 -0.0674586 0)
  (0.140331 -0.0773728 0)
  (0.118756 -0.0875116 0)
  (0.0941819 -0.099421 0)
  (0.0665063 -0.116294 0)
  (0.0388829 -0.144455 0)
  (-0.0520923 -0.145596 0)
  (-0.0633177 -0.134704 0)
  (-0.0678293 -0.129426 0)
  (-0.0735407 -0.125212 0)
  (-0.0809647 -0.119723 0)
  (-0.088493 -0.113397 0)
  (-0.0957783 -0.106715 0)
  (-0.102807 -0.0998865 0)
  (-0.109509 -0.0929622 0)
  (-0.115674 -0.0858673 0)
  (-0.120925 -0.0784005 0)
  (-0.124699 -0.0702185 0)
  (-0.126216 -0.0607984 0)
  (-0.124364 -0.0493982 0)
  (-0.117126 -0.0371618 0)
  (-0.101473 -0.0234902 0)
  (-0.0751713 -0.00740676 0)
  (-0.0393185 0.0119045 0)
  (0.0191238 0.036236 0)
  (0.0716114 0.0378727 0)
  (0.121019 0.015899 0)
  (0.176485 -0.0248579 0)
  (-0.183854 -0.0930011 0)
)
;

boundaryField
{
  floor
  {
    type noSlip;
  }
  ceiling
  {
    type noSlip;
  }
  sWall
  {
    type noSlip;
  }
  nWall
  {
    type noSlip;
  }
  sideWalls
  {
    type empty;
  }
  glass1
  {
    type noSlip;
  }
  glass2
  {
    type noSlip;
  }
  sun
  {
    type noSlip;
  }
  heatsource1
  {
    type noSlip;
  }
  heatsource2
  {
    type noSlip;
  }
  Table_master
  {
    type noSlip;
  }
  Table_slave
  {
    type noSlip;
  }
  inlet
  {
    type fixedValue;
    value uniform (0.277164 -0.114805 0);
  }
  outlet
  {
    type zeroGradient;
  }
} 	// ************************************************************************* //

