// -*- C++ -*-
// File generated by PyFoam - sorry for the ugliness

FoamFile
{
 version 2.0;
 format ascii;
 class volVectorField;
 location "590";
 object U;
}

dimensions [ 0 1 -1 0 0 0 0 ];

internalField nonuniform List<vector> 459
(
  (-0.0383572 0.00693973 0)
  (-0.0233244 0.00911043 0)
  (-0.0392966 -0.00549991 0)
  (-0.0293974 -0.0208766 0)
  (0.00717339 -0.0403452 0)
  (0.046315 -0.0344901 0)
  (0.0789048 -0.0259811 0)
  (0.103641 -0.0181289 0)
  (0.118824 -0.0116745 0)
  (0.125392 -0.00652804 0)
  (0.124598 -0.00210177 0)
  (0.117472 0.00236336 0)
  (0.103901 0.00792069 0)
  (0.0794314 0.01801 0)
  (0.0790449 0.044013 0)
  (-0.10287 -2.15234e-05 0)
  (0.0295046 0.00671465 0)
  (0.00117346 -0.00883563 0)
  (0.0167754 -0.0139754 0)
  (0.0301452 -0.0111574 0)
  (0.0408105 -0.00756649 0)
  (0.0475969 -0.00466918 0)
  (0.0512991 -0.0031526 0)
  (0.0532446 -0.00251772 0)
  (0.0544873 -0.00221264 0)
  (0.0554305 -0.00199702 0)
  (0.0560769 -0.00177864 0)
  (0.0562598 -0.00145575 0)
  (0.0555996 -0.00080481 0)
  (0.0533707 0.000589252 0)
  (0.0481972 0.00343004 0)
  (0.0407633 0.00757648 0)
  (-0.0124617 0.0176245 0)
  (0.107592 -0.00229358 0)
  (-0.0669095 0.0182828 0)
  (-0.00981953 0.0276937 0)
  (-0.026929 0.00551589 0)
  (-0.0169957 -0.0293559 0)
  (0.0127076 -0.061227 0)
  (0.0412181 -0.0557455 0)
  (0.0676619 -0.0413926 0)
  (0.0876197 -0.0263967 0)
  (0.09971 -0.0133378 0)
  (0.104846 -0.00249749 0)
  (0.104153 0.00661059 0)
  (0.0989921 0.0149341 0)
  (0.0908659 0.0237806 0)
  (0.0800723 0.0352157 0)
  (0.080924 0.0553885 0)
  (0.073023 0.0502312 0)
  (0.0451996 0.0444745 0)
  (-0.136813 0.00112122 0)
  (0.0368503 -0.00262151 0)
  (0.0235153 -0.018522 0)
  (0.0325892 -0.0218401 0)
  (0.0423455 -0.0170512 0)
  (0.0489587 -0.0105138 0)
  (0.0516497 -0.00470844 0)
  (0.0522479 -0.00148546 0)
  (0.0523422 -0.000119201 0)
  (0.0525615 0.000535446 0)
  (0.052849 0.0010026 0)
  (0.0530821 0.00151715 0)
  (0.053225 0.00235046 0)
  (0.053127 0.00382907 0)
  (0.0522971 0.00683184 0)
  (0.0483845 0.0139549 0)
  (0.0430346 0.0209657 0)
  (-0.0101916 0.0311472 0)
  (0.154956 0.0173772 0)
  (-0.0915796 0.0272979 0)
  (0.00286138 0.0380084 0)
  (-0.0204057 0.00510729 0)
  (-0.00890155 -0.0484298 0)
  (0.0142685 -0.0870952 0)
  (0.0354087 -0.0821015 0)
  (0.0557326 -0.0627536 0)
  (0.0706584 -0.0410069 0)
  (0.0791164 -0.0217935 0)
  (0.0822271 -0.0060742 0)
  (0.0812023 0.00711064 0)
  (0.07776 0.0187403 0)
  (0.0734164 0.0298132 0)
  (0.0682508 0.0412756 0)
  (0.0665799 0.0549835 0)
  (0.0583666 0.0548459 0)
  (0.0436883 0.0690619 0)
  (-0.164948 0.00497952 0)
  (0.0586384 -0.0340702 0)
  (0.0461978 -0.0363768 0)
  (0.0497547 -0.0317214 0)
  (0.0548185 -0.02357 0)
  (0.0576057 -0.0154389 0)
  (0.0556717 -0.0127217 0)
  (0.0511582 -0.00937014 0)
  (0.0477838 -0.00758318 0)
  (0.0459511 -0.00659278 0)
  (0.0448534 -0.00597088 0)
  (0.0440874 -0.00550027 0)
  (0.0437748 -0.00492525 0)
  (0.0447056 -0.00367333 0)
  (0.0484711 0.000141991 0)
  (0.0476983 0.0170224 0)
  (0.0443874 0.028941 0)
  (-0.0108964 0.0409446 0)
  (0.182589 0.0391784 0)
  (-0.113322 0.0345016 0)
  (0.0145513 0.045164 0)
  (-0.0169943 0.00371023 0)
  (-0.00206649 -0.0670499 0)
  (0.0155639 -0.106663 0)
  (0.030385 -0.101785 0)
  (0.0442929 -0.0777144 0)
  (0.0536363 -0.0496306 0)
  (0.0576671 -0.0250539 0)
  (0.0579213 -0.00562248 0)
  (0.0559065 0.00970711 0)
  (0.0538251 0.0220118 0)
  (0.0526244 0.0326494 0)
  (0.0522647 0.0427502 0)
  (0.0553612 0.0540787 0)
  (0.0609968 0.0612959 0)
  (0.068951 0.0755921 0)
  (0.0880188 -0.0319294 0)
  (0.0801714 -0.0267406 0)
  (0.0800665 -0.0382684 0)
  (0.0701972 -0.0385025 0)
  (0.0646318 -0.0323557 0)
  (0.062337 -0.0238284 0)
  (0.0611171 -0.0139833 0)
  (0.0622924 -0.00823828 0)
  (0.0643233 -0.00542855 0)
  (0.0638458 -0.00357884 0)
  (0.0610559 -0.002298 0)
  (0.056871 -0.00131685 0)
  (0.0517256 -0.000486937 0)
  (0.0455873 0.00032962 0)
  (0.0380257 0.00136383 0)
  (0.0244483 0.00327818 0)
  (0.0246348 0.0237275 0)
  (0.0341357 0.0343292 0)
  (-0.0142416 0.0442399 0)
  (0.200341 0.068236 0)
  (-0.133236 0.0399085 0)
  (0.0252489 0.0514685 0)
  (-0.0140083 0.00301278 0)
  (0.00642945 -0.0840466 0)
  (0.0190649 -0.120676 0)
  (0.0272191 -0.114548 0)
  (0.0339902 -0.0860976 0)
  (0.0370832 -0.0525235 0)
  (0.0359789 -0.0240464 0)
  (0.032642 -0.00291239 0)
  (0.0297226 0.0121722 0)
  (0.029437 0.0229486 0)
  (0.0315027 0.0316994 0)
  (0.03565 0.0397379 0)
  (0.0434676 0.0481443 0)
  (0.0549955 0.0535626 0)
  (0.0703391 0.0549894 0)
  (0.0852762 0.0143797 0)
  (0.0863664 -0.00548873 0)
  (0.0785903 -0.0226552 0)
  (0.0690737 -0.0280519 0)
  (0.0609495 -0.0252998 0)
  (0.0547229 -0.0188861 0)
  (0.0500577 -0.0110369 0)
  (0.0469574 -0.00319274 0)
  (0.0440982 0.00196138 0)
  (0.0405846 0.00487528 0)
  (0.0363246 0.00664001 0)
  (0.0316966 0.00795225 0)
  (0.0268386 0.00916678 0)
  (0.0217408 0.0105344 0)
  (0.0166212 0.0122942 0)
  (0.00991448 0.0144893 0)
  (0.00995639 0.0227299 0)
  (0.0266909 0.0293276 0)
  (0.000187165 0.032267 0)
  (0.105311 0.0650108 0)
  (0.0795938 0.0589684 0)
  (-0.0770176 0.0518937 0)
  (0.272092 -0.0082433 0)
  (-0.154024 0.0431815 0)
  (0.0367807 0.0576741 0)
  (-0.00639877 -0.00670162 0)
  (0.0184887 -0.0985167 0)
  (0.026931 -0.129833 0)
  (0.027429 -0.120286 0)
  (0.0257893 -0.0874119 0)
  (0.0217592 -0.0491336 0)
  (0.015058 -0.0182793 0)
  (0.00784183 0.00208499 0)
  (0.00605927 0.0136309 0)
  (0.00785445 0.0210397 0)
  (0.0123601 0.0271123 0)
  (0.019165 0.032493 0)
  (0.0289003 0.037121 0)
  (0.0415153 0.038122 0)
  (0.0575221 0.0323952 0)
  (0.068046 0.00941803 0)
  (0.0684231 -0.00920525 0)
  (0.0621844 -0.0191803 0)
  (0.0533989 -0.0212849 0)
  (0.0442999 -0.0180901 0)
  (0.0361631 -0.0123088 0)
  (0.0294375 -0.00550448 0)
  (0.0237114 0.00124955 0)
  (0.0194766 0.00574779 0)
  (0.0157702 0.00832217 0)
  (0.0120475 0.0100189 0)
  (0.00824715 0.0114729 0)
  (0.00440312 0.0129676 0)
  (0.000692516 0.0146184 0)
  (-0.00216644 0.0161735 0)
  (-0.0044327 0.016624 0)
  (-0.00260514 0.0163219 0)
  (0.0116294 0.0163599 0)
  (-0.00577883 0.00716648 0)
  (0.0369275 0.0383703 0)
  (0.0380603 0.05142 0)
  (-0.0973841 0.0545682 0)
  (0.258049 -0.0219023 0)
  (-0.165974 0.0461555 0)
  (0.0456508 0.0612144 0)
  (0.0143197 -0.0348339 0)
  (0.0375782 -0.112494 0)
  (0.041471 -0.132979 0)
  (0.0323542 -0.117208 0)
  (0.0200144 -0.0801163 0)
  (0.00753263 -0.0387627 0)
  (-0.00450124 -0.00798912 0)
  (-0.0113227 0.00610058 0)
  (-0.0119193 0.0124969 0)
  (-0.00930179 0.0166375 0)
  (-0.00421077 0.0201539 0)
  (0.0034644 0.0232259 0)
  (0.0130495 0.0250239 0)
  (0.0244028 0.0236537 0)
  (0.0367007 0.0173867 0)
  (0.0430504 0.00416 0)
  (0.0423676 -0.00638673 0)
  (0.0364577 -0.0116929 0)
  (0.0278703 -0.0122083 0)
  (0.0187724 -0.00923783 0)
  (0.0104967 -0.00437897 0)
  (0.00312137 0.00126247 0)
  (-0.00191222 0.00621234 0)
  (-0.00502057 0.00935442 0)
  (-0.00762373 0.0114324 0)
  (-0.0101078 0.0130719 0)
  (-0.0125125 0.0145261 0)
  (-0.0146327 0.0157741 0)
  (-0.016022 0.0165486 0)
  (-0.0161235 0.0162585 0)
  (-0.0149903 0.0140392 0)
  (-0.0119642 0.010116 0)
  (-0.00652874 0.00747807 0)
  (-0.0144753 0.00520347 0)
  (0.00463019 0.0310427 0)
  (0.0190603 0.0635278 0)
  (-0.125708 0.0657145 0)
  (0.303626 -0.0288125 0)
  (-0.181276 -0.0493257 0)
  (0.0482527 0.0171107 0)
  (0.0557121 -0.0769413 0)
  (0.0702195 -0.121523 0)
  (0.0648646 -0.124406 0)
  (0.0412413 -0.100981 0)
  (0.0142482 -0.0613275 0)
  (-0.00843384 -0.0197464 0)
  (-0.0217888 0.00122752 0)
  (-0.02683 0.00841395 0)
  (-0.0269692 0.0108899 0)
  (-0.0243725 0.0123787 0)
  (-0.0198175 0.0137127 0)
  (-0.0135972 0.0148209 0)
  (-0.00609552 0.0152437 0)
  (0.00240794 0.0138127 0)
  (0.00976342 0.00988424 0)
  (0.012247 0.00330168 0)
  (0.0102195 -0.00191746 0)
  (0.00470557 -0.00421943 0)
  (-0.00326476 -0.00335433 0)
  (-0.0111755 -0.000448477 0)
  (-0.0177656 0.00311762 0)
  (-0.0219907 0.00642692 0)
  (-0.0245531 0.0092713 0)
  (-0.0260947 0.0115121 0)
  (-0.0271936 0.0133452 0)
  (-0.0280026 0.0148536 0)
  (-0.0284388 0.0159794 0)
  (-0.0282506 0.0165203 0)
  (-0.0271051 0.0161381 0)
  (-0.0247996 0.0144313 0)
  (-0.0215692 0.0112345 0)
  (-0.0177302 0.00750203 0)
  (-0.0138615 0.00559859 0)
  (-0.0127375 0.00731496 0)
  (-0.00122701 0.0254913 0)
  (0.029244 0.0636272 0)
  (-0.11056 0.0570701 0)
  (0.510335 0.00499837 0)
  (-0.197993 0.303809 0)
  (0.0578139 0.214475 0)
  (0.123078 -0.0691348 0)
  (0.120434 -0.104858 0)
  (0.0939286 -0.0940593 0)
  (0.0451703 -0.0651366 0)
  (-0.00106475 -0.0269777 0)
  (-0.0297822 0.00345984 0)
  (-0.040443 0.0115516 0)
  (-0.0437713 0.0122102 0)
  (-0.0435236 0.0115222 0)
  (-0.0414186 0.0111246 0)
  (-0.038155 0.0111274 0)
  (-0.0340842 0.0112884 0)
  (-0.0295772 0.0112737 0)
  (-0.0251982 0.0106859 0)
  (-0.0221082 0.00925455 0)
  (-0.0219108 0.00691548 0)
  (-0.0245193 0.00510102 0)
  (-0.0287402 0.00465529 0)
  (-0.0334337 0.00552766 0)
  (-0.0372811 0.00701195 0)
  (-0.0399903 0.00874852 0)
  (-0.0414742 0.0105654 0)
  (-0.0419593 0.0123854 0)
  (-0.0417133 0.0140606 0)
  (-0.0409557 0.015522 0)
  (-0.0397481 0.0166435 0)
  (-0.0380537 0.0172413 0)
  (-0.0357891 0.0170767 0)
  (-0.0328927 0.0158924 0)
  (-0.0294321 0.0135251 0)
  (-0.0256824 0.010151 0)
  (-0.0219323 0.00661981 0)
  (-0.0182214 0.00427322 0)
  (-0.0138107 0.00513333 0)
  (-0.00327298 0.0158466 0)
  (0.0266646 0.0452187 0)
  (-0.084739 0.0340526 0)
  (0.500747 0.031343 0)
  (0.192386 -0.117965 0)
  (0.154905 -0.0917242 0)
  (0.0948886 -0.0500886 0)
  (0.00397359 -0.00107099 0)
  (-0.0478906 0.0243537 0)
  (-0.0592747 0.0259941 0)
  (-0.0628985 0.023109 0)
  (-0.0628547 0.0197925 0)
  (-0.0615664 0.0172767 0)
  (-0.0598181 0.0156998 0)
  (-0.057796 0.0148272 0)
  (-0.0556053 0.0144051 0)
  (-0.0534071 0.0142237 0)
  (-0.0514687 0.0140924 0)
  (-0.0502164 0.0138282 0)
  (-0.0501305 0.0133177 0)
  (-0.0511081 0.0129241 0)
  (-0.0525534 0.0129852 0)
  (-0.0538331 0.0135161 0)
  (-0.0545104 0.0142665 0)
  (-0.0544718 0.0150764 0)
  (-0.0537181 0.0158685 0)
  (-0.052308 0.0165984 0)
  (-0.0503185 0.0171587 0)
  (-0.047832 0.0174416 0)
  (-0.0449162 0.0173197 0)
  (-0.0416473 0.016648 0)
  (-0.0381353 0.015271 0)
  (-0.034556 0.0130569 0)
  (-0.0311818 0.00998109 0)
  (-0.0283796 0.00624978 0)
  (-0.0265155 0.00233466 0)
  (-0.0256814 -0.00130298 0)
  (-0.0243924 -0.00101944 0)
  (-0.0190886 0.00772215 0)
  (-0.0117612 0.0250084 0)
  (-0.104015 0.0185456 0)
  (0.298119 0.0507139 0)
  (-0.165116 -0.075084 0)
  (-0.0687527 -0.0607873 0)
  (-0.0952743 -0.0463619 0)
  (-0.0982462 -0.039759 0)
  (-0.0955542 -0.0439798 0)
  (-0.0885215 -0.0556136 0)
  (-0.0837712 -0.0646765 0)
  (-0.0804738 -0.0705534 0)
  (-0.0781091 -0.0739256 0)
  (-0.0762886 -0.075499 0)
  (-0.0746987 -0.0758542 0)
  (-0.0731319 -0.0754313 0)
  (-0.0714855 -0.0746115 0)
  (-0.0697695 -0.0737961 0)
  (-0.0681239 -0.0734 0)
  (-0.0667662 -0.0736838 0)
  (-0.0657677 -0.0744502 0)
  (-0.0649872 -0.0752975 0)
  (-0.0641894 -0.0759254 0)
  (-0.0631722 -0.0762153 0)
  (-0.0618125 -0.0761006 0)
  (-0.060028 -0.0755559 0)
  (-0.0577614 -0.0746123 0)
  (-0.0549849 -0.0733862 0)
  (-0.0517125 -0.0720422 0)
  (-0.0480078 -0.0707947 0)
  (-0.0439985 -0.0699109 0)
  (-0.0398948 -0.0697026 0)
  (-0.0360087 -0.0704784 0)
  (-0.0327709 -0.0724271 0)
  (-0.0307136 -0.0754129 0)
  (-0.030334 -0.0786642 0)
  (-0.031837 -0.080207 0)
  (-0.0334608 -0.0806374 0)
  (-0.0329998 -0.0730218 0)
  (-0.038656 -0.0563023 0)
  (-0.0835132 -0.0535566 0)
  (0.24391 -0.0476932 0)
  (-0.226278 -0.173741 0)
  (-0.174131 0.0204927 0)
  (-0.162549 0.259333 0)
  (-0.1582 0.234125 0)
  (-0.156661 0.227009 0)
  (-0.14469 0.231754 0)
  (-0.128905 0.240988 0)
  (-0.114638 0.251557 0)
  (-0.104745 0.25914 0)
  (-0.0982251 0.263861 0)
  (-0.0939521 0.266559 0)
  (-0.0910049 0.267942 0)
  (-0.0887321 0.268507 0)
  (-0.0866927 0.26862 0)
  (-0.0845963 0.26861 0)
  (-0.0822864 0.268829 0)
  (-0.079757 0.269607 0)
  (-0.0771295 0.271092 0)
  (-0.0745227 0.273111 0)
  (-0.0719533 0.275346 0)
  (-0.069357 0.27753 0)
  (-0.0666506 0.279501 0)
  (-0.0637573 0.281155 0)
  (-0.0606044 0.282436 0)
  (-0.0571364 0.283329 0)
  (-0.0533402 0.283853 0)
  (-0.0492676 0.284035 0)
  (-0.0450473 0.283912 0)
  (-0.0408931 0.283549 0)
  (-0.0371003 0.283064 0)
  (-0.0340316 0.282641 0)
  (-0.0321119 0.282527 0)
  (-0.0318089 0.28294 0)
  (-0.033251 0.283686 0)
  (-0.0349879 0.282763 0)
  (-0.0347391 0.283317 0)
  (-0.0355424 0.278538 0)
  (-0.0557472 0.271157 0)
  (-0.110115 0.282414 0)
  (0.325337 0.329462 0)
)
;

boundaryField
{
  floor
  {
    type noSlip;
  }
  ceiling
  {
    type noSlip;
  }
  sWall
  {
    type noSlip;
  }
  nWall
  {
    type noSlip;
  }
  sideWalls
  {
    type empty;
  }
  glass1
  {
    type noSlip;
  }
  glass2
  {
    type noSlip;
  }
  sun
  {
    type noSlip;
  }
  heatsource1
  {
    type noSlip;
  }
  heatsource2
  {
    type noSlip;
  }
  Table_master
  {
    type noSlip;
  }
  Table_slave
  {
    type noSlip;
  }
  inlet
  {
    type fixedValue;
    value uniform (0.277164 -0.114805 0);
  }
  outlet
  {
    type zeroGradient;
  }
} 	// ************************************************************************* //

