// -*- C++ -*-
// File generated by PyFoam - sorry for the ugliness

FoamFile
{
 version 2.0;
 format ascii;
 class volScalarField;
 location "200";
 object T;
}

dimensions [ 0 0 0 1 0 0 0 ];

internalField nonuniform List<scalar> 459
(
  302.696
  302.351
  302.35
  302.361
  302.371
  302.379
  302.385
  302.391
  302.396
  302.399
  302.399
  302.395
  302.387
  302.376
  302.362
  301.253
  301.243
  301.244
  301.197
  301.148
  301.144
  301.154
  301.144
  301.115
  301.103
  301.099
  301.101
  301.109
  301.123
  301.162
  301.233
  301.281
  301.271
  301.266
  302.948
  302.423
  302.398
  302.416
  302.434
  302.451
  302.465
  302.477
  302.485
  302.491
  302.489
  302.478
  302.456
  302.421
  302.374
  302.323
  302.183
  301.327
  301.365
  301.406
  301.446
  301.432
  301.336
  301.251
  301.211
  301.205
  301.206
  301.219
  301.243
  301.285
  301.359
  301.449
  301.548
  301.526
  301.41
  301.305
  303.182
  302.507
  302.453
  302.478
  302.508
  302.535
  302.56
  302.581
  302.596
  302.605
  302.604
  302.588
  302.555
  302.503
  302.43
  302.347
  302.274
  301.735
  301.706
  301.749
  301.821
  301.889
  301.902
  301.377
  301.303
  301.355
  301.407
  301.46
  301.516
  301.577
  301.645
  301.73
  301.808
  301.676
  301.615
  301.572
  303.396
  302.6
  302.509
  302.538
  302.58
  302.621
  302.659
  302.692
  302.718
  302.734
  302.738
  302.723
  302.686
  302.626
  302.54
  302.429
  302.298
  302.18
  302.082
  302.127
  302.204
  302.287
  302.342
  302.377
  302.403
  302.407
  302.41
  302.414
  302.419
  302.424
  302.429
  302.433
  302.419
  302.332
  302.262
  302.209
  302.195
  303.592
  302.697
  302.564
  302.589
  302.641
  302.694
  302.746
  302.793
  302.833
  302.861
  302.874
  302.868
  302.841
  302.792
  302.724
  302.643
  302.561
  302.491
  302.443
  302.432
  302.446
  302.462
  302.473
  302.478
  302.48
  302.482
  302.485
  302.491
  302.5
  302.51
  302.522
  302.533
  302.542
  302.54
  302.542
  302.549
  302.546
  302.579
  302.569
  302.574
  303.76
  302.802
  302.628
  302.631
  302.686
  302.746
  302.807
  302.866
  302.919
  302.962
  302.987
  302.994
  302.979
  302.943
  302.887
  302.817
  302.743
  302.678
  302.628
  302.597
  302.58
  302.569
  302.561
  302.553
  302.546
  302.541
  302.541
  302.547
  302.559
  302.575
  302.595
  302.616
  302.638
  302.661
  302.684
  302.705
  302.724
  302.731
  302.665
  302.616
  303.893
  302.958
  302.759
  302.697
  302.726
  302.781
  302.842
  302.904
  302.968
  303.026
  303.065
  303.085
  303.086
  303.068
  303.03
  302.974
  302.907
  302.842
  302.785
  302.74
  302.705
  302.677
  302.654
  302.634
  302.616
  302.602
  302.593
  302.593
  302.604
  302.624
  302.651
  302.679
  302.706
  302.731
  302.753
  302.77
  302.781
  302.782
  302.753
  302.633
  304.118
  303.374
  303.157
  302.973
  302.88
  302.872
  302.908
  302.958
  303.029
  303.084
  303.122
  303.146
  303.157
  303.155
  303.139
  303.105
  303.053
  302.994
  302.937
  302.884
  302.838
  302.799
  302.764
  302.732
  302.702
  302.675
  302.652
  302.637
  302.635
  302.648
  302.673
  302.703
  302.731
  302.756
  302.777
  302.796
  302.813
  302.834
  302.856
  302.889
  304.427
  304.111
  303.917
  303.684
  303.482
  303.345
  303.266
  303.229
  303.211
  303.206
  303.21
  303.215
  303.218
  303.217
  303.208
  303.19
  303.161
  303.121
  303.075
  303.026
  302.977
  302.931
  302.888
  302.848
  302.808
  302.77
  302.733
  302.701
  302.678
  302.667
  302.669
  302.682
  302.697
  302.71
  302.716
  302.722
  302.737
  302.759
  302.792
  302.893
  303.267
  303.503
  303.482
  303.424
  303.378
  303.348
  303.331
  303.317
  303.305
  303.296
  303.286
  303.276
  303.264
  303.249
  303.229
  303.204
  303.174
  303.138
  303.098
  303.057
  303.014
  302.971
  302.928
  302.885
  302.842
  302.8
  302.761
  302.729
  302.706
  302.695
  302.692
  302.693
  302.692
  302.69
  302.69
  302.693
  302.704
  302.743
  303.284
  303.471
  303.465
  303.438
  303.412
  303.392
  303.378
  303.365
  303.353
  303.341
  303.329
  303.316
  303.302
  303.287
  303.271
  303.253
  303.232
  303.208
  303.182
  303.152
  303.119
  303.084
  303.046
  303.005
  302.963
  302.92
  302.876
  302.833
  302.793
  302.761
  302.738
  302.723
  302.712
  302.704
  302.7
  302.7
  302.706
  302.748
  303.373
  303.312
  303.316
  303.437
  303.438
  303.425
  303.411
  303.399
  303.387
  303.377
  303.366
  303.355
  303.343
  303.331
  303.318
  303.305
  303.29
  303.275
  303.259
  303.242
  303.224
  303.206
  303.186
  303.165
  303.142
  303.117
  303.09
  303.061
  303.028
  302.991
  302.949
  302.906
  302.866
  302.832
  302.805
  302.785
  302.769
  302.754
  302.741
  302.766
)
;

boundaryField
{
  floor
  {
    type wallHeatTransfer;
    Tinf uniform 305.2;
    alphaWall uniform 0.24;
    value nonuniform List<scalar> 29
(
  302.706
  302.115
  302.056
  302.048
  302.137
  302.255
  302.312
  302.338
  302.345
  302.29
  302.223
  302.158
  302.104
  302.064
  302.041
  302.019
  302.014
  302.016
  302.019
  302.076
  302.076
  301.996
  302.104
  302.52
  302.706
  302.115
  302.044
  302.164
  302.489
)
;
  }
  ceiling
  {
    type wallHeatTransfer;
    Tinf uniform 303.2;
    alphaWall uniform 0.24;
    value nonuniform List<scalar> 43
(
  303.361
  303.305
  303.31
  303.424
  303.423
  303.41
  303.396
  303.384
  303.373
  303.362
  303.351
  303.341
  303.33
  303.318
  303.306
  303.293
  303.28
  303.266
  303.252
  303.237
  303.221
  303.205
  303.188
  303.17
  303.15
  303.129
  303.106
  303.08
  303.051
  303.017
  302.979
  302.939
  302.901
  302.869
  302.845
  302.827
  302.812
  302.8
  302.788
  302.813
  304.373
  304.077
  303.279
)
;
  }
  sWall
  {
    type wallHeatTransfer;
    Tinf uniform 315.2;
    alphaWall uniform 0.36;
    value uniform 304.539;
  }
  nWall
  {
    type wallHeatTransfer;
    Tinf uniform 307.2;
    alphaWall uniform 0.36;
    value nonuniform List<scalar> 6
(
  303.256
  303.266
  303.292
  303.254
  303.31
  303.444
)
;
  }
  sideWalls
  {
    type empty;
  }
  glass1
  {
    type wallHeatTransfer;
    Tinf uniform 315.2;
    alphaWall uniform 4.3;
    value nonuniform List<scalar> 9
(
  312.065
  310.955
  310.279
  309.804
  309.468
  309.216
  309.012
  309.074
  309.316
)
;
  }
  glass2
  {
    type wallHeatTransfer;
    Tinf uniform 307.2;
    alphaWall uniform 4.3;
    value nonuniform List<scalar> 2
(
  305.607
  305.5
)
;
  }
  sun
  {
    type wallHeatTransfer;
    Tinf uniform 305.2;
    alphaWall uniform 0.24;
    value nonuniform List<scalar> 14
(
  303.046
  302.743
  302.769
  302.768
  302.766
  302.763
  302.76
  302.756
  302.753
  302.749
  302.743
  302.735
  302.726
  302.715
)
;
  }
  heatsource1
  {
    type fixedGradient;
    gradient uniform 0;
  }
  heatsource2
  {
    type fixedGradient;
    gradient uniform 0;
  }
  Table_master
  {
    type zeroGradient;
  }
  Table_slave
  {
    type zeroGradient;
  }
  inlet
  {
    type fixedValue;
    value uniform 299.15;
  }
  outlet
  {
    type zeroGradient;
  }
} 	// ************************************************************************* //

