// -*- C++ -*-
// File generated by PyFoam - sorry for the ugliness

FoamFile
{
 version 2.0;
 format ascii;
 class volScalarField;
 location "300";
 object T;
}

dimensions [ 0 0 0 1 0 0 0 ];

internalField nonuniform List<scalar> 459
(
  302.833
  302.507
  302.497
  302.497
  302.497
  302.497
  302.497
  302.496
  302.496
  302.495
  302.493
  302.489
  302.484
  302.477
  302.47
  302.352
  302.337
  302.339
  302.339
  302.338
  302.336
  302.333
  302.331
  302.328
  302.326
  302.322
  302.319
  302.315
  302.311
  302.307
  302.302
  302.297
  302.29
  302.299
  303.067
  302.535
  302.51
  302.514
  302.518
  302.523
  302.526
  302.529
  302.53
  302.531
  302.528
  302.519
  302.506
  302.486
  302.463
  302.442
  302.372
  302.351
  302.339
  302.34
  302.34
  302.337
  302.332
  302.325
  302.317
  302.308
  302.299
  302.291
  302.282
  302.274
  302.266
  302.259
  302.254
  302.25
  302.246
  302.276
  303.294
  302.582
  302.533
  302.543
  302.555
  302.567
  302.578
  302.587
  302.593
  302.595
  302.591
  302.578
  302.555
  302.523
  302.485
  302.451
  302.427
  302.364
  302.354
  302.354
  302.352
  302.346
  302.341
  302.33
  302.317
  302.303
  302.289
  302.275
  302.262
  302.25
  302.238
  302.229
  302.226
  302.224
  302.223
  302.263
  303.508
  302.646
  302.559
  302.572
  302.594
  302.615
  302.636
  302.654
  302.667
  302.674
  302.671
  302.654
  302.622
  302.577
  302.525
  302.474
  302.431
  302.405
  302.385
  302.375
  302.37
  302.363
  302.355
  302.348
  302.339
  302.334
  302.33
  302.326
  302.323
  302.319
  302.313
  302.307
  302.3
  302.273
  302.246
  302.227
  302.26
  303.704
  302.727
  302.59
  302.596
  302.624
  302.655
  302.686
  302.716
  302.74
  302.755
  302.757
  302.74
  302.702
  302.648
  302.586
  302.524
  302.472
  302.432
  302.405
  302.388
  302.38
  302.372
  302.363
  302.358
  302.353
  302.35
  302.348
  302.345
  302.342
  302.338
  302.331
  302.322
  302.31
  302.291
  302.264
  302.237
  302.249
  302.297
  302.327
  302.341
  303.873
  302.828
  302.643
  302.618
  302.644
  302.678
  302.716
  302.754
  302.79
  302.818
  302.83
  302.816
  302.777
  302.716
  302.646
  302.575
  302.513
  302.461
  302.422
  302.396
  302.386
  302.379
  302.372
  302.368
  302.366
  302.365
  302.364
  302.363
  302.36
  302.354
  302.346
  302.333
  302.319
  302.301
  302.276
  302.249
  302.245
  302.262
  302.269
  302.304
  304.003
  302.996
  302.798
  302.7
  302.681
  302.7
  302.732
  302.768
  302.806
  302.852
  302.878
  302.868
  302.828
  302.765
  302.691
  302.616
  302.547
  302.486
  302.435
  302.4
  302.391
  302.385
  302.38
  302.378
  302.379
  302.38
  302.38
  302.38
  302.377
  302.371
  302.36
  302.344
  302.327
  302.308
  302.287
  302.263
  302.252
  302.255
  302.261
  302.29
  304.229
  303.472
  303.254
  303.051
  302.911
  302.841
  302.82
  302.828
  302.851
  302.891
  302.906
  302.887
  302.841
  302.778
  302.707
  302.635
  302.565
  302.501
  302.443
  302.4
  302.394
  302.391
  302.388
  302.389
  302.391
  302.394
  302.396
  302.396
  302.394
  302.389
  302.38
  302.366
  302.343
  302.325
  302.31
  302.295
  302.293
  302.311
  302.335
  302.497
  304.543
  304.222
  303.949
  303.679
  303.446
  303.271
  303.153
  303.081
  303.042
  303.002
  302.946
  302.881
  302.811
  302.742
  302.674
  302.61
  302.55
  302.494
  302.443
  302.398
  302.398
  302.398
  302.396
  302.399
  302.404
  302.408
  302.411
  302.413
  302.414
  302.413
  302.413
  302.414
  302.419
  302.429
  302.452
  302.485
  302.529
  302.571
  302.598
  302.662
  297.939
  300.734
  302.025
  302.484
  302.661
  302.729
  302.748
  302.743
  302.724
  302.694
  302.657
  302.617
  302.576
  302.536
  302.497
  302.46
  302.423
  302.389
  302.402
  302.406
  302.405
  302.41
  302.416
  302.422
  302.428
  302.433
  302.438
  302.444
  302.449
  302.456
  302.463
  302.475
  302.495
  302.521
  302.55
  302.573
  302.584
  302.595
  298.434
  300.686
  301.607
  302.065
  302.292
  302.4
  302.447
  302.462
  302.467
  302.466
  302.46
  302.452
  302.441
  302.429
  302.416
  302.403
  302.389
  302.375
  302.408
  302.417
  302.418
  302.424
  302.43
  302.435
  302.44
  302.446
  302.451
  302.457
  302.464
  302.47
  302.478
  302.488
  302.502
  302.521
  302.541
  302.558
  302.548
  302.576
  299.794
  299.739
  299.736
  301.11
  301.66
  302.036
  302.169
  302.234
  302.268
  302.286
  302.297
  302.306
  302.314
  302.322
  302.329
  302.335
  302.341
  302.347
  302.353
  302.361
  302.42
  302.445
  302.449
  302.454
  302.458
  302.462
  302.465
  302.468
  302.471
  302.474
  302.477
  302.48
  302.484
  302.49
  302.498
  302.514
  302.525
  302.53
  302.53
  302.565
)
;

boundaryField
{
  floor
  {
    type wallHeatTransfer;
    Tinf uniform 305.2;
    alphaWall uniform 0.24;
    value nonuniform List<scalar> 29
(
  302.801
  302.848
  302.767
  302.765
  302.781
  302.792
  302.803
  302.819
  302.837
  302.855
  302.872
  302.888
  302.904
  302.92
  302.936
  302.953
  302.97
  302.99
  302.999
  303.041
  303.041
  302.906
  302.826
  302.778
  302.801
  302.848
  302.821
  302.724
  302.682
)
;
  }
  ceiling
  {
    type wallHeatTransfer;
    Tinf uniform 303.2;
    alphaWall uniform 0.24;
    value nonuniform List<scalar> 43
(
  300.012
  299.952
  299.942
  301.229
  301.751
  302.11
  302.238
  302.303
  302.339
  302.359
  302.373
  302.386
  302.397
  302.409
  302.42
  302.43
  302.441
  302.451
  302.462
  302.474
  302.53
  302.547
  302.55
  302.553
  302.557
  302.559
  302.56
  302.561
  302.561
  302.561
  302.56
  302.56
  302.56
  302.562
  302.566
  302.576
  302.585
  302.591
  302.594
  302.63
  304.481
  304.182
  298.707
)
;
  }
  sWall
  {
    type wallHeatTransfer;
    Tinf uniform 315.2;
    alphaWall uniform 0.36;
    value uniform 301.234;
  }
  nWall
  {
    type wallHeatTransfer;
    Tinf uniform 307.2;
    alphaWall uniform 0.36;
    value nonuniform List<scalar> 6
(
  303.181
  303.121
  303.03
  303.229
  303.207
  303.241
)
;
  }
  sideWalls
  {
    type empty;
  }
  glass1
  {
    type wallHeatTransfer;
    Tinf uniform 315.2;
    alphaWall uniform 4.3;
    value nonuniform List<scalar> 9
(
  312.148
  311.277
  310.679
  310.204
  309.829
  309.521
  309.256
  309.299
  309.516
)
;
  }
  glass2
  {
    type wallHeatTransfer;
    Tinf uniform 307.2;
    alphaWall uniform 4.3;
    value nonuniform List<scalar> 2
(
  305.308
  305.455
)
;
  }
  sun
  {
    type wallHeatTransfer;
    Tinf uniform 305.2;
    alphaWall uniform 0.24;
    value nonuniform List<scalar> 14
(
  303.171
  302.88
  302.879
  302.869
  302.861
  302.854
  302.848
  302.843
  302.838
  302.832
  302.827
  302.821
  302.814
  302.808
)
;
  }
  heatsource1
  {
    type fixedGradient;
    gradient uniform 0;
  }
  heatsource2
  {
    type fixedGradient;
    gradient uniform 0;
  }
  Table_master
  {
    type zeroGradient;
  }
  Table_slave
  {
    type zeroGradient;
  }
  inlet
  {
    type fixedValue;
    value uniform 293.15;
  }
  outlet
  {
    type zeroGradient;
  }
} 	// ************************************************************************* //

