/*--------------------------------*- C++ -*----------------------------------*\
  =========                 |
  \\      /  F ield         | OpenFOAM: The Open Source CFD Toolbox
   \\    /   O peration     | Website:  https://openfoam.org
    \\  /    A nd           | Version:  6
     \\/     M anipulation  |
\*---------------------------------------------------------------------------*/
FoamFile
{
    version     2.0;
    format      ascii;
    class       volScalarField;
    location    "300";
    object      epsilon;
}
// * * * * * * * * * * * * * * * * * * * * * * * * * * * * * * * * * * * * * //

dimensions      [0 2 -3 0 0 0 0];

internalField   nonuniform List<scalar> 
459
(
0.000445184
0.000577225
0.000603781
0.000693196
0.000783722
0.00087512
0.000971065
0.00107083
0.00114353
0.00117187
0.00114166
0.00104877
0.000903951
0.000734745
0.000578901
3.43007e-05
6.0853e-05
8.45357e-05
8.22062e-05
7.37813e-05
6.38506e-05
5.27072e-05
4.30152e-05
3.5302e-05
2.92711e-05
2.45394e-05
2.08107e-05
1.78378e-05
1.54199e-05
1.34004e-05
1.16366e-05
1.00069e-05
9.51912e-06
7.59034e-06
0.0011527
0.00167231
0.000546147
0.000525375
0.000549851
0.000589983
0.000648453
0.000725619
0.000798259
0.000843311
0.00084202
0.000787755
0.000687839
0.000565256
0.000480636
0.000595517
0.000130739
4.41413e-05
0.000101185
0.000104299
9.36763e-05
7.92962e-05
6.63388e-05
5.94633e-05
4.8374e-05
3.85735e-05
3.07769e-05
2.47393e-05
2.00971e-05
1.65295e-05
1.37874e-05
1.17935e-05
1.05539e-05
1.00555e-05
3.08732e-05
2.01387e-05
0.00212161
0.00413869
0.000696872
0.000510231
0.000533156
0.000597644
0.000691986
0.000809802
0.000918165
0.000984278
0.000990274
0.000934877
0.000830091
0.00069593
0.000580403
0.000511198
0.00058061
0.000340202
0.000234315
0.000172042
0.000130658
0.00010217
8.60375e-05
0.000156276
0.000107643
7.7129e-05
5.73398e-05
4.4043e-05
3.48072e-05
2.82102e-05
2.34107e-05
1.9944e-05
1.53953e-05
1.33606e-05
6.22086e-05
3.35961e-05
0.00344974
0.00857331
0.00113117
0.000531258
0.000533824
0.000627183
0.000774158
0.000955422
0.00109986
0.00117254
0.00116844
0.00109591
0.000971584
0.000809461
0.000663598
0.000556256
0.000523009
0.000984616
0.000542252
0.000318412
0.000210228
0.000150479
0.000114678
9.93422e-05
0.000229654
0.000175911
0.000144741
0.00012459
0.000109129
9.47048e-05
8.19888e-05
6.96506e-05
5.66424e-05
3.34294e-05
2.26763e-05
0.000113482
4.60171e-05
0.00526778
0.0151823
0.0022551
0.000658536
0.000568757
0.000692791
0.000953198
0.00122718
0.00138564
0.00143575
0.00139779
0.0012899
0.00112646
0.000928968
0.000730808
0.000558385
0.000431109
0.000371249
0.0002935
0.000226173
0.000174432
0.000136627
0.000109861
9.34669e-05
9.26237e-05
8.78849e-05
8.29581e-05
7.79792e-05
7.22712e-05
6.52671e-05
5.79441e-05
5.11076e-05
4.49489e-05
3.60756e-05
2.83425e-05
7.48101e-05
5.64171e-05
8.43688e-05
0.000143766
0.000205595
0.00777595
0.0223959
0.00503393
0.00130609
0.000885325
0.00101383
0.00149873
0.00176542
0.00184345
0.00181406
0.00171493
0.00155433
0.00133592
0.00107913
0.000818445
0.000589305
0.000418172
0.000311537
0.000244437
0.000194724
0.000155025
0.000124895
0.00010365
9.07873e-05
8.59886e-05
8.49917e-05
8.50591e-05
8.46684e-05
8.25879e-05
7.74078e-05
6.80399e-05
5.79041e-05
4.8774e-05
4.06129e-05
3.5771e-05
5.25362e-05
5.74497e-05
6.75894e-05
0.000266998
0.000240264
0.0106551
0.0266792
0.0102686
0.00420493
0.00286128
0.00275013
0.0028363
0.00273821
0.00256139
0.00236521
0.00215244
0.00190083
0.0015965
0.00125591
0.000918709
0.000627849
0.000417337
0.000288563
0.000215133
0.000168211
0.000134307
0.000110509
9.5575e-05
8.85459e-05
8.81244e-05
9.17598e-05
9.71509e-05
0.000103153
0.000108637
0.000111484
0.000107959
9.5226e-05
8.28729e-05
7.31689e-05
7.08012e-05
8.39014e-05
0.000113999
0.00018852
0.000412828
0.000400023
0.0112787
0.0289759
0.0161268
0.0109393
0.00817914
0.00636733
0.00502442
0.00411173
0.00350474
0.00307428
0.00270821
0.0023249
0.00188928
0.00142674
0.000989119
0.000623604
0.000378746
0.000240705
0.000170702
0.000133144
0.000109191
9.45945e-05
8.75798e-05
8.69195e-05
9.14681e-05
0.000100035
0.000111918
0.000127176
0.000146082
0.000168548
0.000193389
0.000214313
0.000227047
0.00025777
0.000324042
0.000512358
0.000975266
0.00179714
0.0048077
0.00134874
0.0103925
0.0173272
0.0137851
0.0104492
0.00803975
0.00642746
0.00538201
0.00470981
0.00423876
0.00381935
0.00334955
0.00277903
0.00211799
0.0014689
0.000910885
0.000464971
0.000257458
0.000165725
0.00012156
9.778e-05
8.40999e-05
7.75829e-05
7.67562e-05
8.0709e-05
8.88831e-05
0.000101118
0.000117841
0.000140158
0.000169866
0.00020955
0.000262691
0.000333726
0.0004302
0.000567605
0.000765189
0.00102119
0.00129654
0.00151966
0.00169937
0.00106303
0.00396761
0.00605725
0.00686772
0.00688819
0.00658659
0.00609642
0.00541033
0.00455386
0.00359484
0.00255566
0.00148414
0.000809275
0.000431124
0.000230836
0.000138122
9.48906e-05
7.34629e-05
6.25234e-05
5.77724e-05
5.71876e-05
5.99283e-05
6.56959e-05
7.44079e-05
8.62992e-05
0.000101965
0.000122426
0.000149258
0.000184839
0.000232746
0.000299035
0.000389857
0.000511889
0.000667064
0.000837075
0.000973717
0.0010219
0.000925253
0.000581226
0.00309035
0.00665177
0.00725842
0.00585056
0.00512432
0.00436639
0.00342328
0.00247892
0.00167854
0.00107023
0.000612948
0.000332209
0.000181281
0.00010586
6.98477e-05
5.24797e-05
4.42142e-05
4.09975e-05
4.10809e-05
4.36352e-05
4.82943e-05
5.49316e-05
6.3722e-05
7.50636e-05
8.96011e-05
0.000108318
0.000132703
0.000165017
0.00020866
0.000267858
0.000348086
0.000454003
0.000584201
0.000732284
0.000829445
0.000910085
0.000828118
0.00060836
0.00215048
0.00254689
0.00286222
0.00350036
0.00307375
0.00257913
0.00227474
0.00195113
0.0015767
0.00119352
0.000845579
0.000561751
0.000352062
0.000216604
0.000139373
9.69001e-05
7.28859e-05
5.90214e-05
5.14258e-05
4.81541e-05
4.80713e-05
5.05065e-05
5.51755e-05
6.20299e-05
7.09072e-05
8.21195e-05
9.61437e-05
0.000113685
0.000135846
0.000164512
0.000201953
0.000249324
0.000309318
0.000385262
0.000479824
0.000623324
0.000650621
0.000590599
0.000484926
0.000380852
)
;

boundaryField
{
    floor
    {
        Cmu             0.09;
        kappa           0.41;
        E               9.8;
        type            epsilonWallFunction;
        value           nonuniform List<scalar> 
29
(
0.000578901
3.43007e-05
6.0853e-05
8.45357e-05
8.22062e-05
7.37813e-05
6.38506e-05
5.27072e-05
4.30152e-05
3.5302e-05
2.92711e-05
2.45394e-05
2.08107e-05
1.78378e-05
1.54199e-05
1.34004e-05
1.16366e-05
1.00069e-05
9.51912e-06
7.59034e-06
7.59034e-06
2.01387e-05
3.35961e-05
4.60171e-05
0.000578901
3.43007e-05
4.41413e-05
0.000340202
0.000984616
)
;
    }
    ceiling
    {
        Cmu             0.09;
        kappa           0.41;
        E               9.8;
        type            epsilonWallFunction;
        value           nonuniform List<scalar> 
43
(
0.00215048
0.00254689
0.00286222
0.00350036
0.00307375
0.00257913
0.00227474
0.00195113
0.0015767
0.00119352
0.000845579
0.000561751
0.000352062
0.000216604
0.000139373
9.69001e-05
7.28859e-05
5.90214e-05
5.14258e-05
4.81541e-05
4.80713e-05
5.05065e-05
5.51755e-05
6.20299e-05
7.09072e-05
8.21195e-05
9.61437e-05
0.000113685
0.000135846
0.000164512
0.000201953
0.000249324
0.000309318
0.000385262
0.000479824
0.000623324
0.000650621
0.000590599
0.000484926
0.000380852
0.0103925
0.0173272
0.00309035
)
;
    }
    sWall
    {
        Cmu             0.09;
        kappa           0.41;
        E               9.8;
        type            epsilonWallFunction;
        value           uniform 0.00215048;
    }
    nWall
    {
        Cmu             0.09;
        kappa           0.41;
        E               9.8;
        type            epsilonWallFunction;
        value           nonuniform List<scalar> 6(0.000205595 0.000240264 0.000400023 0.000581226 0.00060836 0.000380852);
    }
    sideWalls
    {
        type            empty;
    }
    glass1
    {
        Cmu             0.09;
        kappa           0.41;
        E               9.8;
        type            epsilonWallFunction;
        value           nonuniform List<scalar> 9(0.000445184 0.0011527 0.00212161 0.00344974 0.00526778 0.00777595 0.0106551 0.0112787 0.0103925);
    }
    glass2
    {
        Cmu             0.09;
        kappa           0.41;
        E               9.8;
        type            epsilonWallFunction;
        value           nonuniform List<scalar> 2(0.00134874 0.00106303);
    }
    sun
    {
        Cmu             0.09;
        kappa           0.41;
        E               9.8;
        type            epsilonWallFunction;
        value           nonuniform List<scalar> 
14
(
0.000445184
0.000577225
0.000603781
0.000693196
0.000783722
0.00087512
0.000971065
0.00107083
0.00114353
0.00117187
0.00114166
0.00104877
0.000903951
0.000734745
)
;
    }
    heatsource1
    {
        Cmu             0.09;
        kappa           0.41;
        E               9.8;
        type            epsilonWallFunction;
        value           nonuniform List<scalar> 3(8.43688e-05 0.000143766 0.000205595);
    }
    heatsource2
    {
        Cmu             0.09;
        kappa           0.41;
        E               9.8;
        type            epsilonWallFunction;
        value           nonuniform List<scalar> 4(0.000595517 0.000130739 0.000130739 0.00058061);
    }
    Table_master
    {
        Cmu             0.09;
        kappa           0.41;
        E               9.8;
        type            epsilonWallFunction;
        value           nonuniform List<scalar> 9(0.000156276 0.000107643 7.7129e-05 5.73398e-05 4.4043e-05 3.48072e-05 2.82102e-05 2.34107e-05 1.9944e-05);
    }
    Table_slave
    {
        Cmu             0.09;
        kappa           0.41;
        E               9.8;
        type            epsilonWallFunction;
        value           nonuniform List<scalar> 9(0.000229654 0.000175911 0.000144741 0.00012459 0.000109129 9.47048e-05 8.19888e-05 6.96506e-05 5.66424e-05);
    }
    inlet
    {
        type            turbulentMixingLengthDissipationRateInlet;
        mixingLength    0.01;
        phi             phi;
        k               k;
        value           uniform 0.000101881;
    }
    outlet
    {
        type            zeroGradient;
    }
}


// ************************************************************************* //
