/*--------------------------------*- C++ -*----------------------------------*\
  =========                 |
  \\      /  F ield         | OpenFOAM: The Open Source CFD Toolbox
   \\    /   O peration     | Website:  https://openfoam.org
    \\  /    A nd           | Version:  6
     \\/     M anipulation  |
\*---------------------------------------------------------------------------*/
FoamFile
{
    version     2.0;
    format      ascii;
    class       volVectorField;
    location    "540";
    object      U;
}
// * * * * * * * * * * * * * * * * * * * * * * * * * * * * * * * * * * * * * //

dimensions      [0 1 -1 0 0 0 0];

internalField   nonuniform List<vector> 
459
(
(0.0335784 0.0727897 0)
(-0.141617 0.0208281 0)
(-0.161013 0.0153119 0)
(-0.187679 0.0110532 0)
(-0.207909 0.00615537 0)
(-0.220835 0.000877233 0)
(-0.225191 -0.00484633 0)
(-0.219396 -0.0110465 0)
(-0.203506 -0.0175565 0)
(-0.178196 -0.0234315 0)
(-0.145833 -0.0277611 0)
(-0.10985 -0.0299165 0)
(-0.0737943 -0.0294522 0)
(-0.03844 -0.0260733 0)
(0.00582708 -0.0214584 0)
(-0.110479 0.00373332 0)
(0.0379852 -0.0101593 0)
(0.0319432 -0.0121732 0)
(0.0408544 -0.0108282 0)
(0.0536376 -0.00854019 0)
(0.0637884 -0.00608119 0)
(0.0697341 -0.00349101 0)
(0.0722386 -0.00204159 0)
(0.0728091 -0.00151937 0)
(0.0726917 -0.00133422 0)
(0.0723511 -0.00118683 0)
(0.071764 -0.000983603 0)
(0.0707317 -0.000616792 0)
(0.0688402 0.000162671 0)
(0.0651746 0.00194363 0)
(0.0579316 0.00574633 0)
(0.0478678 0.0114193 0)
(-0.0183646 0.0223903 0)
(0.123534 -0.0134874 0)
(0.185899 0.149538 0)
(-0.13537 0.0553307 0)
(-0.131764 0.0449181 0)
(-0.15966 0.0361728 0)
(-0.179735 0.0259804 0)
(-0.192812 0.0144277 0)
(-0.197734 0.00117962 0)
(-0.192741 -0.0137776 0)
(-0.178239 -0.0288944 0)
(-0.155331 -0.0417633 0)
(-0.126709 -0.0503648 0)
(-0.0958014 -0.0536147 0)
(-0.0661977 -0.0511586 0)
(-0.0409905 -0.0431501 0)
(-0.0219278 -0.0300989 0)
(-0.00991224 -0.0115925 0)
(-0.00578772 0.0133492 0)
(-0.142062 0.00157208 0)
(0.0433751 -0.0321895 0)
(0.0408796 -0.0270796 0)
(0.0495755 -0.0213 0)
(0.0598448 -0.0158539 0)
(0.0675761 -0.0104436 0)
(0.071349 -0.00375068 0)
(0.0720656 0.000107256 0)
(0.0719554 0.00163712 0)
(0.0720569 0.00226947 0)
(0.0722949 0.00267369 0)
(0.0724526 0.00309247 0)
(0.0724644 0.00378389 0)
(0.0722619 0.00526014 0)
(0.0712035 0.00876707 0)
(0.0663763 0.0178852 0)
(0.0588098 0.0277819 0)
(0.00100819 0.0391921 0)
(0.167393 0.0220422 0)
(0.32551 0.224426 0)
(-0.152722 0.0891104 0)
(-0.100827 0.0732629 0)
(-0.128557 0.0571277 0)
(-0.146624 0.0401554 0)
(-0.158998 0.0213401 0)
(-0.164079 -0.000206647 0)
(-0.158982 -0.0242596 0)
(-0.144601 -0.048079 0)
(-0.122869 -0.0673637 0)
(-0.0969285 -0.079105 0)
(-0.0699352 -0.0821163 0)
(-0.0447565 -0.0764404 0)
(-0.0233682 -0.0629318 0)
(-0.00713872 -0.0434462 0)
(0.00532555 -0.0191172 0)
(0.0055834 0.0101724 0)
(-0.027237 -0.0360962 0)
(0.0420213 -0.0436277 0)
(0.0549575 -0.0389793 0)
(0.0594453 -0.0309033 0)
(0.0647715 -0.0234031 0)
(0.069474 -0.0178492 0)
(0.0712433 -0.0134345 0)
(0.0678523 -0.00896139 0)
(0.0652193 -0.00663284 0)
(0.0645225 -0.00535875 0)
(0.0647766 -0.0045092 0)
(0.0653968 -0.00380984 0)
(0.0664879 -0.00301427 0)
(0.0688344 -0.00162594 0)
(0.0742958 0.0028529 0)
(0.0752205 0.0236378 0)
(0.0702243 0.0401453 0)
(0.0144192 0.056652 0)
(0.194255 0.0544569 0)
(0.451248 0.285201 0)
(-0.184737 0.119801 0)
(-0.0673839 0.0978977 0)
(-0.0948272 0.0754017 0)
(-0.108448 0.053689 0)
(-0.118441 0.0292554 0)
(-0.122519 -6.24026e-05 0)
(-0.115362 -0.0338804 0)
(-0.100068 -0.0664507 0)
(-0.0796983 -0.0912806 0)
(-0.0574405 -0.105174 0)
(-0.0355632 -0.107537 0)
(-0.0159366 -0.099259 0)
(0.00150627 -0.0816803 0)
(0.0164748 -0.0580511 0)
(0.0315465 -0.0328666 0)
(0.0512692 -0.015129 0)
(0.080094 -0.0706832 0)
(0.0872869 -0.0536927 0)
(0.0801798 -0.0467413 0)
(0.0711313 -0.0403978 0)
(0.0655518 -0.0323284 0)
(0.063288 -0.0246267 0)
(0.0622529 -0.0171182 0)
(0.0642685 -0.0104717 0)
(0.0709443 -0.00797031 0)
(0.0770182 -0.0066821 0)
(0.0818632 -0.00591748 0)
(0.0860304 -0.00521432 0)
(0.0893791 -0.00425426 0)
(0.0910954 -0.00265734 0)
(0.0891511 0.000153406 0)
(0.0811331 0.00474254 0)
(0.0736708 0.0276825 0)
(0.0756075 0.0483645 0)
(0.0298413 0.0704106 0)
(0.210206 0.105733 0)
(0.560348 0.332835 0)
(-0.222723 0.145566 0)
(-0.0331183 0.112957 0)
(-0.0587571 0.0867132 0)
(-0.0657088 0.0623806 0)
(-0.0710499 0.0343275 0)
(-0.0715694 -0.00147446 0)
(-0.0590734 -0.0448484 0)
(-0.0430956 -0.0841582 0)
(-0.0260334 -0.111665 0)
(-0.00995523 -0.125412 0)
(0.00443468 -0.125757 0)
(0.0161219 -0.114734 0)
(0.0262324 -0.095706 0)
(0.0359113 -0.072017 0)
(0.0469225 -0.048018 0)
(0.0609042 -0.0301845 0)
(0.0720918 -0.0284507 0)
(0.0732189 -0.0318809 0)
(0.0655292 -0.0332328 0)
(0.0579322 -0.0310452 0)
(0.0524928 -0.0265249 0)
(0.0491469 -0.0213766 0)
(0.0477114 -0.0159023 0)
(0.0490553 -0.00991547 0)
(0.0530873 -0.00715855 0)
(0.057501 -0.0063744 0)
(0.0618044 -0.00606162 0)
(0.0660484 -0.00536917 0)
(0.0700113 -0.00367827 0)
(0.0732216 -0.000198772 0)
(0.0751278 0.00566754 0)
(0.0748004 0.0146101 0)
(0.0744725 0.0304978 0)
(0.0827416 0.0482736 0)
(0.0684295 0.0649448 0)
(0.151083 0.103733 0)
(0.140992 0.0840859 0)
(0.117703 0.0627382 0)
(-0.123474 0.0650754 0)
(0.640136 0.373072 0)
(-0.259639 0.163691 0)
(-0.00591866 0.111965 0)
(-0.0213042 0.0899736 0)
(-0.0200827 0.0662612 0)
(-0.0191285 0.0368618 0)
(-0.0093249 -0.00408667 0)
(0.0108501 -0.0599901 0)
(0.0244938 -0.100503 0)
(0.0349316 -0.125818 0)
(0.0419843 -0.136504 0)
(0.0459237 -0.134249 0)
(0.0476675 -0.121582 0)
(0.0484219 -0.10172 0)
(0.0493008 -0.0783625 0)
(0.0513867 -0.0558359 0)
(0.0549261 -0.0389333 0)
(0.0563654 -0.0322321 0)
(0.0526915 -0.031201 0)
(0.0455745 -0.0292989 0)
(0.0385024 -0.0261401 0)
(0.0329044 -0.0224837 0)
(0.0291771 -0.0188686 0)
(0.0275741 -0.0153373 0)
(0.0283787 -0.0122086 0)
(0.0312089 -0.0110349 0)
(0.0349041 -0.0109966 0)
(0.0389508 -0.0110005 0)
(0.0431921 -0.0103571 0)
(0.0475307 -0.00849109 0)
(0.0518962 -0.00459497 0)
(0.0567581 0.0023622 0)
(0.0608772 0.012452 0)
(0.0653105 0.0258452 0)
(0.0743362 0.039783 0)
(0.0741569 0.0471924 0)
(0.100641 0.0661773 0)
(0.0981924 0.0553604 0)
(0.109358 0.0552481 0)
(-0.131816 0.095296 0)
(0.682679 0.409175 0)
(-0.279524 0.152804 0)
(0.015708 0.0738537 0)
(0.0261675 0.0768512 0)
(0.034283 0.0620136 0)
(0.0430625 0.0274185 0)
(0.0692261 -0.0254003 0)
(0.0885636 -0.0750624 0)
(0.0973 -0.110401 0)
(0.0984146 -0.130519 0)
(0.0939505 -0.136865 0)
(0.0856077 -0.131576 0)
(0.0752463 -0.117308 0)
(0.0645979 -0.0971314 0)
(0.0549273 -0.0744996 0)
(0.0470646 -0.0533322 0)
(0.0411164 -0.0372107 0)
(0.0354764 -0.0284498 0)
(0.028623 -0.0246097 0)
(0.021101 -0.0220919 0)
(0.0142566 -0.0198603 0)
(0.00884999 -0.0178969 0)
(0.00520749 -0.0162777 0)
(0.0035185 -0.0149957 0)
(0.00383748 -0.0142412 0)
(0.00571966 -0.0144462 0)
(0.00842122 -0.0150692 0)
(0.0115324 -0.0154183 0)
(0.0149074 -0.0150025 0)
(0.0185654 -0.0134093 0)
(0.022743 -0.0100561 0)
(0.0280042 -0.00387661 0)
(0.0359683 0.00613025 0)
(0.0438713 0.0181179 0)
(0.0534633 0.0298628 0)
(0.0586997 0.0372213 0)
(0.0712967 0.0515348 0)
(0.0760437 0.0598936 0)
(0.11813 0.0796069 0)
(-0.111383 0.15228 0)
(0.777911 0.414651 0)
(-0.0823306 0.126598 0)
(0.0828561 0.00106452 0)
(0.130078 0.00156698 0)
(0.132545 -5.56798e-05 0)
(0.14292 -0.0311584 0)
(0.169011 -0.0651364 0)
(0.179343 -0.093341 0)
(0.174697 -0.112777 0)
(0.159908 -0.122472 0)
(0.139031 -0.122603 0)
(0.115178 -0.114271 0)
(0.0909353 -0.099389 0)
(0.0683388 -0.0802793 0)
(0.0485961 -0.0596865 0)
(0.0323168 -0.0410952 0)
(0.0196015 -0.0272629 0)
(0.0097224 -0.0194848 0)
(0.0012303 -0.0159661 0)
(-0.00624521 -0.0144219 0)
(-0.0123094 -0.0137163 0)
(-0.0170266 -0.0134673 0)
(-0.0203718 -0.0136226 0)
(-0.0223598 -0.0141439 0)
(-0.0230901 -0.0150366 0)
(-0.0228765 -0.0162804 0)
(-0.0221 -0.0175424 0)
(-0.0209888 -0.0184029 0)
(-0.0196729 -0.0185158 0)
(-0.0182281 -0.0176631 0)
(-0.0165346 -0.015751 0)
(-0.0139727 -0.0125027 0)
(-0.00850509 -0.00688025 0)
(0.00339506 0.00222789 0)
(0.0134923 0.0108821 0)
(0.0205694 0.0157743 0)
(0.0307931 0.0233914 0)
(0.0394886 0.02896 0)
(0.116631 0.0837018 0)
(-0.369183 0.218994 0)
(0.907274 0.408925 0)
(0.433792 0.283709 0)
(0.432918 0.191821 0)
(0.429515 0.13149 0)
(0.392158 0.0880996 0)
(0.359601 0.042586 0)
(0.324721 -0.00512869 0)
(0.285886 -0.0445878 0)
(0.244112 -0.0708945 0)
(0.200976 -0.0840552 0)
(0.158574 -0.0861344 0)
(0.118497 -0.0797173 0)
(0.0821494 -0.0675254 0)
(0.0507949 -0.0519481 0)
(0.0250328 -0.0353291 0)
(0.00503018 -0.0210423 0)
(-0.00966694 -0.0113662 0)
(-0.0194147 -0.00707812 0)
(-0.0268547 -0.00560748 0)
(-0.0328078 -0.00545664 0)
(-0.0376785 -0.00588999 0)
(-0.0417673 -0.0066306 0)
(-0.0452477 -0.00766262 0)
(-0.0482204 -0.00895097 0)
(-0.0507969 -0.0104492 0)
(-0.0531178 -0.0120603 0)
(-0.055289 -0.0135554 0)
(-0.0573605 -0.0146598 0)
(-0.0594773 -0.0151375 0)
(-0.0621201 -0.0148147 0)
(-0.0661728 -0.0134677 0)
(-0.0725651 -0.0102248 0)
(-0.0819617 -0.00301191 0)
(-0.0931325 0.00928266 0)
(-0.106768 0.026094 0)
(-0.129987 0.0488733 0)
(-0.162155 0.0797599 0)
(-0.204236 0.115872 0)
(-0.2742 0.149705 0)
(-0.546204 0.170077 0)
(-0.229978 0.0829827 0)
(0.129099 0.0811907 0)
(0.213212 0.047011 0)
(0.208264 0.0136627 0)
(0.19982 -0.0124789 0)
(0.188477 -0.032536 0)
(0.167052 -0.0458712 0)
(0.137184 -0.0522985 0)
(0.103021 -0.0524084 0)
(0.0678776 -0.0470574 0)
(0.0347765 -0.0377691 0)
(0.00602045 -0.0258781 0)
(-0.0166215 -0.0130903 0)
(-0.0309485 -0.00423532 0)
(-0.0401649 0.00104249 0)
(-0.0461977 0.00314741 0)
(-0.0507843 0.00346515 0)
(-0.0546867 0.00292336 0)
(-0.0583154 0.00210306 0)
(-0.0619655 0.00126036 0)
(-0.0658288 0.000403434 0)
(-0.0700346 -0.000324469 0)
(-0.0747205 -0.000754402 0)
(-0.0799837 -0.000649196 0)
(-0.0858078 0.000364729 0)
(-0.0920016 0.00278786 0)
(-0.0982391 0.00716892 0)
(-0.104318 0.0138161 0)
(-0.110446 0.0218399 0)
(-0.117102 0.0288278 0)
(-0.123635 0.0344595 0)
(-0.129099 0.0418503 0)
(-0.133529 0.0537021 0)
(-0.136537 0.071765 0)
(-0.135581 0.0952313 0)
(-0.127544 0.110765 0)
(-0.116098 0.0745602 0)
(-0.170907 -0.171473 0)
(-0.173172 0.134053 0)
(0.106879 0.0534085 0)
(0.110554 -0.0167098 0)
(0.105081 -0.05046 0)
(0.101843 -0.0690417 0)
(0.091939 -0.0741205 0)
(0.0733564 -0.0745596 0)
(0.0494614 -0.0734974 0)
(0.0239127 -0.0716047 0)
(-0.000855842 -0.0703763 0)
(-0.0215936 -0.071877 0)
(-0.0375028 -0.0747389 0)
(-0.0490108 -0.0761631 0)
(-0.0561035 -0.0784051 0)
(-0.0604369 -0.0808879 0)
(-0.0632743 -0.0834637 0)
(-0.0656858 -0.0859371 0)
(-0.0682072 -0.0881595 0)
(-0.0710014 -0.0897962 0)
(-0.0740566 -0.0908765 0)
(-0.0773815 -0.0921546 0)
(-0.081103 -0.0939042 0)
(-0.0854068 -0.0964754 0)
(-0.0905384 -0.100257 0)
(-0.0967672 -0.10551 0)
(-0.104223 -0.112071 0)
(-0.112585 -0.118901 0)
(-0.120872 -0.123539 0)
(-0.127747 -0.124014 0)
(-0.132271 -0.118246 0)
(-0.133927 -0.104872 0)
(-0.131366 -0.08435 0)
(-0.121991 -0.057093 0)
(-0.102919 -0.0248922 0)
(-0.0730731 0.00705652 0)
(-0.0371815 0.022758 0)
(0.0784508 -0.090622 0)
(-0.124743 -0.157148 0)
(0.250251 -0.160411 0)
(-0.245885 -0.0523956 0)
(-0.168484 0.188427 0)
(-0.0337812 0.179093 0)
(-0.0414638 0.208806 0)
(-0.0293496 0.241782 0)
(-0.0262081 0.260024 0)
(-0.0293064 0.251511 0)
(-0.0400241 0.244509 0)
(-0.0527503 0.244309 0)
(-0.0643393 0.248488 0)
(-0.0735059 0.254995 0)
(-0.0797038 0.263091 0)
(-0.0832037 0.271829 0)
(-0.0844057 0.277778 0)
(-0.0846247 0.283605 0)
(-0.0846431 0.288272 0)
(-0.0849661 0.291728 0)
(-0.0858954 0.294256 0)
(-0.0875382 0.295982 0)
(-0.0898808 0.296529 0)
(-0.0928495 0.296003 0)
(-0.0964154 0.295615 0)
(-0.100504 0.295816 0)
(-0.104985 0.297325 0)
(-0.109664 0.300996 0)
(-0.114291 0.307539 0)
(-0.118588 0.317033 0)
(-0.122249 0.328266 0)
(-0.124862 0.338075 0)
(-0.125938 0.344557 0)
(-0.124656 0.346486 0)
(-0.119622 0.343309 0)
(-0.108872 0.336496 0)
(-0.0904573 0.328023 0)
(-0.0643197 0.321529 0)
(-0.0336261 0.322272 0)
(0.0097095 0.332542 0)
(0.126135 0.408293 0)
(-0.288269 0.419969 0)
)
;

boundaryField
{
    floor
    {
        type            noSlip;
    }
    ceiling
    {
        type            noSlip;
    }
    sWall
    {
        type            noSlip;
    }
    nWall
    {
        type            noSlip;
    }
    sideWalls
    {
        type            empty;
    }
    glass1
    {
        type            noSlip;
    }
    glass2
    {
        type            noSlip;
    }
    sun
    {
        type            noSlip;
    }
    heatsource1
    {
        type            noSlip;
    }
    heatsource2
    {
        type            noSlip;
    }
    Table_master
    {
        type            noSlip;
    }
    Table_slave
    {
        type            noSlip;
    }
    inlet
    {
        type            fixedValue;
        value           uniform (0.2 0 0);
    }
    outlet
    {
        type            zeroGradient;
    }
}


// ************************************************************************* //
