/*--------------------------------*- C++ -*----------------------------------*\
  =========                 |
  \\      /  F ield         | OpenFOAM: The Open Source CFD Toolbox
   \\    /   O peration     | Website:  https://openfoam.org
    \\  /    A nd           | Version:  6
     \\/     M anipulation  |
\*---------------------------------------------------------------------------*/
FoamFile
{
    version     2.0;
    format      ascii;
    class       volScalarField;
    location    "200";
    object      epsilon;
}
// * * * * * * * * * * * * * * * * * * * * * * * * * * * * * * * * * * * * * //

dimensions      [0 2 -3 0 0 0 0];

internalField   nonuniform List<scalar> 
459
(
0.000151545
0.000166775
0.000139116
0.000155827
0.00017397
0.000191954
0.000209765
0.000227787
0.000246777
0.000266424
0.000282497
0.00029267
0.000294857
0.000288135
0.000270646
4.57291e-05
8.12272e-05
6.76855e-05
6.92554e-05
7.1821e-05
5.99177e-05
4.03887e-05
2.70477e-05
1.81354e-05
1.2275e-05
8.38756e-06
5.80147e-06
4.10352e-06
3.07237e-06
2.79572e-06
6.0956e-06
1.32658e-05
1.55899e-05
1.45009e-05
0.000693317
0.00157701
0.000164883
0.000121025
0.000124255
0.000130669
0.000138594
0.000149043
0.000163202
0.000181353
0.000201255
0.000220753
0.00023624
0.000243487
0.0002483
0.000315544
0.000104918
0.000110035
0.000180641
7.92975e-05
7.14704e-05
7.48669e-05
7.43292e-05
3.47148e-05
1.88705e-05
1.18222e-05
7.94007e-06
5.6074e-06
4.13281e-06
3.15622e-06
2.53042e-06
3.18122e-06
2.2158e-05
4.6657e-05
7.18678e-05
4.23941e-05
0.00169973
0.00515823
0.000355043
0.000133566
0.00012516
0.000131231
0.000140613
0.000153305
0.000169656
0.000189516
0.000210249
0.000228879
0.000242707
0.000250905
0.00025815
0.00028217
0.000365764
0.000223097
0.000227045
0.000104025
8.81607e-05
9.27975e-05
0.000104521
3.13659e-05
9.54895e-06
7.0139e-06
5.60687e-06
4.58422e-06
3.83061e-06
3.23481e-06
2.80847e-06
5.3609e-06
7.99032e-05
0.000130871
0.000125291
5.43225e-05
0.00330601
0.011422
0.000816785
0.0001664
0.000134779
0.000141766
0.000154002
0.000169781
0.000189341
0.000212666
0.000236324
0.000254913
0.000266431
0.000272822
0.00027979
0.000299375
0.000354697
0.000467003
0.00025479
0.000133145
9.17649e-05
8.64169e-05
9.92418e-05
0.000132213
0.000205451
0.000213499
0.000214279
0.000210908
0.000216225
0.000224605
0.000228485
0.00021942
0.000194565
0.000163987
0.000167038
0.000286443
0.000232589
0.00555128
0.0199291
0.00180173
0.000234554
0.000148718
0.000155328
0.000173245
0.00019718
0.000227113
0.000262604
0.000297207
0.000320391
0.000331182
0.000333185
0.000328723
0.000317807
0.000300141
0.000262187
0.000170858
0.000111597
8.73805e-05
8.46553e-05
9.31675e-05
0.000108247
0.00012765
0.000143526
0.000151569
0.000151136
0.000159316
0.000172039
0.000181716
0.000180414
0.000163569
0.000145198
0.000138299
0.000173799
0.000219003
0.000261732
0.000191354
0.000315824
0.00849086
0.0279598
0.00382633
0.000453431
0.000197792
0.000184107
0.000203208
0.000236803
0.00028401
0.000345881
0.00039776
0.000422471
0.000427102
0.000422034
0.000410862
0.000388136
0.000343647
0.000275057
0.000197069
0.00013611
0.000105706
9.98877e-05
0.000106576
0.00011839
0.000132086
0.000143321
0.000156489
0.000163808
0.000182798
0.000211066
0.000240331
0.000259421
0.000254259
0.000212451
0.000176104
0.000162362
0.000169972
0.000184678
0.00034406
0.000386912
0.0121101
0.0318462
0.00830234
0.00178783
0.000634765
0.000385216
0.000337804
0.000355243
0.000409581
0.00051253
0.000564246
0.000564858
0.000540553
0.000510027
0.000479757
0.000444247
0.000390876
0.000315336
0.000234453
0.000170683
0.000136208
0.000126884
0.000133273
0.000146427
0.00015666
0.000157706
0.000179919
0.0001961
0.000225455
0.000269787
0.000324731
0.00038099
0.000422925
0.000406606
0.000345367
0.00031937
0.000340719
0.0003899
0.000672765
0.000674494
0.013078
0.039609
0.0185932
0.00991783
0.00485322
0.00232779
0.00134774
0.00101072
0.000919677
0.000907826
0.000843384
0.000756783
0.000670207
0.000593978
0.000530333
0.000474801
0.000416178
0.000343632
0.000271231
0.000213264
0.000179079
0.000168483
0.000177217
0.000197523
0.000204405
0.000185635
0.000225568
0.0002578
0.000294878
0.000350101
0.000430117
0.000535713
0.000668055
0.000831847
0.000963914
0.00123179
0.00183495
0.00242299
0.00607
0.00161714
0.0120746
0.0208614
0.0163563
0.0119594
0.00834737
0.00556168
0.00370039
0.00256974
0.00191806
0.001471
0.00115931
0.000937585
0.00077576
0.000654146
0.000560122
0.000485023
0.000421182
0.000362404
0.000309554
0.000268749
0.000244585
0.000238127
0.000251699
0.000286206
0.000284951
0.000225266
0.000293229
0.000354555
0.000392922
0.000440066
0.000520872
0.00064039
0.000801751
0.00100493
0.00125212
0.00154522
0.00188935
0.00219023
0.00247135
0.00137614
0.00660468
0.00837836
0.00670054
0.00498351
0.00362846
0.00265997
0.00199688
0.00153789
0.00121557
0.0009837
0.000811828
0.000680786
0.000579313
0.0005012
0.000442762
0.000401201
0.000374832
0.000362938
0.000362542
0.000369192
0.000392708
0.00045397
0.000423659
0.000275514
0.000379761
0.000506696
0.000545947
0.000551098
0.000587184
0.000655919
0.00076578
0.000922871
0.00110832
0.00127621
0.00138083
0.00135036
0.00119155
0.000774943
0.0048091
0.00749711
0.00598538
0.0044423
0.00334072
0.00252333
0.00192197
0.00148284
0.00116129
0.000922343
0.000744131
0.000612238
0.000517522
0.000454795
0.0004218
0.000417565
0.000439428
0.000479652
0.000524399
0.000560046
0.00059382
0.000637413
0.000584747
0.000336749
0.000486358
0.000648231
0.000658012
0.000636426
0.000630778
0.000662461
0.000753402
0.00091662
0.00113266
0.00135544
0.00152079
0.00164266
0.000978545
0.000818177
0.00324983
0.00375009
0.00422544
0.00498181
0.00422274
0.00320825
0.00256333
0.00206531
0.00166986
0.00135612
0.00110964
0.000924089
0.000776606
0.00065624
0.000557497
0.000477637
0.000415377
0.000370177
0.000341586
0.000328338
0.000327156
0.000332431
0.000342791
0.000365599
0.000358579
0.000309956
0.000371511
0.000428666
0.000439116
0.000443633
0.000467087
0.000521568
0.000614213
0.000745094
0.000918879
0.00113888
0.0012289
0.00114496
0.000903282
0.000705469
)
;

boundaryField
{
    floor
    {
        Cmu             0.09;
        kappa           0.41;
        E               9.8;
        type            epsilonWallFunction;
        value           nonuniform List<scalar> 
29
(
0.000270646
4.57291e-05
8.12272e-05
6.76855e-05
6.92554e-05
7.1821e-05
5.99177e-05
4.03887e-05
2.70477e-05
1.81354e-05
1.2275e-05
8.38756e-06
5.80147e-06
4.10352e-06
3.07237e-06
2.79572e-06
6.0956e-06
1.32658e-05
1.55899e-05
1.45009e-05
1.45009e-05
4.23941e-05
5.43225e-05
0.000232589
0.000270646
4.57291e-05
0.000110035
0.000223097
0.000467003
)
;
    }
    ceiling
    {
        Cmu             0.09;
        kappa           0.41;
        E               9.8;
        type            epsilonWallFunction;
        value           nonuniform List<scalar> 
43
(
0.00324983
0.00375009
0.00422544
0.00498181
0.00422274
0.00320825
0.00256333
0.00206531
0.00166986
0.00135612
0.00110964
0.000924089
0.000776606
0.00065624
0.000557497
0.000477637
0.000415377
0.000370177
0.000341586
0.000328338
0.000327156
0.000332431
0.000342791
0.000365599
0.000358579
0.000309956
0.000371511
0.000428666
0.000439116
0.000443633
0.000467087
0.000521568
0.000614213
0.000745094
0.000918879
0.00113888
0.0012289
0.00114496
0.000903282
0.000705469
0.0120746
0.0208614
0.0048091
)
;
    }
    sWall
    {
        Cmu             0.09;
        kappa           0.41;
        E               9.8;
        type            epsilonWallFunction;
        value           uniform 0.00324983;
    }
    nWall
    {
        Cmu             0.09;
        kappa           0.41;
        E               9.8;
        type            epsilonWallFunction;
        value           nonuniform List<scalar> 6(0.000315824 0.000386912 0.000674494 0.000774943 0.000818177 0.000705469);
    }
    sideWalls
    {
        type            empty;
    }
    glass1
    {
        Cmu             0.09;
        kappa           0.41;
        E               9.8;
        type            epsilonWallFunction;
        value           nonuniform List<scalar> 9(0.000151545 0.000693317 0.00169973 0.00330601 0.00555128 0.00849086 0.0121101 0.013078 0.0120746);
    }
    glass2
    {
        Cmu             0.09;
        kappa           0.41;
        E               9.8;
        type            epsilonWallFunction;
        value           nonuniform List<scalar> 2(0.00161714 0.00137614);
    }
    sun
    {
        Cmu             0.09;
        kappa           0.41;
        E               9.8;
        type            epsilonWallFunction;
        value           nonuniform List<scalar> 
14
(
0.000151545
0.000166775
0.000139116
0.000155827
0.00017397
0.000191954
0.000209765
0.000227787
0.000246777
0.000266424
0.000282497
0.00029267
0.000294857
0.000288135
)
;
    }
    heatsource1
    {
        Cmu             0.09;
        kappa           0.41;
        E               9.8;
        type            epsilonWallFunction;
        value           nonuniform List<scalar> 3(0.000261732 0.000191354 0.000315824);
    }
    heatsource2
    {
        Cmu             0.09;
        kappa           0.41;
        E               9.8;
        type            epsilonWallFunction;
        value           nonuniform List<scalar> 4(0.000315544 0.000104918 0.000104918 0.000365764);
    }
    Table_master
    {
        Cmu             0.09;
        kappa           0.41;
        E               9.8;
        type            epsilonWallFunction;
        value           nonuniform List<scalar> 9(3.13659e-05 9.54895e-06 7.0139e-06 5.60687e-06 4.58422e-06 3.83061e-06 3.23481e-06 2.80847e-06 5.3609e-06);
    }
    Table_slave
    {
        Cmu             0.09;
        kappa           0.41;
        E               9.8;
        type            epsilonWallFunction;
        value           nonuniform List<scalar> 9(0.000205451 0.000213499 0.000214279 0.000210908 0.000216225 0.000224605 0.000228485 0.00021942 0.000194565);
    }
    inlet
    {
        type            turbulentMixingLengthDissipationRateInlet;
        mixingLength    0.01;
        phi             phi;
        k               k;
        value           uniform 0.000101881;
    }
    outlet
    {
        type            zeroGradient;
    }
}


// ************************************************************************* //
