// -*- C++ -*-
// File generated by PyFoam - sorry for the ugliness

FoamFile
{
 version 2.0;
 format ascii;
 class volVectorField;
 location "200";
 object U;
}

dimensions [ 0 1 -1 0 0 0 0 ];

internalField nonuniform List<vector> 459
(
  (0.0990131 0.071116 0)
  (-0.143062 0.0036898 0)
  (-0.127335 0.0074942 0)
  (-0.143959 0.0081778 0)
  (-0.159818 0.00692606 0)
  (-0.173632 0.00483729 0)
  (-0.184243 0.00215445 0)
  (-0.190667 -0.0010998 0)
  (-0.191884 -0.00498028 0)
  (-0.18678 -0.00965578 0)
  (-0.173983 -0.015265 0)
  (-0.151889 -0.0218799 0)
  (-0.120261 -0.0302833 0)
  (-0.0868895 -0.0421926 0)
  (-0.0794066 -0.0564407 0)
  (0.0347741 0.0128582 0)
  (-0.0325112 -0.00340318 0)
  (-0.0151693 -0.00898992 0)
  (-0.00344039 -0.0136165 0)
  (0.0149174 -0.0176315 0)
  (0.0299725 -0.0112117 0)
  (0.0389077 -0.00345517 0)
  (0.0338784 -0.000945432 0)
  (0.0264435 0.000283957 0)
  (0.020832 0.00121406 0)
  (0.0163518 0.00176246 0)
  (0.0123895 0.00183556 0)
  (0.00935415 0.00114806 0)
  (0.0092571 -0.00123114 0)
  (0.0155861 -0.00626375 0)
  (0.026592 -0.0108941 0)
  (0.0360212 -0.011646 0)
  (0.0478896 -0.00366644 0)
  (-0.0186711 0.0228373 0)
  (0.307578 0.154801 0)
  (-0.166279 0.0223549 0)
  (-0.116612 0.0253791 0)
  (-0.139576 0.0257039 0)
  (-0.157024 0.0234193 0)
  (-0.171869 0.0195232 0)
  (-0.183423 0.0142375 0)
  (-0.190959 0.0075081 0)
  (-0.193577 -0.000813259 0)
  (-0.190334 -0.0108596 0)
  (-0.180437 -0.0223217 0)
  (-0.163064 -0.0347152 0)
  (-0.138506 -0.0482443 0)
  (-0.109761 -0.0638787 0)
  (-0.082559 -0.0793074 0)
  (-0.0595402 -0.0840044 0)
  (0.0437696 0.0113657 0)
  (0.093965 0.0329386 0)
  (-0.0342854 0.00547233 0)
  (-0.0239873 -0.00765422 0)
  (-0.0204225 -0.0188276 0)
  (-0.0116671 -0.0279831 0)
  (-0.00114228 -0.0229446 0)
  (0.0220764 0.0038585 0)
  (0.0161768 0.00583976 0)
  (0.0136978 0.00659599 0)
  (0.0138697 0.00664572 0)
  (0.0144833 0.00613747 0)
  (0.0150192 0.00523477 0)
  (0.0156384 0.00336979 0)
  (0.0178256 -0.00191243 0)
  (0.0205161 -0.0112856 0)
  (0.0266422 -0.0164576 0)
  (0.0276153 -0.0190477 0)
  (0.0464531 -0.00661454 0)
  (-0.0739829 0.0488202 0)
  (0.483088 0.237164 0)
  (-0.213111 0.0524938 0)
  (-0.0976129 0.0485651 0)
  (-0.128578 0.0439962 0)
  (-0.146499 0.0388227 0)
  (-0.162091 0.0317862 0)
  (-0.174804 0.022683 0)
  (-0.18406 0.0113662 0)
  (-0.189014 -0.002242 0)
  (-0.188496 -0.0179923 0)
  (-0.182538 -0.0355993 0)
  (-0.171201 -0.0539247 0)
  (-0.155605 -0.0718388 0)
  (-0.137914 -0.0878933 0)
  (-0.120642 -0.0980287 0)
  (-0.107481 -0.0955674 0)
  (-0.107502 -0.0804639 0)
  (0.075069 0.0565258 0)
  (-0.0539402 0.0168981 0)
  (-0.045995 -0.00402147 0)
  (-0.0455286 -0.0239379 0)
  (-0.0416468 -0.0407606 0)
  (-0.0415915 -0.0507471 0)
  (0.0280126 0.00310765 0)
  (0.00421832 6.93082e-05 0)
  (0.00711204 0.000193957 0)
  (0.0118434 -8.92474e-05 0)
  (0.0161948 -0.000889 0)
  (0.0197972 -0.00200168 0)
  (0.0220945 -0.00389204 0)
  (0.0212509 -0.00740497 0)
  (0.0113527 -0.00967974 0)
  (0.00599911 0.00282249 0)
  (-0.0219943 0.0113056 0)
  (-0.0651061 0.0252724 0)
  (-0.171469 0.0455919 0)
  (0.626679 0.306372 0)
  (-0.262737 0.0880191 0)
  (-0.0720187 0.0724972 0)
  (-0.111731 0.062709 0)
  (-0.128302 0.0554158 0)
  (-0.143114 0.0462688 0)
  (-0.155889 0.0345058 0)
  (-0.166072 0.0197431 0)
  (-0.172801 0.00183451 0)
  (-0.174725 -0.0188247 0)
  (-0.17207 -0.0410793 0)
  (-0.166229 -0.062942 0)
  (-0.159108 -0.0822409 0)
  (-0.153078 -0.09662 0)
  (-0.150629 -0.102044 0)
  (-0.155616 -0.0912313 0)
  (-0.168896 -0.0505127 0)
  (-0.15747 0.0349707 0)
  (-0.0872105 0.0441148 0)
  (-0.0947274 0.0187162 0)
  (-0.0757217 -0.00542136 0)
  (-0.0708378 -0.0265395 0)
  (-0.0724857 -0.0432098 0)
  (-0.0778669 -0.0508703 0)
  (-0.0664107 -0.0364301 0)
  (-0.0310306 -0.0357053 0)
  (0.0119373 -0.0299345 0)
  (0.038404 -0.0239985 0)
  (0.0620873 -0.0207261 0)
  (0.0841438 -0.0184076 0)
  (0.103799 -0.0155128 0)
  (0.118813 -0.0105616 0)
  (0.126266 -0.00300039 0)
  (0.119025 0.0112356 0)
  (0.0969374 0.0278319 0)
  (0.0760027 0.0358418 0)
  (-0.0722863 0.0292744 0)
  (0.742168 0.363831 0)
  (-0.306897 0.125 0)
  (-0.0432082 0.0921477 0)
  (-0.0891883 0.0785965 0)
  (-0.102755 0.0698155 0)
  (-0.114548 0.0591772 0)
  (-0.125108 0.0454883 0)
  (-0.133964 0.0281022 0)
  (-0.140349 0.00678222 0)
  (-0.142634 -0.0178341 0)
  (-0.140775 -0.0434339 0)
  (-0.137412 -0.0668167 0)
  (-0.134567 -0.0854954 0)
  (-0.134128 -0.0979454 0)
  (-0.137265 -0.10278 0)
  (-0.143646 -0.0979942 0)
  (-0.148339 -0.0791015 0)
  (-0.142794 -0.040633 0)
  (-0.120876 -0.00377799 0)
  (-0.0959455 0.000357123 0)
  (-0.0760687 -0.0144969 0)
  (-0.0669527 -0.0302645 0)
  (-0.0636196 -0.0438747 0)
  (-0.0601837 -0.0513686 0)
  (-0.0476456 -0.0494908 0)
  (-0.0241831 -0.0539072 0)
  (0.00384222 -0.0470545 0)
  (0.0266485 -0.0382651 0)
  (0.0463676 -0.0341264 0)
  (0.0654186 -0.0313364 0)
  (0.0836845 -0.0267578 0)
  (0.100159 -0.0170944 0)
  (0.113377 0.00030806 0)
  (0.119546 0.0228455 0)
  (0.11646 0.0454054 0)
  (0.114152 0.0615754 0)
  (0.070753 0.0648967 0)
  (0.0998971 0.066176 0)
  (0.0143076 0.0146607 0)
  (-0.356544 -0.0406634 0)
  (0.819524 0.415228 0)
  (-0.34386 0.157955 0)
  (-0.0193477 0.100839 0)
  (-0.0603388 0.0905177 0)
  (-0.0706733 0.0806747 0)
  (-0.0781901 0.0685419 0)
  (-0.0844424 0.0534762 0)
  (-0.0894873 0.0344273 0)
  (-0.0929667 0.0107195 0)
  (-0.0925734 -0.0172059 0)
  (-0.0894599 -0.0454674 0)
  (-0.0870584 -0.0689632 0)
  (-0.0866808 -0.0855804 0)
  (-0.0892049 -0.0947528 0)
  (-0.0946431 -0.0959816 0)
  (-0.101492 -0.08828 0)
  (-0.105513 -0.0709623 0)
  (-0.101679 -0.0474233 0)
  (-0.0883843 -0.0270303 0)
  (-0.0712942 -0.0210184 0)
  (-0.058056 -0.0265808 0)
  (-0.0511283 -0.0366453 0)
  (-0.0482098 -0.0476781 0)
  (-0.0453286 -0.0572584 0)
  (-0.0372374 -0.0658749 0)
  (-0.0205457 -0.0759248 0)
  (-0.00188653 -0.0668578 0)
  (0.0138008 -0.055751 0)
  (0.02711 -0.0513772 0)
  (0.0411686 -0.0492866 0)
  (0.0561234 -0.0453276 0)
  (0.0719839 -0.0350776 0)
  (0.0883769 -0.0144256 0)
  (0.104328 0.0157293 0)
  (0.112538 0.0450461 0)
  (0.119928 0.0671667 0)
  (0.114701 0.0739 0)
  (0.125948 0.0749618 0)
  (0.133226 0.066749 0)
  (-0.0970919 0.0424816 0)
  (0.842819 0.462222 0)
  (-0.36174 0.159012 0)
  (0.00038985 0.073113 0)
  (-0.0125665 0.0969454 0)
  (-0.0251006 0.0927907 0)
  (-0.0317022 0.0749449 0)
  (-0.0337486 0.0565199 0)
  (-0.0335433 0.0359574 0)
  (-0.0320006 0.0103952 0)
  (-0.0240811 -0.0206095 0)
  (-0.0193886 -0.0494135 0)
  (-0.0189189 -0.0705853 0)
  (-0.0220951 -0.0839089 0)
  (-0.0285444 -0.0901554 0)
  (-0.0373182 -0.0897749 0)
  (-0.046442 -0.0825869 0)
  (-0.0527383 -0.0687994 0)
  (-0.0532498 -0.0516845 0)
  (-0.0474788 -0.0374347 0)
  (-0.0389784 -0.0316384 0)
  (-0.0322585 -0.0334305 0)
  (-0.02919 -0.0397237 0)
  (-0.029021 -0.0486248 0)
  (-0.0301561 -0.0596506 0)
  (-0.0290811 -0.0752191 0)
  (-0.0181775 -0.0927131 0)
  (-0.00738648 -0.0801876 0)
  (-0.000397872 -0.0660226 0)
  (0.00411886 -0.0614899 0)
  (0.0102067 -0.0610436 0)
  (0.0179309 -0.0597109 0)
  (0.0281303 -0.0527593 0)
  (0.0416569 -0.0349879 0)
  (0.063113 -0.00240303 0)
  (0.0823453 0.0321239 0)
  (0.0967713 0.0566785 0)
  (0.107931 0.0655929 0)
  (0.125961 0.0661489 0)
  (0.166382 0.0746943 0)
  (-0.0565047 0.136742 0)
  (0.946157 0.484167 0)
  (-0.142837 0.14268 0)
  (0.0727803 0.0113884 0)
  (0.107483 0.0460312 0)
  (0.0769425 0.069415 0)
  (0.0538937 0.0581253 0)
  (0.0476645 0.0379089 0)
  (0.0493402 0.0170428 0)
  (0.0533984 -0.00913938 0)
  (0.0663517 -0.0333399 0)
  (0.0684359 -0.0532297 0)
  (0.0635587 -0.0678202 0)
  (0.0543243 -0.0767918 0)
  (0.0421348 -0.0804023 0)
  (0.0282972 -0.0791389 0)
  (0.0145201 -0.0733569 0)
  (0.00315276 -0.0634735 0)
  (-0.00354816 -0.0512829 0)
  (-0.00497069 -0.041329 0)
  (-0.00392194 -0.0362428 0)
  (-0.00326238 -0.0361869 0)
  (-0.00448541 -0.0400097 0)
  (-0.00768952 -0.0466767 0)
  (-0.0141521 -0.0570941 0)
  (-0.0220046 -0.0774711 0)
  (-0.0159024 -0.103937 0)
  (-0.0122708 -0.0854677 0)
  (-0.013886 -0.0665815 0)
  (-0.0206968 -0.0614481 0)
  (-0.0262268 -0.0620206 0)
  (-0.0310769 -0.0629435 0)
  (-0.0342356 -0.0605673 0)
  (-0.0340747 -0.0519514 0)
  (-0.0267615 -0.0350263 0)
  (0.0106415 -0.00647458 0)
  (0.0241368 0.0183458 0)
  (0.0356042 0.0215326 0)
  (0.0548285 0.0146086 0)
  (0.141179 0.080388 0)
  (-0.506078 0.262291 0)
  (1.08443 0.444303 0)
  (0.519648 0.294522 0)
  (0.512558 0.236191 0)
  (0.471408 0.198576 0)
  (0.380688 0.170562 0)
  (0.302776 0.131046 0)
  (0.256618 0.0885893 0)
  (0.230949 0.0505864 0)
  (0.216594 0.017654 0)
  (0.196545 -0.0119174 0)
  (0.175555 -0.0351762 0)
  (0.154424 -0.0512657 0)
  (0.133235 -0.0606666 0)
  (0.112206 -0.0644489 0)
  (0.0918986 -0.0638002 0)
  (0.0731566 -0.0598363 0)
  (0.0570767 -0.0536523 0)
  (0.0447666 -0.046625 0)
  (0.0364361 -0.0405683 0)
  (0.0306843 -0.0369693 0)
  (0.0256499 -0.0363214 0)
  (0.0203318 -0.0383736 0)
  (0.01429 -0.0420732 0)
  (0.00277048 -0.0482451 0)
  (-0.0154424 -0.0701115 0)
  (-0.0123655 -0.107327 0)
  (-0.0153607 -0.0808879 0)
  (-0.023611 -0.0564741 0)
  (-0.0432109 -0.0500625 0)
  (-0.0627039 -0.0493778 0)
  (-0.0846724 -0.0476874 0)
  (-0.110165 -0.0410577 0)
  (-0.13988 -0.0260522 0)
  (-0.173599 -0.000502477 0)
  (-0.206219 0.0334707 0)
  (-0.237871 0.0672929 0)
  (-0.287886 0.0971384 0)
  (-0.344177 0.119835 0)
  (-0.42185 0.132327 0)
  (-0.733546 0.128368 0)
  (-0.194849 0.119052 0)
  (0.174874 0.188528 0)
  (0.252955 0.17805 0)
  (0.245922 0.143031 0)
  (0.244653 0.101202 0)
  (0.246367 0.0611309 0)
  (0.244452 0.0271403 0)
  (0.236594 0.000299068 0)
  (0.221755 -0.0194572 0)
  (0.202266 -0.0325286 0)
  (0.180305 -0.039994 0)
  (0.157646 -0.0430023 0)
  (0.13571 -0.0426814 0)
  (0.115559 -0.0400963 0)
  (0.0979098 -0.0362644 0)
  (0.0831552 -0.0321709 0)
  (0.0712024 -0.0286825 0)
  (0.0612663 -0.0262595 0)
  (0.0522346 -0.0250145 0)
  (0.0439684 -0.0250324 0)
  (0.0362673 -0.0256953 0)
  (0.021467 -0.0262144 0)
  (-0.00433467 -0.0413103 0)
  (-0.00553964 -0.0956995 0)
  (-0.019801 -0.0578134 0)
  (-0.027333 -0.0309741 0)
  (-0.0527149 -0.0273551 0)
  (-0.0750198 -0.0271991 0)
  (-0.0977443 -0.0253814 0)
  (-0.121011 -0.0192536 0)
  (-0.141727 -0.0060062 0)
  (-0.158029 0.0161788 0)
  (-0.172176 0.0463041 0)
  (-0.183922 0.0789282 0)
  (-0.191825 0.0991221 0)
  (-0.183457 0.0811382 0)
  (-0.164078 -0.0238053 0)
  (-0.290393 -0.24934 0)
  (-0.102211 0.274157 0)
  (0.0728651 0.200864 0)
  (0.098147 0.149286 0)
  (0.132859 0.120358 0)
  (0.16893 0.0891013 0)
  (0.196493 0.0610516 0)
  (0.211293 0.040891 0)
  (0.214151 0.0294599 0)
  (0.208575 0.0238244 0)
  (0.197416 0.0199599 0)
  (0.182971 0.0180373 0)
  (0.166802 0.018187 0)
  (0.150177 0.0204423 0)
  (0.13413 0.0246402 0)
  (0.119426 0.0302925 0)
  (0.106512 0.0364361 0)
  (0.0954323 0.0417207 0)
  (0.0857388 0.045084 0)
  (0.076625 0.0454864 0)
  (0.0677146 0.0402094 0)
  (0.0586102 0.0348582 0)
  (0.0449688 0.0543986 0)
  (0.0268507 0.0366776 0)
  (0.00586767 -0.0887718 0)
  (-0.0402271 -0.0267813 0)
  (-0.0437537 0.0463653 0)
  (-0.0589172 0.0539643 0)
  (-0.0693462 0.0499017 0)
  (-0.0779439 0.050119 0)
  (-0.0860842 0.0482201 0)
  (-0.0917171 0.0446503 0)
  (-0.0924582 0.0476926 0)
  (-0.0857534 0.0628152 0)
  (-0.071421 0.0871872 0)
  (-0.0503995 0.109698 0)
  (-0.0214721 0.111123 0)
  (0.141767 0.0310068 0)
  (-0.201113 -0.170098 0)
  (-0.221126 -0.401822 0)
  (-0.485837 -0.106303 0)
  (-0.347865 0.169743 0)
  (-0.190187 0.0679194 0)
  (-0.0851478 0.0344386 0)
  (0.0301441 0.0181637 0)
  (0.0972092 -0.00933721 0)
  (0.147573 -0.0353169 0)
  (0.179051 -0.0586922 0)
  (0.193962 -0.0800891 0)
  (0.197318 -0.0997536 0)
  (0.193225 -0.115772 0)
  (0.184214 -0.129704 0)
  (0.172299 -0.142653 0)
  (0.159079 -0.155362 0)
  (0.145779 -0.16821 0)
  (0.133235 -0.181114 0)
  (0.121843 -0.193448 0)
  (0.111545 -0.204185 0)
  (0.10195 -0.212347 0)
  (0.0925569 -0.217649 0)
  (0.0821384 -0.221098 0)
  (0.0685036 -0.223557 0)
  (0.0586075 -0.221678 0)
  (0.0672496 -0.225702 0)
  (0.0198742 -0.244318 0)
  (-0.0750228 -0.231158 0)
  (-0.0806338 -0.215089 0)
  (-0.0827261 -0.210812 0)
  (-0.0871071 -0.205409 0)
  (-0.0907308 -0.193508 0)
  (-0.0899499 -0.172727 0)
  (-0.0821859 -0.144164 0)
  (-0.064288 -0.111771 0)
  (-0.0347917 -0.074968 0)
  (0.0183688 -0.0277762 0)
  (0.077092 -0.0140864 0)
  (0.132663 -0.0371012 0)
  (0.193567 -0.09989 0)
  (-0.131999 -0.18389 0)
)
;

boundaryField
{
  floor
  {
    type noSlip;
  }
  ceiling
  {
    type noSlip;
  }
  sWall
  {
    type noSlip;
  }
  nWall
  {
    type noSlip;
  }
  sideWalls
  {
    type empty;
  }
  glass1
  {
    type noSlip;
  }
  glass2
  {
    type noSlip;
  }
  sun
  {
    type noSlip;
  }
  heatsource1
  {
    type noSlip;
  }
  heatsource2
  {
    type noSlip;
  }
  Table_master
  {
    type noSlip;
  }
  Table_slave
  {
    type noSlip;
  }
  inlet
  {
    type fixedValue;
    value uniform (0.277164 -0.114805 0);
  }
  outlet
  {
    type zeroGradient;
  }
} 	// ************************************************************************* //

