/*--------------------------------*- C++ -*----------------------------------*\
  =========                 |
  \\      /  F ield         | OpenFOAM: The Open Source CFD Toolbox
   \\    /   O peration     | Website:  https://openfoam.org
    \\  /    A nd           | Version:  6
     \\/     M anipulation  |
\*---------------------------------------------------------------------------*/
FoamFile
{
    version     2.0;
    format      ascii;
    class       volScalarField;
    location    "350";
    object      alphat;
}
// * * * * * * * * * * * * * * * * * * * * * * * * * * * * * * * * * * * * * //

dimensions      [1 -1 -1 0 0 0 0];

internalField   nonuniform List<scalar> 
459
(
0.00101547
0.00113437
0.00119074
0.00126354
0.00133757
0.00141704
0.00148549
0.0015352
0.00155584
0.00149689
0.00140103
0.0012925
0.00116444
0.00104882
0.000926945
0.000553314
0.00072422
0.00084533
0.000880988
0.00087935
0.000856495
0.000808154
0.000756016
0.000708106
0.000665513
0.000627758
0.0005942
0.000564408
0.000537367
0.000511943
0.000486659
0.000459142
0.000418662
0.000373185
0.00127414
0.00332555
0.00338585
0.00396119
0.00452382
0.00493552
0.00534347
0.00573676
0.00609963
0.0063182
0.00615001
0.00573875
0.00510208
0.00392639
0.00252901
0.0010536
0.00088575
0.000792321
0.00285092
0.0029977
0.00343938
0.0037125
0.00355779
0.00250754
0.00208115
0.00180739
0.00160921
0.00145802
0.00133827
0.00123024
0.00112501
0.00101623
0.000916535
0.00084855
0.000688974
0.000431834
0.00148858
0.00455673
0.00427336
0.00476958
0.00505678
0.0052718
0.00554389
0.00595526
0.00652681
0.00707785
0.00725061
0.0071153
0.00671443
0.00585568
0.00452502
0.00278138
0.000997287
0.000850761
0.00262134
0.00340784
0.00423677
0.00475764
0.00432555
0.00108294
0.000945864
0.000835925
0.000748349
0.000678144
0.000621317
0.000575548
0.000539414
0.000513209
0.000582048
0.00071145
0.000738794
0.000465891
0.00169216
0.005508
0.00448134
0.00487472
0.00487993
0.00491036
0.00504645
0.00547904
0.00621114
0.00692283
0.0073157
0.00738821
0.00720463
0.00671299
0.00579921
0.00436845
0.00227206
0.001092
0.00161944
0.00267246
0.0040648
0.00524455
0.00588788
0.00528625
0.00119631
0.00108977
0.00101235
0.000951599
0.000898964
0.000851971
0.000805729
0.000756599
0.000699904
0.000649052
0.000685935
0.000821405
0.000515251
0.00190068
0.00663587
0.00482344
0.00502403
0.00487829
0.00472337
0.00472872
0.00520166
0.00600707
0.00679742
0.00728897
0.00743672
0.0073435
0.00706646
0.00655525
0.00571888
0.00456765
0.00423233
0.00496655
0.00592657
0.00678905
0.0073702
0.0075985
0.00731536
0.00593431
0.00527436
0.0048932
0.00461198
0.00433253
0.00395074
0.00346819
0.00289172
0.00225145
0.00164007
0.00122068
0.00112374
0.000800423
0.000580974
0.000582299
0.000584478
0.00212494
0.0079412
0.00600901
0.00557436
0.00519278
0.0047527
0.00466317
0.00513921
0.00601865
0.0068897
0.0074249
0.00757837
0.00752014
0.00741982
0.00730368
0.00710208
0.00691136
0.00731019
0.00802828
0.00858284
0.00889593
0.00895695
0.00879566
0.00842749
0.00782627
0.00730016
0.00686433
0.00646369
0.00604853
0.00556136
0.00498317
0.00431385
0.00356606
0.00279974
0.00213798
0.00174535
0.00136668
0.0011095
0.00129142
0.00076916
0.0023248
0.00885389
0.00778003
0.00659742
0.00557282
0.00479811
0.00467122
0.0052511
0.00626329
0.00722328
0.00777911
0.00793115
0.00797364
0.00814687
0.0083461
0.00853098
0.00881459
0.00933724
0.00979169
0.00995045
0.00985091
0.0095463
0.0091032
0.00858308
0.00803168
0.00753074
0.00707703
0.00663565
0.00617997
0.00570952
0.00523125
0.00474175
0.00418483
0.00358495
0.00299012
0.00251116
0.00206265
0.0017013
0.00165375
0.0009193
0.00236789
0.00773591
0.00704569
0.0060566
0.00499487
0.00441909
0.00462079
0.00554088
0.00678303
0.00781391
0.00834293
0.00851143
0.00875293
0.00894441
0.00909286
0.00932875
0.00966498
0.0100085
0.0101551
0.00999608
0.00958961
0.00902129
0.0083746
0.00772703
0.00713838
0.00663131
0.00617856
0.00575172
0.00533726
0.00493774
0.00457411
0.0042871
0.00408589
0.00383199
0.00352504
0.00326182
0.00299009
0.00253819
0.00282817
0.00119261
0.00231798
0.00272557
0.00288392
0.00287362
0.00293813
0.0034985
0.00469492
0.0062706
0.00773053
0.00863593
0.00899119
0.00910643
0.00897123
0.00884357
0.00887039
0.00903356
0.00922699
0.00930185
0.00915154
0.00877551
0.00822371
0.00758111
0.00693676
0.00636019
0.0058751
0.00546187
0.00508579
0.00472611
0.00436429
0.00398177
0.0035721
0.00317246
0.00284193
0.00260445
0.00242202
0.00226192
0.00211688
0.00198442
0.00188963
0.00126134
0.000652631
0.00145053
0.00303843
0.00511213
0.00704731
0.00843875
0.00915907
0.00928806
0.00892036
0.00849221
0.00819141
0.00805948
0.00804816
0.00807055
0.00803794
0.00788101
0.00759196
0.00722048
0.00683155
0.00647394
0.00616719
0.00590336
0.0056576
0.00539943
0.00510567
0.00477283
0.00440013
0.00399672
0.00357656
0.00317363
0.00282063
0.00254624
0.00236227
0.00224866
0.00215931
0.00205276
0.00194025
0.00138659
0.00177257
0.00703463
0.00914843
0.00970347
0.00981933
0.00959826
0.00908298
0.00842168
0.00784215
0.00746866
0.00728828
0.00722006
0.00719871
0.00718458
0.00715299
0.00709073
0.00700017
0.00689613
0.00679477
0.00670633
0.00663207
0.00656545
0.00649449
0.00640222
0.00626716
0.00607137
0.00579874
0.00544142
0.00500074
0.0045063
0.00400256
0.00353215
0.0031318
0.00281418
0.0025624
0.00237091
0.00299513
0.00152432
0.00187174
0.00200173
0.0021322
0.00244443
0.00235196
0.00220092
0.00208821
0.00197955
0.00186886
0.0017744
0.00171171
0.00167844
0.00166441
0.00166153
0.00166412
0.00166816
0.00167055
0.00166952
0.00166513
0.00165877
0.00165199
0.00164563
0.00163962
0.00163309
0.0016245
0.00161199
0.00159387
0.00156843
0.00153529
0.00149569
0.00145311
0.0014113
0.00137413
0.00134506
0.00132593
0.00131524
0.00130444
0.00127853
0.00127423
0.00124653
)
;

boundaryField
{
    floor
    {
        type            compressible::alphatWallFunction;
        Prt             0.85;
        value           nonuniform List<scalar> 
29
(
0.000132194
7.75722e-05
0.000102986
0.000120544
0.000125657
0.000125424
0.000122151
0.000115192
0.000107631
0.000100627
9.4352e-05
8.87488e-05
8.37337e-05
7.92519e-05
7.51585e-05
7.12865e-05
6.74116e-05
6.31653e-05
5.68585e-05
4.96783e-05
4.96776e-05
5.89192e-05
6.42108e-05
7.17944e-05
0.000132192
7.75712e-05
0.000112895
0.000121317
0.000155421
)
;
    }
    ceiling
    {
        type            compressible::alphatWallFunction;
        Prt             0.85;
        value           nonuniform List<scalar> 
43
(
0.000260579
0.000277575
0.000294517
0.000334636
0.000322834
0.000303436
0.000288867
0.000274738
0.000260257
0.000247827
0.000239538
0.000235126
0.000233264
0.000232882
0.000233228
0.000233764
0.000234083
0.000233945
0.000233361
0.000232515
0.000231613
0.000230766
0.000229965
0.000229095
0.000227951
0.000226282
0.000223863
0.00022046
0.000216021
0.000210701
0.000204963
0.000199311
0.000194269
0.000190314
0.000187706
0.000186246
0.000184771
0.000181226
0.00018064
0.000176844
0.000318482
0.000370286
0.00024748
)
;
    }
    sWall
    {
        type            compressible::alphatWallFunction;
        Prt             0.85;
        value           uniform 0.000260096;
    }
    nWall
    {
        type            compressible::alphatWallFunction;
        Prt             0.85;
        value           nonuniform List<scalar> 6(8.1979e-05 0.000109228 0.000130798 0.000195614 0.000214195 0.000176503);
    }
    sideWalls
    {
        type            empty;
    }
    glass1
    {
        type            compressible::alphatWallFunction;
        Prt             0.85;
        value           nonuniform List<scalar> 9(0.00014325 0.000178934 0.000207911 0.000235004 0.000262398 0.000291506 0.000317178 0.000322713 0.00031639);
    }
    glass2
    {
        type            compressible::alphatWallFunction;
        Prt             0.85;
        value           nonuniform List<scalar> 2(0.000168386 0.000177849);
    }
    sun
    {
        type            compressible::alphatWallFunction;
        Prt             0.85;
        value           nonuniform List<scalar> 
14
(
0.000144706
0.000161311
0.000169115
0.000179132
0.000189251
0.000200041
0.000209282
0.000215962
0.00021873
0.000210813
0.000197872
0.000183099
0.000165484
0.000149387
)
;
    }
    heatsource1
    {
        type            compressible::alphatWallFunction;
        Prt             0.85;
        value           nonuniform List<scalar> 3(8.16329e-05 8.18315e-05 8.21583e-05);
    }
    heatsource2
    {
        type            compressible::alphatWallFunction;
        Prt             0.85;
        value           nonuniform List<scalar> 4(0.000149947 0.000126218 0.000126217 0.000142037);
    }
    Table_master
    {
        type            compressible::alphatWallFunction;
        Prt             0.85;
        value           nonuniform List<scalar> 9(0.000154049 0.000134771 0.000119074 0.000106394 9.61e-05 8.76726e-05 8.08164e-05 7.53557e-05 7.13671e-05);
    }
    Table_slave
    {
        type            compressible::alphatWallFunction;
        Prt             0.85;
        value           nonuniform List<scalar> 9(0.000169782 0.000155005 0.000144163 0.000135587 0.000128105 0.000121381 0.000114721 0.000107596 9.93031e-05);
    }
    inlet
    {
        type            fixedValue;
        value           uniform 1.94e-05;
    }
    outlet
    {
        type            zeroGradient;
    }
}


// ************************************************************************* //
