/*--------------------------------*- C++ -*----------------------------------*\
  =========                 |
  \\      /  F ield         | OpenFOAM: The Open Source CFD Toolbox
   \\    /   O peration     | Website:  https://openfoam.org
    \\  /    A nd           | Version:  6
     \\/     M anipulation  |
\*---------------------------------------------------------------------------*/
FoamFile
{
    version     2.0;
    format      ascii;
    class       volScalarField;
    location    "500";
    object      nut;
}
// * * * * * * * * * * * * * * * * * * * * * * * * * * * * * * * * * * * * * //

dimensions      [0 2 -1 0 0 0 0];

internalField   nonuniform List<scalar> 
459
(
0.00176902
0.00238678
0.00227285
0.00212301
0.00198042
0.00184548
0.001698
0.00150939
0.00113087
0.000563027
0.000505041
0.000492055
0.000488001
0.000492721
0.000500785
0.000323234
0.000345769
0.000355655
0.000304746
0.00025728
0.000231882
0.000217348
0.00020982
0.000189065
0.000185166
0.000188106
0.00019348
0.000209169
0.000241313
0.000286185
0.000336225
0.000372452
0.000378127
0.000343207
0.00268313
0.00332979
0.00349447
0.00342273
0.00326944
0.00308737
0.00285938
0.00251476
0.00196154
0.00152871
0.00197763
0.00208846
0.00191971
0.0016324
0.00117371
0.000537657
0.000410021
0.000487091
0.000838162
0.00101239
0.00114884
0.00117386
0.00100258
0.000758772
0.000472305
0.000289366
0.000240031
0.000239186
0.000276937
0.000367222
0.000547667
0.000812638
0.00123033
0.00128667
0.00130794
0.00045705
0.00313047
0.00411819
0.00405542
0.0038383
0.00364112
0.00347187
0.00326461
0.00291966
0.00237946
0.00221159
0.002795
0.0029464
0.00262003
0.00215836
0.00161709
0.00108198
0.000613729
0.000750575
0.00209055
0.00201147
0.00194227
0.00167635
0.0011457
0.00043962
0.000367105
0.000310642
0.000261298
0.000252991
0.000310195
0.000371927
0.000443802
0.000534449
0.00124157
0.00125208
0.00103628
0.000536384
0.00333306
0.00491391
0.0044217
0.0039863
0.00374564
0.00358323
0.00337966
0.00304243
0.00262707
0.00294898
0.00349622
0.00368755
0.00331744
0.00277393
0.0021551
0.001538
0.00107837
0.000893927
0.00266621
0.0025745
0.00243428
0.00203755
0.00153572
0.00101515
0.000611011
0.00062653
0.000643865
0.000660959
0.000678259
0.000698039
0.000716311
0.00073479
0.000754508
0.00155721
0.0021939
0.00243367
0.000898721
0.00348923
0.00530199
0.004221
0.00371511
0.0036136
0.00349453
0.00330059
0.00303606
0.00289966
0.00352826
0.00404296
0.00447838
0.00454134
0.0043769
0.00418411
0.00396032
0.0037452
0.00365263
0.00396788
0.00397349
0.00374602
0.00349058
0.00328465
0.00313949
0.0030593
0.00307399
0.00309312
0.00310874
0.00312546
0.00315576
0.00320513
0.00328155
0.00338835
0.00352939
0.00357509
0.00346327
0.00284035
0.00126109
0.00114899
0.00101337
0.00364287
0.00507852
0.003448
0.00374718
0.00345207
0.00333723
0.00319898
0.00308478
0.00322319
0.00393005
0.00444592
0.00504955
0.00534645
0.00543183
0.00546729
0.00548336
0.00546271
0.00541195
0.0053423
0.00515795
0.00490599
0.00465952
0.00445528
0.00429976
0.00418255
0.00408913
0.00400127
0.00391782
0.00384945
0.00381296
0.00382063
0.003876
0.00396838
0.00406746
0.00414701
0.00417195
0.00391337
0.00350548
0.00266948
0.00113277
0.00382968
0.00441633
0.00248619
0.00347214
0.00331552
0.00323963
0.00318915
0.00323599
0.00355473
0.00421252
0.00475898
0.0053969
0.00572587
0.00585993
0.00595066
0.00603679
0.00608876
0.00608493
0.00601744
0.00587741
0.00568376
0.00547033
0.00526333
0.00507542
0.00490491
0.00474324
0.00458069
0.00441416
0.00425245
0.00411179
0.00400586
0.00394304
0.0039127
0.0038789
0.00379155
0.00359428
0.00324175
0.00279978
0.00229072
0.00111108
0.00409254
0.00421347
0.00268521
0.00277231
0.00328282
0.00331245
0.00333445
0.00348575
0.00386837
0.00444243
0.00497409
0.00548181
0.00570553
0.00577326
0.0058504
0.00595297
0.00605154
0.00611824
0.00613717
0.00609957
0.00601066
0.00589008
0.00575891
0.00563086
0.00550805
0.00538376
0.00524615
0.00508165
0.00488938
0.00467474
0.00441394
0.0040979
0.00373781
0.00335973
0.0029926
0.00266849
0.00238501
0.00211612
0.00184512
0.00125947
0.00455466
0.00529578
0.00625834
0.00233948
0.0031798
0.00371863
0.00371009
0.00385374
0.00420501
0.00465916
0.00501762
0.00526463
0.00528538
0.00525358
0.00527075
0.0053411
0.00544701
0.00556342
0.00566683
0.00573811
0.00576902
0.00576702
0.0057496
0.00573657
0.00574169
0.00576643
0.00580726
0.00583299
0.00581069
0.00570686
0.00554943
0.00537048
0.00519951
0.00504625
0.00485963
0.00448937
0.00392914
0.00350133
0.00332637
0.00147732
0.0111517
0.00541221
0.00253469
0.00426264
0.00431928
0.00435972
0.00457721
0.00475388
0.00477956
0.00476372
0.00462101
0.00448759
0.00440534
0.0043898
0.00444168
0.00454845
0.00468788
0.00483334
0.00496188
0.0050621
0.00513556
0.00519443
0.00525898
0.00535495
0.00550429
0.0056947
0.00587
0.00595954
0.00594231
0.00585118
0.00573527
0.00562951
0.00554669
0.00548396
0.00531295
0.00467228
0.00434254
0.00147535
0.00514853
0.00300109
0.00437962
0.00446713
0.00440155
0.00430864
0.00416851
0.00395721
0.00383183
0.00370288
0.0035657
0.00344739
0.00336591
0.00333383
0.00335891
0.00344115
0.00357014
0.0037263
0.00388726
0.00403506
0.0041582
0.00424443
0.00429643
0.00435331
0.00443934
0.00456599
0.00472359
0.00487647
0.00498071
0.00501683
0.00499505
0.0049317
0.00483185
0.00468211
0.00428207
0.00363853
0.00355026
0.0013104
0.00191623
0.00272791
0.00382037
0.00166091
0.00136882
0.00143628
0.0014095
0.00134343
0.00125641
0.00117338
0.00110213
0.00104171
0.000991374
0.000947868
0.000909865
0.000877276
0.00085078
0.000831355
0.000819683
0.000815577
0.000817798
0.0008244
0.000833329
0.000843829
0.000856486
0.000870047
0.000885352
0.000904067
0.000927698
0.000957019
0.000991486
0.00102831
0.00106207
0.00108568
0.00109137
0.0010711
0.0010408
0.00100346
0.00101326
0.000963135
)
;

boundaryField
{
    floor
    {
        type            nutkWallFunction;
        Cmu             0.09;
        kappa           0.41;
        E               9.8;
        value           nonuniform List<scalar> 
29
(
5.98297e-05
3.65459e-05
3.95786e-05
4.08989e-05
3.40358e-05
2.75042e-05
2.39427e-05
2.18818e-05
2.08078e-05
1.78171e-05
1.72492e-05
1.76747e-05
1.84536e-05
2.07132e-05
2.52728e-05
3.15033e-05
3.82994e-05
4.31364e-05
4.38852e-05
3.92318e-05
3.92317e-05
5.4199e-05
6.43577e-05
0.000108742
5.98296e-05
3.65459e-05
5.80604e-05
9.09048e-05
0.000108178
)
;
    }
    ceiling
    {
        type            nutkWallFunction;
        Cmu             0.09;
        kappa           0.41;
        E               9.8;
        value           nonuniform List<scalar> 
43
(
0.000224367
0.000311478
0.000424595
0.000196131
0.000163352
0.000171008
0.00016798
0.000160474
0.000150526
0.000140965
0.000132697
0.00012564
0.000119724
0.000114584
0.000110071
0.000106185
0.000103014
0.000100682
9.92788e-05
9.8786e-05
9.90555e-05
9.98518e-05
0.000100927
0.00010219
0.000103708
0.000105331
0.000107158
0.000109388
0.000112196
0.000115669
0.000119736
0.000124063
0.000128014
0.000130769
0.000131432
0.000129066
0.000125522
0.000121139
0.000122289
0.00011638
0.000498912
0.000572567
0.000557914
)
;
    }
    sWall
    {
        type            nutkWallFunction;
        Cmu             0.09;
        kappa           0.41;
        E               9.8;
        value           uniform 0.00022442;
    }
    nWall
    {
        type            nutkWallFunction;
        Cmu             0.09;
        kappa           0.41;
        E               9.8;
        value           nonuniform List<scalar> 6(0.000122308 0.000136247 0.000133724 0.00017539 0.000156686 0.000116386);
    }
    sideWalls
    {
        type            empty;
    }
    glass1
    {
        type            nutkWallFunction;
        Cmu             0.09;
        kappa           0.41;
        E               9.8;
        value           nonuniform List<scalar> 9(0.000208428 0.000307202 0.000354168 0.000375199 0.00039132 0.000407105 0.000426205 0.000452924 0.000499488);
    }
    glass2
    {
        type            nutkWallFunction;
        Cmu             0.09;
        kappa           0.41;
        E               9.8;
        value           nonuniform List<scalar> 2(0.000150903 0.000175668);
    }
    sun
    {
        type            nutkWallFunction;
        Cmu             0.09;
        kappa           0.41;
        E               9.8;
        value           nonuniform List<scalar> 
14
(
0.000208195
0.000275292
0.000263063
0.000246881
0.000231369
0.000216576
0.000200269
0.000179171
0.000135767
6.76846e-05
6.03779e-05
5.87189e-05
5.81997e-05
5.88022e-05
)
;
    }
    heatsource1
    {
        type            nutkWallFunction;
        Cmu             0.09;
        kappa           0.41;
        E               9.8;
        value           nonuniform List<scalar> 3(0.00015104 0.000138122 0.000122302);
    }
    heatsource2
    {
        type            nutkWallFunction;
        Cmu             0.09;
        kappa           0.41;
        E               9.8;
        value           nonuniform List<scalar> 4(6.4528e-05 4.80944e-05 4.80943e-05 7.40845e-05);
    }
    Table_master
    {
        type            nutkWallFunction;
        Cmu             0.09;
        kappa           0.41;
        E               9.8;
        value           nonuniform List<scalar> 9(5.19446e-05 4.24241e-05 3.48445e-05 2.80729e-05 2.69307e-05 3.4797e-05 4.30754e-05 5.24968e-05 6.41121e-05);
    }
    Table_slave
    {
        type            nutkWallFunction;
        Cmu             0.09;
        kappa           0.41;
        E               9.8;
        value           nonuniform List<scalar> 9(7.37304e-05 7.56618e-05 7.78127e-05 7.9927e-05 8.20603e-05 8.44914e-05 8.67307e-05 8.89891e-05 9.13929e-05);
    }
    inlet
    {
        type            calculated;
        value           uniform 3.3541e-05;
    }
    outlet
    {
        type            calculated;
        value           nonuniform List<scalar> 2(0.00191623 0.00272791);
    }
}


// ************************************************************************* //
