/*--------------------------------*- C++ -*----------------------------------*\
  =========                 |
  \\      /  F ield         | OpenFOAM: The Open Source CFD Toolbox
   \\    /   O peration     | Website:  https://openfoam.org
    \\  /    A nd           | Version:  6
     \\/     M anipulation  |
\*---------------------------------------------------------------------------*/
FoamFile
{
    version     2.0;
    format      ascii;
    class       volScalarField;
    location    "640";
    object      nut;
}
// * * * * * * * * * * * * * * * * * * * * * * * * * * * * * * * * * * * * * //

dimensions      [0 2 -1 0 0 0 0];

internalField   nonuniform List<scalar> 
459
(
0.000892368
0.000969212
0.000984099
0.00103074
0.00107373
0.00111375
0.00115258
0.0011926
0.00122637
0.00124873
0.00125483
0.00123973
0.0011985
0.00112618
0.00102591
0.000594217
0.000798026
0.000759402
0.000717751
0.000681582
0.000647233
0.000609013
0.000571732
0.000537719
0.000507333
0.000480291
0.000456
0.000433917
0.000413455
0.000393881
0.000374083
0.000353698
0.000324927
0.000345158
0.0012307
0.00281161
0.00261021
0.00301917
0.00341579
0.00383012
0.00422329
0.0045305
0.00481849
0.00508793
0.00530522
0.00542431
0.00536949
0.00496712
0.00368184
0.00107089
0.00065654
0.000801602
0.0022811
0.00211479
0.00219998
0.00226614
0.00220466
0.00176375
0.00152806
0.00136142
0.00123187
0.00112308
0.00102839
0.000943
0.000862068
0.00078444
0.000719709
0.000717522
0.000652918
0.00043647
0.00151695
0.0038157
0.00315865
0.00401607
0.00439698
0.00467865
0.00490008
0.00508084
0.00529507
0.00555849
0.005851
0.0061368
0.0063578
0.00641682
0.00610655
0.00485855
0.00103851
0.00100885
0.00183538
0.00240897
0.0028004
0.00301283
0.0028073
0.000820449
0.000723763
0.000647401
0.000586704
0.000537968
0.000498428
0.000466169
0.000440147
0.000420494
0.00047404
0.000610526
0.000736149
0.000477941
0.00179484
0.00492
0.0030816
0.00421676
0.00453039
0.00459299
0.00460633
0.00466037
0.00481091
0.00506716
0.00541103
0.00581318
0.00621667
0.00654114
0.00667559
0.00633708
0.00487805
0.00130056
0.00192669
0.00260252
0.00322254
0.00366973
0.0038919
0.003526
0.000904578
0.000828787
0.000780527
0.000748263
0.000723962
0.000701292
0.000674725
0.00064738
0.000614699
0.000588647
0.000628505
0.000841517
0.000537663
0.0020782
0.00636018
0.0032809
0.00396826
0.00440882
0.00434606
0.00421565
0.0041974
0.00433936
0.00460304
0.00497548
0.00543546
0.00590915
0.00628589
0.00651383
0.00651171
0.00614521
0.00525061
0.00506941
0.00507512
0.00509835
0.00508631
0.00501409
0.00478297
0.00405413
0.00376248
0.00362559
0.00354194
0.0034658
0.00336718
0.00320818
0.00287895
0.00241517
0.00187719
0.00142453
0.00127277
0.000901093
0.00061133
0.000601325
0.000575845
0.00237694
0.00794662
0.00449707
0.00364769
0.00411385
0.00419455
0.00408249
0.00398139
0.00413835
0.00440298
0.00478796
0.0052648
0.00575019
0.00614228
0.00637323
0.00643208
0.006362
0.00622663
0.00614722
0.00604988
0.00590085
0.00570821
0.00549222
0.00526029
0.00500361
0.00482643
0.00470456
0.0046111
0.00452913
0.00443818
0.00430458
0.00406006
0.00366303
0.00312362
0.00253219
0.00207613
0.0016128
0.00124941
0.00135771
0.000716695
0.00266665
0.00917301
0.0067168
0.00444387
0.00395369
0.00404174
0.00409586
0.00409549
0.00418411
0.0044152
0.00480783
0.00531513
0.00583404
0.00624667
0.00648042
0.00654549
0.00653043
0.00650441
0.00643919
0.00627286
0.00602251
0.00573855
0.00546774
0.00524052
0.00506759
0.00494566
0.00485102
0.00477338
0.00471239
0.00465767
0.00457707
0.00443605
0.00419854
0.00382233
0.00334659
0.00286822
0.00236499
0.00188814
0.00175887
0.000845182
0.00274028
0.00874772
0.00732213
0.00616384
0.00531307
0.00491434
0.00458623
0.00435168
0.00433943
0.00457706
0.0050268
0.00559318
0.00614881
0.00656781
0.00678466
0.00681887
0.00675397
0.00662322
0.00640866
0.00611692
0.00581723
0.00555052
0.0053353
0.00517087
0.00504289
0.00493019
0.00481665
0.00470386
0.00460678
0.00453133
0.00444701
0.00431894
0.00418034
0.00401823
0.00373406
0.00342026
0.00306927
0.00252031
0.00267144
0.00106372
0.00268179
0.00322805
0.00373851
0.00389339
0.00390572
0.00385174
0.00385092
0.00399577
0.00433224
0.00485477
0.00548944
0.00612997
0.00667562
0.00702578
0.00714519
0.0070613
0.00683754
0.00653451
0.00623607
0.00597595
0.00576717
0.00560394
0.00547484
0.00536261
0.00524721
0.0051094
0.00493637
0.00472868
0.00450255
0.00427532
0.00402047
0.00366984
0.00324802
0.00287482
0.0025789
0.00232347
0.00211012
0.00193655
0.00182127
0.00113974
0.00220111
0.00361109
0.00397106
0.00421678
0.00453242
0.00497153
0.00548648
0.00602008
0.00653179
0.00698637
0.00733538
0.00746994
0.00737036
0.00712759
0.00688311
0.00668808
0.00653869
0.00641787
0.00631363
0.00622178
0.00613679
0.0060484
0.00594184
0.0057979
0.00559447
0.00531137
0.00494054
0.00449911
0.00402897
0.00355185
0.00309926
0.00271934
0.00243443
0.00224581
0.00211881
0.00200828
0.00193415
0.00135628
0.00203205
0.00368143
0.00426943
0.00487166
0.00564522
0.00628868
0.00675136
0.00717633
0.00759388
0.00797729
0.00827953
0.00833032
0.00815345
0.00787087
0.00765306
0.00752437
0.00744693
0.00737666
0.00729232
0.00721385
0.00714645
0.00709197
0.00704763
0.00700073
0.00692342
0.00677245
0.0064992
0.00607248
0.00552647
0.00491742
0.00430097
0.00373271
0.00324981
0.00287053
0.00258423
0.00238417
0.00316449
0.00153972
0.00150547
0.00164168
0.00178635
0.00183072
0.00170977
0.00167426
0.00166155
0.00168519
0.00174288
0.00180158
0.00185024
0.00187821
0.00187802
0.00185147
0.00181464
0.00178624
0.00176473
0.00174924
0.00173698
0.00172692
0.00172022
0.00171528
0.00171219
0.00171022
0.00170734
0.0017
0.00168357
0.001654
0.00161059
0.00155946
0.0015052
0.00145145
0.00140236
0.00136092
0.00132984
0.00130953
0.00129531
0.00127872
0.00131946
0.0012808
)
;

boundaryField
{
    floor
    {
        type            nutkWallFunction;
        Cmu             0.09;
        kappa           0.41;
        E               9.8;
        value           nonuniform List<scalar> 
29
(
0.000123785
7.16114e-05
9.66581e-05
9.19762e-05
8.68959e-05
8.24557e-05
7.8213e-05
7.34601e-05
6.87893e-05
6.44954e-05
6.06314e-05
5.71686e-05
5.40375e-05
5.11729e-05
4.85024e-05
4.59321e-05
4.33159e-05
4.06038e-05
3.67415e-05
3.94648e-05
3.94647e-05
5.15056e-05
5.68665e-05
6.44881e-05
0.000123785
7.16114e-05
9.70901e-05
0.000121781
0.000155584
)
;
    }
    ceiling
    {
        type            nutkWallFunction;
        Cmu             0.09;
        kappa           0.41;
        E               9.8;
        value           nonuniform List<scalar> 
43
(
0.000178751
0.000193981
0.000210011
0.00021493
0.000201583
0.000197649
0.000196242
0.000198877
0.000205279
0.00021177
0.000217134
0.000220212
0.000220193
0.000217277
0.000213224
0.000210093
0.000207717
0.000206004
0.000204647
0.000203533
0.000202791
0.000202243
0.000201901
0.000201682
0.000201363
0.000200548
0.000198724
0.000195435
0.000190597
0.000184879
0.000178787
0.00017273
0.000167176
0.000162472
0.000158932
0.000156614
0.000154989
0.00015309
0.000157747
0.000153329
0.00030679
0.000363994
0.000236896
)
;
    }
    sWall
    {
        type            nutkWallFunction;
        Cmu             0.09;
        kappa           0.41;
        E               9.8;
        value           uniform 0.000178796;
    }
    nWall
    {
        type            nutkWallFunction;
        Cmu             0.09;
        kappa           0.41;
        E               9.8;
        value           nonuniform List<scalar> 6(6.92921e-05 8.67625e-05 0.000102341 0.000161962 0.000182688 0.000153346);
    }
    sideWalls
    {
        type            empty;
    }
    glass1
    {
        type            nutkWallFunction;
        Cmu             0.09;
        kappa           0.41;
        E               9.8;
        value           nonuniform List<scalar> 9(0.000108017 0.000147696 0.000180286 0.000211272 0.000242335 0.000274593 0.000305468 0.000313264 0.000307086);
    }
    glass2
    {
        type            nutkWallFunction;
        Cmu             0.09;
        kappa           0.41;
        E               9.8;
        value           nonuniform List<scalar> 2(0.000128245 0.000137106);
    }
    sun
    {
        type            nutkWallFunction;
        Cmu             0.09;
        kappa           0.41;
        E               9.8;
        value           nonuniform List<scalar> 
14
(
0.000107986
0.000117109
0.000118866
0.000124354
0.000129387
0.00013405
0.000138557
0.000143185
0.000147077
0.000149647
0.000150347
0.000148613
0.000143866
0.000135494
)
;
    }
    heatsource1
    {
        type            nutkWallFunction;
        Cmu             0.09;
        kappa           0.41;
        E               9.8;
        value           nonuniform List<scalar> 3(7.37433e-05 7.24935e-05 6.92984e-05);
    }
    heatsource2
    {
        type            nutkWallFunction;
        Cmu             0.09;
        kappa           0.41;
        E               9.8;
        value           nonuniform List<scalar> 4(0.000129059 7.93593e-05 7.93593e-05 0.000125268);
    }
    Table_master
    {
        type            nutkWallFunction;
        Cmu             0.09;
        kappa           0.41;
        E               9.8;
        value           nonuniform List<scalar> 9(9.93648e-05 8.76292e-05 7.8229e-05 7.0662e-05 6.45172e-05 5.94815e-05 5.53366e-05 5.1967e-05 4.94056e-05);
    }
    Table_slave
    {
        type            nutkWallFunction;
        Cmu             0.09;
        kappa           0.41;
        E               9.8;
        value           nonuniform List<scalar> 9(0.000109444 0.000100369 9.454e-05 9.06196e-05 8.76534e-05 8.48757e-05 8.16068e-05 7.8226e-05 7.41628e-05);
    }
    inlet
    {
        type            calculated;
        value           uniform 6.7082e-05;
    }
    outlet
    {
        type            calculated;
        value           nonuniform List<scalar> 2(0.00150547 0.00164168);
    }
}


// ************************************************************************* //
