// -*- C++ -*-
// File generated by PyFoam - sorry for the ugliness

FoamFile
{
 version 2.0;
 format ascii;
 class volScalarField;
 location "900";
 object T;
}

dimensions [ 0 0 0 1 0 0 0 ];

internalField nonuniform List<scalar> 459
(
  303.564
  303.305
  303.292
  303.289
  303.285
  303.281
  303.276
  303.271
  303.262
  303.251
  303.239
  303.228
  303.22
  303.216
  303.217
  303.308
  303.287
  303.279
  303.281
  303.285
  303.288
  303.292
  303.296
  303.3
  303.303
  303.307
  303.311
  303.314
  303.318
  303.322
  303.325
  303.33
  303.335
  303.354
  303.738
  303.348
  303.325
  303.327
  303.33
  303.331
  303.329
  303.322
  303.308
  303.285
  303.259
  303.235
  303.217
  303.206
  303.201
  303.198
  303.196
  303.308
  303.271
  303.265
  303.267
  303.272
  303.276
  303.278
  303.28
  303.281
  303.282
  303.284
  303.285
  303.287
  303.288
  303.291
  303.295
  303.301
  303.31
  303.339
  303.92
  303.399
  303.36
  303.371
  303.384
  303.395
  303.4
  303.395
  303.372
  303.334
  303.289
  303.249
  303.219
  303.202
  303.196
  303.196
  303.198
  303.251
  303.25
  303.256
  303.266
  303.276
  303.283
  303.283
  303.283
  303.283
  303.283
  303.284
  303.284
  303.284
  303.285
  303.286
  303.289
  303.293
  303.301
  303.332
  304.104
  303.462
  303.397
  303.412
  303.44
  303.467
  303.485
  303.484
  303.449
  303.388
  303.319
  303.26
  303.218
  303.196
  303.191
  303.195
  303.201
  303.212
  303.225
  303.243
  303.262
  303.28
  303.296
  303.307
  303.317
  303.326
  303.334
  303.341
  303.347
  303.351
  303.355
  303.358
  303.359
  303.336
  303.317
  303.308
  303.331
  304.282
  303.541
  303.439
  303.449
  303.487
  303.532
  303.571
  303.57
  303.518
  303.429
  303.336
  303.26
  303.211
  303.188
  303.185
  303.193
  303.207
  303.225
  303.245
  303.269
  303.292
  303.314
  303.332
  303.347
  303.36
  303.371
  303.38
  303.387
  303.392
  303.394
  303.393
  303.39
  303.383
  303.365
  303.34
  303.32
  303.329
  303.4
  303.447
  303.453
  304.443
  303.644
  303.512
  303.501
  303.537
  303.593
  303.644
  303.625
  303.547
  303.439
  303.33
  303.244
  303.191
  303.171
  303.176
  303.195
  303.221
  303.249
  303.278
  303.307
  303.334
  303.357
  303.376
  303.39
  303.403
  303.412
  303.42
  303.426
  303.428
  303.428
  303.423
  303.415
  303.405
  303.387
  303.362
  303.338
  303.332
  303.362
  303.379
  303.414
  304.591
  303.807
  303.675
  303.646
  303.662
  303.709
  303.714
  303.646
  303.528
  303.393
  303.274
  303.191
  303.15
  303.146
  303.169
  303.207
  303.249
  303.289
  303.326
  303.358
  303.384
  303.406
  303.422
  303.434
  303.444
  303.451
  303.456
  303.459
  303.459
  303.456
  303.448
  303.437
  303.424
  303.406
  303.383
  303.36
  303.347
  303.355
  303.365
  303.394
  304.806
  304.219
  304.074
  303.987
  303.945
  303.887
  303.762
  303.589
  303.406
  303.25
  303.143
  303.092
  303.091
  303.125
  303.179
  303.243
  303.301
  303.348
  303.387
  303.415
  303.436
  303.452
  303.464
  303.472
  303.479
  303.483
  303.485
  303.485
  303.483
  303.478
  303.471
  303.459
  303.446
  303.43
  303.413
  303.396
  303.389
  303.401
  303.419
  303.541
  305.112
  304.836
  304.579
  304.344
  304.117
  303.822
  303.493
  303.213
  303.024
  302.932
  302.921
  302.968
  303.053
  303.144
  303.235
  303.322
  303.38
  303.418
  303.445
  303.465
  303.479
  303.49
  303.498
  303.503
  303.506
  303.507
  303.507
  303.506
  303.504
  303.501
  303.499
  303.499
  303.5
  303.506
  303.519
  303.541
  303.572
  303.603
  303.625
  303.677
  296.357
  298.239
  299.443
  300.275
  300.984
  301.586
  302.078
  302.46
  302.75
  302.98
  303.174
  303.287
  303.364
  303.417
  303.452
  303.476
  303.493
  303.505
  303.514
  303.52
  303.524
  303.526
  303.528
  303.529
  303.529
  303.53
  303.53
  303.531
  303.532
  303.534
  303.538
  303.546
  303.559
  303.577
  303.6
  303.622
  303.641
  303.662
  297.01
  298.848
  300.286
  301.251
  301.862
  302.312
  302.656
  302.913
  303.101
  303.235
  303.336
  303.404
  303.449
  303.48
  303.5
  303.515
  303.525
  303.532
  303.536
  303.54
  303.542
  303.544
  303.546
  303.547
  303.548
  303.549
  303.55
  303.551
  303.552
  303.554
  303.557
  303.563
  303.571
  303.584
  303.599
  303.617
  303.615
  303.644
  299.716
  299.638
  299.633
  301.466
  302.278
  302.667
  302.896
  303.065
  303.194
  303.292
  303.365
  303.419
  303.459
  303.486
  303.503
  303.515
  303.523
  303.528
  303.532
  303.534
  303.537
  303.539
  303.541
  303.543
  303.545
  303.547
  303.549
  303.551
  303.553
  303.555
  303.557
  303.559
  303.562
  303.566
  303.571
  303.58
  303.589
  303.595
  303.597
  303.636
)
;

boundaryField
{
  floor
  {
    type wallHeatTransfer;
    Tinf uniform 305.2;
    alphaWall uniform 0.24;
    value nonuniform List<scalar> 29
(
  303.409
  303.666
  303.603
  303.572
  303.575
  303.585
  303.599
  303.616
  303.634
  303.652
  303.67
  303.687
  303.703
  303.719
  303.734
  303.749
  303.765
  303.782
  303.797
  303.836
  303.836
  303.753
  303.712
  303.687
  303.409
  303.666
  303.648
  303.465
  303.377
)
;
  }
  ceiling
  {
    type wallHeatTransfer;
    Tinf uniform 303.2;
    alphaWall uniform 0.24;
    value nonuniform List<scalar> 43
(
  299.963
  299.879
  299.867
  301.574
  302.337
  302.703
  302.917
  303.074
  303.194
  303.284
  303.351
  303.399
  303.432
  303.453
  303.466
  303.473
  303.478
  303.481
  303.483
  303.484
  303.485
  303.487
  303.488
  303.49
  303.493
  303.495
  303.498
  303.5
  303.503
  303.507
  303.51
  303.514
  303.519
  303.524
  303.53
  303.541
  303.55
  303.554
  303.554
  303.586
  305.024
  304.77
  297.409
)
;
  }
  sWall
  {
    type wallHeatTransfer;
    Tinf uniform 315.2;
    alphaWall uniform 0.36;
    value uniform 301.314;
  }
  nWall
  {
    type wallHeatTransfer;
    Tinf uniform 307.2;
    alphaWall uniform 0.36;
    value nonuniform List<scalar> 6
(
  304.157
  304.105
  304.028
  304.174
  304.152
  304.215
)
;
  }
  sideWalls
  {
    type empty;
  }
  glass1
  {
    type wallHeatTransfer;
    Tinf uniform 315.2;
    alphaWall uniform 4.3;
    value nonuniform List<scalar> 9
(
  311.519
  310.888
  310.49
  310.187
  309.935
  309.707
  309.538
  309.61
  309.836
)
;
  }
  glass2
  {
    type wallHeatTransfer;
    Tinf uniform 307.2;
    alphaWall uniform 4.3;
    value nonuniform List<scalar> 2
(
  305.817
  305.912
)
;
  }
  sun
  {
    type wallHeatTransfer;
    Tinf uniform 305.2;
    alphaWall uniform 0.24;
    value nonuniform List<scalar> 14
(
  303.737
  303.492
  303.478
  303.468
  303.459
  303.45
  303.441
  303.432
  303.421
  303.41
  303.4
  303.393
  303.392
  303.397
)
;
  }
  heatsource1
  {
    type fixedGradient;
    gradient uniform 0;
  }
  heatsource2
  {
    type fixedGradient;
    gradient uniform 0;
  }
  Table_master
  {
    type zeroGradient;
  }
  Table_slave
  {
    type zeroGradient;
  }
  inlet
  {
    type fixedValue;
    value uniform 293.15;
  }
  outlet
  {
    type zeroGradient;
  }
} 	// ************************************************************************* //

