/*--------------------------------*- C++ -*----------------------------------*\
  =========                 |
  \\      /  F ield         | OpenFOAM: The Open Source CFD Toolbox
   \\    /   O peration     | Website:  https://openfoam.org
    \\  /    A nd           | Version:  6
     \\/     M anipulation  |
\*---------------------------------------------------------------------------*/
FoamFile
{
    version     2.0;
    format      ascii;
    class       volScalarField;
    location    "130";
    object      alphat;
}
// * * * * * * * * * * * * * * * * * * * * * * * * * * * * * * * * * * * * * //

dimensions      [1 -1 -1 0 0 0 0];

internalField   nonuniform List<scalar> 
459
(
0.00124938
0.00139986
0.00147242
0.00156684
0.00166631
0.00176577
0.00184425
0.00188843
0.00187776
0.00177618
0.00166507
0.00153718
0.00139782
0.00126609
0.00112428
0.000677127
0.000846682
0.000955563
0.00104246
0.00105384
0.00102596
0.000955408
0.000881746
0.000817038
0.000761971
0.000715111
0.000674999
0.000640168
0.000609838
0.00058226
0.000555483
0.000527118
0.000485528
0.000450423
0.00156409
0.00419074
0.00432493
0.00506849
0.00574548
0.00626842
0.00675139
0.00720322
0.00756692
0.00758678
0.00726253
0.00672085
0.00583537
0.0045393
0.00297413
0.00127688
0.00108108
0.00090326
0.00285023
0.00328225
0.00386598
0.00427415
0.0041329
0.00280159
0.00228564
0.00196098
0.00173276
0.00156467
0.00143726
0.00134017
0.00124468
0.00113831
0.00103276
0.000966137
0.000829993
0.000530163
0.00182488
0.00578587
0.00548113
0.00606661
0.00640406
0.00666707
0.00700225
0.00756013
0.00826297
0.00867326
0.00871549
0.00846387
0.00792713
0.00687595
0.00532489
0.00330246
0.00121387
0.00100951
0.00341217
0.00363782
0.00452127
0.00528725
0.00496754
0.00129205
0.00111094
0.000967286
0.000854603
0.000765874
0.000695469
0.000639283
0.000596464
0.000567694
0.000665833
0.000840887
0.000980949
0.000586413
0.00207418
0.00706175
0.00588587
0.00629087
0.00628551
0.00626231
0.00644211
0.00709274
0.00797605
0.00863425
0.00893297
0.00891077
0.00862995
0.00798722
0.00687421
0.0051592
0.00266824
0.00130744
0.00169037
0.00261513
0.00411417
0.00562838
0.00662751
0.0061567
0.00145287
0.00132229
0.00121987
0.00113682
0.00106288
0.00099243
0.000921959
0.000848608
0.000767588
0.000707194
0.000797655
0.00115251
0.000663543
0.0023301
0.00855788
0.0065893
0.00670901
0.00639087
0.00603598
0.00611105
0.00682402
0.00780145
0.00860322
0.00902081
0.00908873
0.00892095
0.00854444
0.00787397
0.00678282
0.00522237
0.00442867
0.0050584
0.0061846
0.00740479
0.00837557
0.0089175
0.00879196
0.00726783
0.0063986
0.00579789
0.00517422
0.00454024
0.00390158
0.00325638
0.00260111
0.00194367
0.00138921
0.00111683
0.00129194
0.00100039
0.000728399
0.000690578
0.000633839
0.002601
0.010228
0.0083342
0.00768433
0.00669753
0.00598958
0.00602553
0.00681636
0.00791952
0.00882646
0.00929734
0.00939196
0.00930015
0.00916116
0.00892361
0.00851766
0.00803217
0.00820485
0.00907707
0.00988706
0.0104823
0.0107921
0.0108028
0.0104915
0.00978224
0.00899133
0.00812604
0.00721461
0.00628644
0.00535872
0.00444155
0.00354642
0.00270432
0.00201958
0.00161281
0.00152389
0.0013659
0.00114324
0.00120701
0.000701946
0.00282145
0.0112651
0.0104388
0.00853688
0.0067941
0.00587394
0.00603931
0.00704875
0.00833936
0.00934564
0.00985035
0.0099998
0.0100931
0.0102464
0.0103425
0.0104046
0.0105702
0.0110899
0.0117395
0.0121301
0.0122245
0.0120572
0.011673
0.0111121
0.0103839
0.00954704
0.00862773
0.00764851
0.00666227
0.00569115
0.00476116
0.00390021
0.00313001
0.00252369
0.00215008
0.00191593
0.00167698
0.00141151
0.00149216
0.000774924
0.00285864
0.00938723
0.00870862
0.00700256
0.00567722
0.0053575
0.00612332
0.00758775
0.00911493
0.0101666
0.0106848
0.0109583
0.0112505
0.0113336
0.011443
0.0116604
0.0120053
0.0124299
0.0127308
0.012748
0.0124683
0.0119507
0.0112508
0.010434
0.00957508
0.00870681
0.00782294
0.00692307
0.00603132
0.00517699
0.00439364
0.00371135
0.00314847
0.00272172
0.00243063
0.00211321
0.00169327
0.00140224
0.00172661
0.000828806
0.00278395
0.00325547
0.00335119
0.00329334
0.00360794
0.00480613
0.00672543
0.00875753
0.0103346
0.0111588
0.0116533
0.0116187
0.0114329
0.0113364
0.0114161
0.011638
0.0119044
0.0120706
0.0120067
0.0116634
0.0110735
0.0102952
0.00942147
0.00853322
0.00768128
0.00687779
0.00610753
0.00535973
0.00464147
0.00396929
0.0033601
0.00282362
0.00236355
0.00199673
0.00174528
0.0015849
0.00149468
0.00146457
0.00144802
0.00114197
0.000739814
0.00187245
0.00462333
0.00752088
0.00974392
0.0110356
0.0117067
0.0115276
0.0111343
0.0107524
0.0105286
0.0104765
0.0105355
0.0106208
0.0106358
0.0104899
0.0101488
0.00964294
0.00903887
0.00840341
0.00778798
0.00722027
0.00670596
0.00623572
0.00579661
0.00537952
0.00497756
0.00458089
0.0041754
0.00374926
0.00330665
0.00287769
0.00250571
0.00221858
0.00202261
0.00192553
0.00195279
0.00149088
0.00191642
0.00817839
0.010808
0.0117576
0.0119289
0.0115297
0.0108178
0.0101113
0.00958812
0.00929182
0.00916083
0.00912586
0.00913268
0.00914046
0.00911203
0.00901749
0.00884772
0.00861704
0.00835111
0.0080751
0.00780764
0.00755853
0.00733123
0.00712594
0.00694105
0.00677246
0.00661099
0.00643938
0.00623085
0.0059514
0.00556842
0.00506749
0.00447443
0.00386414
0.00332485
0.00297299
0.00351913
0.00175675
0.00197062
0.00213826
0.00231336
0.00262613
0.00260218
0.00253179
0.00243335
0.00231667
0.00219881
0.00211159
0.00206152
0.00203772
0.00203065
0.00203322
0.00204002
0.00204652
0.00204879
0.00204432
0.00203293
0.00201652
0.00199786
0.00197938
0.00196265
0.00194837
0.00193661
0.00192693
0.00191855
0.00191028
0.00190037
0.00188648
0.00186576
0.0018354
0.00179356
0.00174043
0.00167853
0.00161094
0.0015388
0.00147966
0.00154663
0.00150317
)
;

boundaryField
{
    floor
    {
        type            compressible::alphatWallFunction;
        Prt             0.85;
        value           nonuniform List<scalar> 
29
(
0.00016
9.61659e-05
0.000120843
0.000136375
0.00014862
0.000150218
0.00014631
0.000136358
0.000125876
0.000116582
0.000108603
0.000101759
9.58581e-05
9.06988e-05
8.61781e-05
8.20434e-05
7.80055e-05
7.37014e-05
6.73369e-05
6.1908e-05
6.19073e-05
7.41544e-05
8.26537e-05
9.41487e-05
0.000159998
9.61648e-05
0.000128924
0.000143967
0.000185246
)
;
    }
    ceiling
    {
        type            compressible::alphatWallFunction;
        Prt             0.85;
        value           nonuniform List<scalar> 
43
(
0.000273616
0.000295397
0.000317953
0.000357827
0.000354817
0.000345902
0.000333378
0.000318459
0.000303306
0.000292037
0.000285546
0.000282456
0.000281539
0.000281875
0.000282761
0.000283606
0.000283902
0.00028332
0.000281838
0.000279701
0.000277269
0.000274858
0.000272673
0.000270806
0.000269266
0.000267998
0.0002669
0.000265814
0.000264513
0.000262689
0.000259966
0.000255972
0.000250457
0.000243437
0.000235229
0.00022623
0.000216583
0.000208639
0.000217651
0.000211828
0.000377749
0.000436554
0.000266412
)
;
    }
    sWall
    {
        type            compressible::alphatWallFunction;
        Prt             0.85;
        value           uniform 0.000272841;
    }
    nWall
    {
        type            compressible::alphatWallFunction;
        Prt             0.85;
        value           nonuniform List<scalar> 6(8.94164e-05 9.94805e-05 0.000110132 0.000209775 0.000245217 0.000211471);
    }
    sideWalls
    {
        type            empty;
    }
    glass1
    {
        type            compressible::alphatWallFunction;
        Prt             0.85;
        value           nonuniform List<scalar> 9(0.00017468 0.000217001 0.00025139 0.000283792 0.000316643 0.000351017 0.000378734 0.000383447 0.000374202);
    }
    glass2
    {
        type            compressible::alphatWallFunction;
        Prt             0.85;
        value           nonuniform List<scalar> 2(0.000117621 0.000161788);
    }
    sun
    {
        type            compressible::alphatWallFunction;
        Prt             0.85;
        value           nonuniform List<scalar> 
14
(
0.000177274
0.000197793
0.000207601
0.000220283
0.000233551
0.00024673
0.000257072
0.000262873
0.000261473
0.000248109
0.000233392
0.000216317
0.000197528
0.000179572
)
;
    }
    heatsource1
    {
        type            compressible::alphatWallFunction;
        Prt             0.85;
        value           nonuniform List<scalar> 3(0.000103476 9.79254e-05 8.95303e-05);
    }
    heatsource2
    {
        type            compressible::alphatWallFunction;
        Prt             0.85;
        value           nonuniform List<scalar> 4(0.000180861 0.0001538 0.000153798 0.000172209);
    }
    Table_master
    {
        type            compressible::alphatWallFunction;
        Prt             0.85;
        value           nonuniform List<scalar> 9(0.000182954 0.000157974 0.000137828 0.000121779 0.000108966 9.86718e-05 9.03662e-05 8.39765e-05 7.96516e-05);
    }
    Table_slave
    {
        type            compressible::alphatWallFunction;
        Prt             0.85;
        value           nonuniform List<scalar> 9(0.000204806 0.000187088 0.000173054 0.000161574 0.000151272 0.000141379 0.000131401 0.000120919 0.000109215);
    }
    inlet
    {
        type            fixedValue;
        value           uniform 1.94e-05;
    }
    outlet
    {
        type            zeroGradient;
    }
}


// ************************************************************************* //
