/*--------------------------------*- C++ -*----------------------------------*\
  =========                 |
  \\      /  F ield         | OpenFOAM: The Open Source CFD Toolbox
   \\    /   O peration     | Website:  https://openfoam.org
    \\  /    A nd           | Version:  6
     \\/     M anipulation  |
\*---------------------------------------------------------------------------*/
FoamFile
{
    version     2.0;
    format      ascii;
    class       volScalarField;
    location    "900";
    object      epsilon;
}
// * * * * * * * * * * * * * * * * * * * * * * * * * * * * * * * * * * * * * //

dimensions      [0 2 -3 0 0 0 0];

internalField   nonuniform List<scalar> 
459
(
0.000447109
0.000583485
0.000617009
0.000710501
0.000805095
0.00090096
0.00100213
0.00110776
0.00118638
0.00122023
0.00119457
0.00110494
0.000960904
0.000788598
0.000624526
3.79733e-05
6.95432e-05
9.90035e-05
9.70707e-05
8.7305e-05
7.55325e-05
6.23717e-05
5.09516e-05
4.18803e-05
3.47895e-05
2.92209e-05
2.48011e-05
2.12644e-05
1.83905e-05
1.5981e-05
1.38629e-05
1.18647e-05
1.05352e-05
7.93867e-06
0.00113011
0.00162023
0.000552755
0.000536754
0.000563032
0.000605213
0.000666621
0.000747715
0.000824816
0.000874226
0.000876594
0.00082542
0.00072735
0.0006058
0.000521949
0.000663521
0.000134809
4.79894e-05
0.000118391
0.000123708
0.000111523
9.43319e-05
7.8542e-05
7.02097e-05
5.68027e-05
4.50325e-05
3.57175e-05
2.85348e-05
2.30177e-05
1.8781e-05
1.55367e-05
1.31548e-05
1.17154e-05
1.10878e-05
2.4855e-05
1.7552e-05
0.0020578
0.00395728
0.000689277
0.000514798
0.000539952
0.000606834
0.000705017
0.000827825
0.000941083
0.00101165
0.00102149
0.000970782
0.000869736
0.000741002
0.000628557
0.000568261
0.000654929
0.000380909
0.000268464
0.000201216
0.000154686
0.000121316
0.000101469
0.000183101
0.000125976
8.98281e-05
6.63053e-05
5.05035e-05
3.9559e-05
3.17816e-05
2.61679e-05
2.21366e-05
1.67826e-05
1.39365e-05
4.39763e-05
2.70211e-05
0.00332732
0.00819532
0.00110319
0.000529048
0.000534313
0.000630646
0.000784236
0.000972205
0.0011203
0.00119574
0.00119441
0.00112771
0.00100723
0.000854802
0.000715407
0.000614514
0.000586796
0.00112166
0.000621074
0.000372166
0.000248913
0.000178991
0.000135917
0.000115825
0.000262981
0.000198123
0.000158808
0.000132564
0.000112699
9.64151e-05
8.23516e-05
6.91755e-05
5.57887e-05
3.27986e-05
2.12583e-05
6.81666e-05
3.63526e-05
0.00507271
0.0145715
0.00220134
0.000653525
0.000567694
0.000697318
0.000974896
0.00125203
0.00140774
0.00145593
0.00141998
0.00131792
0.00116167
0.000971661
0.000778374
0.000608109
0.000480301
0.000419503
0.000337494
0.000264157
0.000205805
0.000161431
0.000128716
0.000107295
0.000103283
9.55933e-05
8.79281e-05
8.04759e-05
7.28341e-05
6.49484e-05
5.72211e-05
4.99546e-05
4.32967e-05
3.42822e-05
2.59738e-05
5.06913e-05
4.00497e-05
6.80063e-05
0.000121031
0.000171136
0.00749613
0.0215948
0.00495428
0.00131535
0.000907108
0.00105945
0.00156336
0.00180805
0.0018713
0.00183595
0.00173853
0.00158357
0.00137251
0.00112224
0.000865253
0.000636838
0.000464312
0.00035546
0.000284627
0.000229659
0.000183771
0.0001473
0.000120263
0.000102466
9.37464e-05
8.95901e-05
8.67681e-05
8.35345e-05
7.8867e-05
7.19463e-05
6.28421e-05
5.34562e-05
4.48793e-05
3.71854e-05
3.20101e-05
4.01343e-05
4.15749e-05
5.19492e-05
0.000222874
0.000194255
0.0102788
0.0257868
0.0101292
0.00427382
0.00298433
0.00294323
0.00294481
0.00279564
0.0025953
0.0023928
0.00218322
0.00193868
0.00164168
0.00130636
0.000971169
0.000679881
0.000467174
0.000334994
0.000255773
0.000201955
0.00016096
0.000130661
0.000110291
9.88309e-05
9.48161e-05
9.52223e-05
9.71502e-05
9.91091e-05
0.000100062
9.851e-05
9.14321e-05
8.08489e-05
7.03415e-05
6.13185e-05
5.75757e-05
6.34681e-05
7.98686e-05
0.000126722
0.000293881
0.000286603
0.0108854
0.0278955
0.015627
0.010766
0.00818384
0.00636405
0.00502491
0.00411905
0.00352344
0.00310816
0.00275725
0.00238485
0.00195452
0.00149248
0.00105161
0.000682707
0.000433649
0.000290587
0.000210186
0.000164461
0.000133661
0.000113557
0.0001022
9.79606e-05
9.92225e-05
0.000104221
0.000111696
0.00012134
0.000133288
0.000147471
0.000162908
0.000172349
0.000180997
0.000199457
0.000238207
0.000354769
0.000650277
0.00122853
0.00364509
0.00109278
0.0100401
0.0167294
0.0133188
0.0101171
0.00781886
0.00629228
0.00531539
0.00470289
0.00428335
0.00390244
0.00345239
0.00288144
0.00220836
0.00154624
0.000976408
0.000530461
0.000316852
0.000215559
0.000162029
0.000130689
0.000111296
0.000100241
9.55543e-05
9.58488e-05
0.000100118
0.000107748
0.0001187
0.000133648
0.000153896
0.00018131
0.00021837
0.000268816
0.000338416
0.000443651
0.000599173
0.000812003
0.00105879
0.00127832
0.00144786
0.000911547
0.00362554
0.0055851
0.00653931
0.00667798
0.00652397
0.00616055
0.00554688
0.00470393
0.00371338
0.00261985
0.00152648
0.000871821
0.00049369
0.000288515
0.000191469
0.000143689
0.00011804
0.000103174
9.4369e-05
8.9754e-05
8.80838e-05
8.86886e-05
9.13309e-05
9.61955e-05
0.00010384
0.000115193
0.000131666
0.000155303
0.000189053
0.000237159
0.000304602
0.000398157
0.000521549
0.000664715
0.000791962
0.000853708
0.000817701
0.000525971
0.0027447
0.00637305
0.00709826
0.0059363
0.00530609
0.00459941
0.00367238
0.00271508
0.00188179
0.00123099
0.000737306
0.000438533
0.000276132
0.000195007
0.000157612
0.000140486
0.000132397
0.00012819
0.00012554
0.000123473
0.000121745
0.000120419
0.000119966
0.00012114
0.000124742
0.000131618
0.00014299
0.000160674
0.000187332
0.000226338
0.000282142
0.000359285
0.000458409
0.000571764
0.000657544
0.000750524
0.000757161
0.00055803
0.00197352
0.00234822
0.00263985
0.00330302
0.00299608
0.00265497
0.00244632
0.00216427
0.00179623
0.00139953
0.00102837
0.000719002
0.000485478
0.000331355
0.000239675
0.000185999
0.000153151
0.000131897
0.000117634
0.000108004
0.000101685
9.79358e-05
9.63249e-05
9.68817e-05
9.98483e-05
0.000105343
0.000113491
0.000124853
0.000140305
0.000161068
0.000187737
0.000221667
0.000264921
0.000320099
0.000389478
0.000483817
0.000518119
0.000479526
0.000397873
0.000322294
)
;

boundaryField
{
    floor
    {
        Cmu             0.09;
        kappa           0.41;
        E               9.8;
        type            epsilonWallFunction;
        value           nonuniform List<scalar> 
29
(
0.000624526
3.79733e-05
6.95432e-05
9.90035e-05
9.70707e-05
8.7305e-05
7.55325e-05
6.23717e-05
5.09516e-05
4.18803e-05
3.47895e-05
2.92209e-05
2.48011e-05
2.12644e-05
1.83905e-05
1.5981e-05
1.38629e-05
1.18647e-05
1.05352e-05
7.93867e-06
7.93867e-06
1.7552e-05
2.70211e-05
3.63526e-05
0.000624526
3.79733e-05
4.79894e-05
0.000380909
0.00112166
)
;
    }
    ceiling
    {
        Cmu             0.09;
        kappa           0.41;
        E               9.8;
        type            epsilonWallFunction;
        value           nonuniform List<scalar> 
43
(
0.00197352
0.00234822
0.00263985
0.00330302
0.00299608
0.00265497
0.00244632
0.00216427
0.00179623
0.00139953
0.00102837
0.000719002
0.000485478
0.000331355
0.000239675
0.000185999
0.000153151
0.000131897
0.000117634
0.000108004
0.000101685
9.79358e-05
9.63249e-05
9.68817e-05
9.98483e-05
0.000105343
0.000113491
0.000124853
0.000140305
0.000161068
0.000187737
0.000221667
0.000264921
0.000320099
0.000389478
0.000483817
0.000518119
0.000479526
0.000397873
0.000322294
0.0100401
0.0167294
0.0027447
)
;
    }
    sWall
    {
        Cmu             0.09;
        kappa           0.41;
        E               9.8;
        type            epsilonWallFunction;
        value           uniform 0.00197352;
    }
    nWall
    {
        Cmu             0.09;
        kappa           0.41;
        E               9.8;
        type            epsilonWallFunction;
        value           nonuniform List<scalar> 6(0.000171136 0.000194255 0.000286603 0.000525971 0.00055803 0.000322294);
    }
    sideWalls
    {
        type            empty;
    }
    glass1
    {
        Cmu             0.09;
        kappa           0.41;
        E               9.8;
        type            epsilonWallFunction;
        value           nonuniform List<scalar> 9(0.000447109 0.00113011 0.0020578 0.00332732 0.00507271 0.00749613 0.0102788 0.0108854 0.0100401);
    }
    glass2
    {
        Cmu             0.09;
        kappa           0.41;
        E               9.8;
        type            epsilonWallFunction;
        value           nonuniform List<scalar> 2(0.00109278 0.000911547);
    }
    sun
    {
        Cmu             0.09;
        kappa           0.41;
        E               9.8;
        type            epsilonWallFunction;
        value           nonuniform List<scalar> 
14
(
0.000447109
0.000583485
0.000617009
0.000710501
0.000805095
0.00090096
0.00100213
0.00110776
0.00118638
0.00122023
0.00119457
0.00110494
0.000960904
0.000788598
)
;
    }
    heatsource1
    {
        Cmu             0.09;
        kappa           0.41;
        E               9.8;
        type            epsilonWallFunction;
        value           nonuniform List<scalar> 3(6.80063e-05 0.000121031 0.000171136);
    }
    heatsource2
    {
        Cmu             0.09;
        kappa           0.41;
        E               9.8;
        type            epsilonWallFunction;
        value           nonuniform List<scalar> 4(0.000663521 0.000134809 0.000134809 0.000654929);
    }
    Table_master
    {
        Cmu             0.09;
        kappa           0.41;
        E               9.8;
        type            epsilonWallFunction;
        value           nonuniform List<scalar> 9(0.000183101 0.000125976 8.98281e-05 6.63053e-05 5.05035e-05 3.9559e-05 3.17816e-05 2.61679e-05 2.21366e-05);
    }
    Table_slave
    {
        Cmu             0.09;
        kappa           0.41;
        E               9.8;
        type            epsilonWallFunction;
        value           nonuniform List<scalar> 9(0.000262981 0.000198123 0.000158808 0.000132564 0.000112699 9.64151e-05 8.23516e-05 6.91755e-05 5.57887e-05);
    }
    inlet
    {
        type            turbulentMixingLengthDissipationRateInlet;
        mixingLength    0.01;
        phi             phi;
        k               k;
        value           uniform 0.000101881;
    }
    outlet
    {
        type            zeroGradient;
    }
}


// ************************************************************************* //
