/*--------------------------------*- C++ -*----------------------------------*\
  =========                 |
  \\      /  F ield         | OpenFOAM: The Open Source CFD Toolbox
   \\    /   O peration     | Website:  https://openfoam.org
    \\  /    A nd           | Version:  6
     \\/     M anipulation  |
\*---------------------------------------------------------------------------*/
FoamFile
{
    version     2.0;
    format      ascii;
    class       surfaceScalarField;
    location    "430";
    object      phi;
}
// * * * * * * * * * * * * * * * * * * * * * * * * * * * * * * * * * * * * * //

dimensions      [1 0 -1 0 0 0 0];

internalField   nonuniform List<scalar> 
852
(
-0.00160383
0.00161566
-0.0023671
0.000763265
-0.00286124
0.000494132
-0.00312315
0.000261906
-0.00312842
5.26124e-06
-0.00284011
-0.000288318
-0.00224202
-0.000598094
-0.0013755
-0.000866531
-0.000368636
-0.00100687
0.000518299
-0.000886951
0.00112515
-0.000606868
0.00145051
-0.000325373
0.00146355
-1.30505e-05
0.00108405
0.000379482
0.0010825
-0.000100758
9.83146e-05
-0.000119416
1.86246e-05
0.000228438
-0.000347884
0.000664214
-0.000435805
0.00103824
-0.000374051
0.00131086
-0.000272654
0.00146103
-0.000150203
0.00152663
-6.56333e-05
0.00155973
-3.31273e-05
0.00157867
-1.89746e-05
0.00158725
-8.60517e-06
0.00158593
1.28595e-06
0.0015711
1.47892e-05
0.00153015
4.09184e-05
0.00143294
9.71794e-05
0.00122667
0.00020623
0.000863536
0.000363101
0.000272085
0.000591413
0.000268781
-0.00121566
0.00286488
-0.00188073
0.00142833
-0.00235783
0.000971222
-0.00262298
0.000527054
-0.00264437
2.66467e-05
-0.00239192
-0.000540777
-0.00186856
-0.00112145
-0.0011504
-0.0015847
-0.00037924
-0.00177804
0.000316902
-0.00158311
0.000853264
-0.00114325
0.0011914
-0.000663529
0.00135125
-0.00017291
0.00141612
0.000314594
0.00171598
0.000782621
0.000880249
0.000835665
0.000880181
-6.55786e-05
0.000158312
0.000384019
-0.000431003
0.00072359
-0.000687481
0.00101517
-0.000727413
0.0012595
-0.000618403
0.00143328
-0.000446469
0.00147263
-0.000189577
0.00148117
-7.42046e-05
0.00148969
-4.16743e-05
0.0014968
-2.61216e-05
0.00150164
-1.34747e-05
0.00150417
-1.27998e-06
0.00150328
1.56472e-05
0.00149448
4.96871e-05
0.00144705
0.000144579
0.00125837
0.000394872
0.000938526
0.000682907
0.000535849
0.000994052
0.000795592
-0.000902776
0.00382112
-0.00143641
0.00196197
-0.00185417
0.00138897
-0.00209529
0.000768167
-0.00212399
5.53456e-05
-0.00189305
-0.000771724
-0.00142572
-0.00158879
-0.00082049
-0.00218993
-0.00020979
-0.00238875
0.000328721
-0.00212164
0.000766435
-0.00158098
0.00106912
-0.000966229
0.00125505
-0.000358865
0.00135869
0.000210934
0.0013986
0.000742698
0.00106308
0.00117117
0.00194325
0.000439425
-0.000289774
0.000881138
-0.000872741
0.00117107
-0.000977435
0.00133729
-0.000893658
0.00145948
-0.000740621
0.00160169
-0.00058871
0.00141224
0.00133816
0.00129661
0.00127062
0.00125727
0.00125611
0.00127188
0.00132169
0.00146639
0.00125357
0.000607658
0.0010174
0.000919032
0.000686543
0.00132488
0.00146775
-0.000660676
0.0045535
-0.00103823
0.00233952
-0.00132944
0.00168018
-0.00150585
0.000944572
-0.00150247
5.19612e-05
-0.00125762
-0.00101658
-0.000840209
-0.0020062
-0.000359418
-0.00267073
8.40563e-05
-0.00283224
0.000472449
-0.00251005
0.000791424
-0.00189998
0.0010204
-0.00119523
0.00117525
-0.000513732
0.0012917
9.44589e-05
0.00141991
0.000614468
0.00161454
0.000976522
0.00242011
0.00113765
0.00204661
0.000364906
0.00207486
-0.000318043
0.00184969
-0.000647591
0.00167829
-0.000806053
0.00157011
-0.000785497
0.00149621
-0.000666751
0.00138783
-0.000480366
0.00158625
-0.0001986
0.00167326
-8.72006e-05
0.00171993
-4.68586e-05
0.00174268
-2.2941e-05
0.00173895
3.54781e-06
0.00169943
3.93295e-05
0.00160748
9.17527e-05
0.00143404
0.00017325
0.00112536
0.00030849
0.0011098
0.000623176
0.00103627
0.000992524
0.000918535
0.00144258
0.00236728
-0.000478932
0.00512076
-0.000702823
0.0025634
-0.00078169
0.00175904
-0.000832907
0.000995784
-0.000714771
-6.61811e-05
-0.000423924
-0.00130743
-7.87563e-05
-0.00235137
0.0002322
-0.00298168
0.000483411
-0.00308346
0.000695015
-0.00272167
0.000859838
-0.00206483
0.000971946
-0.00130736
0.00105528
-0.00059709
0.00115447
-4.75178e-06
0.00132148
0.00044744
0.00158384
0.000714137
0.0019663
0.000755174
0.00205098
0.000280213
0.00192863
-0.000195715
0.00175581
-0.000474798
0.00155403
-0.000604291
0.00137398
-0.000605483
0.00122626
-0.000519056
0.00112056
-0.000374708
0.00112453
-0.000202604
0.00113427
-9.69763e-05
0.00113891
-5.15331e-05
0.00114498
-2.90558e-05
0.00115221
-3.72353e-06
0.00115293
3.85764e-05
0.00113581
0.000108834
0.00109131
0.000217702
0.00102936
0.0003704
0.00104685
0.00060565
0.00117861
0.000860723
0.0016179
0.00100324
0.0026279
0.00135724
0.00170008
0.00092757
0.00104482
0.000655014
0.00107486
-0.000398475
0.00562249
-0.000469483
0.0026344
-0.000229047
0.0015186
2.96039e-06
0.00076377
0.000303486
-0.000366712
0.000603531
-0.00160747
0.000818978
-0.00256682
0.000924859
-0.00308757
0.000959675
-0.00311829
0.000949574
-0.00271159
0.000909414
-0.0020247
0.000854914
-0.00125289
0.00081875
-0.000560956
0.000845035
-3.10625e-05
0.000963411
0.000329042
0.00116614
0.000511382
0.001429
0.000492294
0.00151374
0.000195456
0.00142902
-0.000111024
0.00127179
-0.000317587
0.00108011
-0.000412643
0.000890414
-0.000415823
0.000726192
-0.000354872
0.000606924
-0.000255479
0.000551458
-0.000147179
0.000534955
-8.05156e-05
0.000539431
-5.60532e-05
0.000561152
-5.08206e-05
0.000600776
-4.33918e-05
0.000653693
-1.43852e-05
0.000710954
5.15275e-05
0.000768666
0.000159945
0.000833683
0.000305339
0.000950274
0.000489015
0.00114068
0.000670279
0.00137701
0.000766876
0.00168114
0.00105307
0.00150738
0.00110128
0.000917278
0.00124508
0.00202337
-0.000368484
0.00610812
-0.000154416
0.00242033
0.000530187
0.000833986
0.00108128
0.000212668
0.00152163
-0.000807066
0.00177246
-0.0018583
0.00181864
-0.00261299
0.0016892
-0.00295814
0.00144704
-0.00287613
0.00115302
-0.0024176
0.000857109
-0.00172883
0.000599551
-0.000995375
0.000425419
-0.000386859
0.000372929
2.13959e-05
0.000443619
0.000258325
0.000596677
0.0003583
0.000768107
0.000320838
0.000821056
0.00014248
0.000754665
-4.46639e-05
0.000613796
-0.000176752
0.000437347
-0.000236232
0.000257909
-0.000236426
0.000101403
-0.000198409
-1.1441e-05
-0.00014268
-6.81602e-05
-9.05068e-05
-8.15857e-05
-6.71378e-05
-6.78243e-05
-6.98631e-05
-3.34001e-05
-8.52939e-05
2.28969e-05
-9.97383e-05
0.000107834
-9.93723e-05
0.000225291
-6.59786e-05
0.000365297
1.98899e-05
0.000519106
0.000151481
0.000701445
0.00030663
0.00090838
0.0004633
0.00109036
0.000584848
0.00132569
0.000817707
0.00147551
0.00095142
0.00131794
0.0014026
0.0033739
0.00127834
0.0049619
0.00177942
0.00191924
0.00223276
0.000380642
0.00281694
-0.00037152
0.00317371
-0.00116384
0.00319587
-0.00188045
0.00291754
-0.00233465
0.00241698
-0.00245758
0.00179882
-0.00225799
0.00115605
-0.00177486
0.000579133
-0.00115196
0.000128375
-0.000544662
-0.000132744
-0.00012578
-0.000213228
0.000101846
-0.000167395
0.000212461
-6.05847e-05
0.000251459
4.10234e-05
0.000219197
6.10941e-05
0.000122373
-5.16436e-06
2.15549e-05
-0.000131842
-5.01172e-05
-0.000284999
-8.31211e-05
-0.000434662
-8.68113e-05
-0.000558909
-7.42109e-05
-0.000643733
-5.79065e-05
-0.000685146
-4.91456e-05
-0.00069487
-5.74663e-05
-0.000684265
-8.05205e-05
-0.000660076
-0.000109535
-0.000623551
-0.000136317
-0.000569148
-0.000153829
-0.000479941
-0.000155237
-0.000330559
-0.000129544
-0.000127373
-5.17547e-05
0.000103533
7.56743e-05
0.000330389
0.000236396
0.000503233
0.000411957
0.000697772
0.000623124
0.000863512
0.000785637
0.00047421
0.00179186
0.00397355
0.00509362
0.00699927
0.00649732
0.000882581
0.00612449
1.32173e-06
0.00561192
-0.000651259
0.00484135
-0.00110987
0.00385567
-0.00134896
0.00276034
-0.00136226
0.00167876
-0.00117644
0.000683572
-0.000779726
-9.77414e-05
-0.000370703
-0.000581901
-6.05512e-05
-0.000795886
8.8161e-05
-0.000849173
0.000155094
-0.000822103
0.000185352
-0.000764775
0.000194091
-0.000721613
0.000175992
-0.000730792
0.000131507
-0.000791796
8.251e-05
-0.000887335
4.53715e-05
-0.000995595
2.5086e-05
-0.00109778
1.53244e-05
-0.0011808
8.74583e-06
-0.00123899
2.30273e-07
-0.00127426
-1.39292e-05
-0.00129598
-3.58003e-05
-0.00131272
-6.3838e-05
-0.00133416
-8.81516e-05
-0.00136992
-0.000100603
-0.00143044
-9.33618e-05
-0.0015251
-6.06309e-05
-0.00166204
7.35249e-06
-0.00184192
0.000128076
-0.00208123
0.000314938
-0.00243288
0.000587998
-0.00299048
0.000969509
-0.00385047
0.00148307
-0.00506321
0.00199833
-0.00519641
0.00192501
-0.00108898
0.00607012
0.00129471
0.00543496
0.000636484
0.00466044
0.000123261
0.00367019
-0.000119643
0.00251971
-0.000198505
0.00133164
-0.000174236
0.000205719
-5.05657e-05
-0.000677283
0.000103203
-0.00119382
0.000145778
-0.00141893
0.000164499
-0.00149225
0.00016144
-0.00149632
0.000159109
-0.00147224
0.000161227
-0.00144177
0.000163577
-0.00142393
0.000158094
-0.00143344
0.000140963
-0.0014689
0.000117921
-0.00151948
9.58972e-05
-0.00157263
7.81744e-05
-0.0016209
6.3535e-05
-0.00166199
4.97847e-05
-0.00169718
3.53608e-05
-0.00172984
1.86716e-05
-0.00176613
4.37223e-07
-0.00181093
-1.90994e-05
-0.00186607
-3.30637e-05
-0.00193148
-3.52475e-05
-0.00200663
-1.82572e-05
-0.00209073
2.34164e-05
-0.00218119
9.77614e-05
-0.00226793
0.000214769
-0.0023509
0.000397865
-0.00242179
0.000658836
-0.00246349
0.00101117
-0.00244027
0.00145981
-0.00221171
0.00176972
-0.000936099
0.000649358
-0.00199372
-0.000312796
0.00159811
-0.000412284
0.00073591
-0.000675081
0.000385995
-0.000982182
0.000187403
-0.00131369
0.000132947
-0.00163823
0.000150243
-0.00187661
0.00018775
-0.00199201
0.000218547
-0.0020506
0.000204306
-0.00206048
0.000174325
-0.00204388
0.000144789
-0.00201137
0.000126544
-0.00196928
0.000119074
-0.00192326
0.000117501
-0.00188076
0.00011554
-0.00184889
0.00010904
-0.00182942
9.83844e-05
-0.00181951
8.59308e-05
-0.00181499
7.35966e-05
-0.00181344
6.1924e-05
-0.00181472
5.10068e-05
-0.00182041
4.09861e-05
-0.00183377
3.19762e-05
-0.00185781
2.44202e-05
-0.00189863
2.1671e-05
-0.00195493
2.31831e-05
-0.0020209
3.06666e-05
-0.00208497
4.57591e-05
-0.00213502
7.34127e-05
-0.00215732
0.000120011
-0.0021307
0.000188099
-0.00202134
0.000288456
-0.00179316
0.000430607
-0.00138321
0.000601173
-0.000632298
0.000708847
0.000539383
0.000597998
0.00131376
-0.000125066
-0.000647595
-0.00533331
-0.00637535
-0.00479315
-0.00407383
-0.00370685
-0.00354099
-0.00343177
-0.00330722
-0.00314709
-0.00295796
-0.00278445
-0.00264179
-0.00252912
-0.00243493
-0.0023483
-0.00226328
-0.00218024
-0.00210373
-0.0020379
-0.00198454
-0.0019435
-0.0019141
-0.00189556
-0.00188699
-0.00188738
-0.00189536
-0.00190619
-0.00191575
-0.0019182
-0.00190609
-0.001867
-0.00178205
-0.00162979
-0.00137785
-0.000984332
-0.000420674
0.00025023
0.000809631
0.000646114
)
;

boundaryField
{
    floor
    {
        type            calculated;
        value           nonuniform List<scalar> 
29
(
0
0
0
0
0
0
0
0
0
0
0
0
0
0
0
0
0
0
0
0
3.26251e-06
8.9977e-06
1.43401e-05
1.89711e-05
1.53186e-06
2.40533e-06
5.54456e-06
8.6314e-06
8.57527e-06
)
;
    }
    ceiling
    {
        type            calculated;
        value           nonuniform List<scalar> 
43
(
1.78228e-05
1.67495e-05
1.58396e-05
1.65203e-05
1.895e-05
2.14822e-05
2.36621e-05
2.56314e-05
2.75573e-05
2.93516e-05
3.07426e-05
3.16015e-05
3.20628e-05
3.2287e-05
3.23836e-05
3.24203e-05
3.24405e-05
3.24654e-05
3.24931e-05
3.2509e-05
3.25e-05
3.24632e-05
3.24069e-05
3.23489e-05
3.23157e-05
3.2339e-05
3.24484e-05
3.26808e-05
3.30616e-05
3.3599e-05
3.42681e-05
3.50161e-05
3.57788e-05
3.64741e-05
3.70365e-05
3.74654e-05
3.78951e-05
3.8548e-05
3.84009e-05
3.9532e-05
1.60287e-05
1.35804e-05
9.34824e-06
)
;
    }
    sWall
    {
        type            calculated;
        value           uniform -4.25356e-05;
    }
    nWall
    {
        type            calculated;
        value           nonuniform List<scalar> 6(-3.02899e-05 -3.12668e-05 -3.26328e-05 -3.14058e-05 -3.24175e-05 -4.10645e-05);
    }
    sideWalls
    {
        type            empty;
        value           nonuniform 0();
    }
    glass1
    {
        type            calculated;
        value           nonuniform List<scalar> 9(-1.18347e-05 -3.35754e-05 -5.34618e-05 -7.17141e-05 -8.83321e-05 -0.000103266 -0.000117152 -0.000132124 -0.00014775);
    }
    glass2
    {
        type            calculated;
        value           nonuniform List<scalar> 2(-0.000125486 -0.000133919);
    }
    sun
    {
        type            calculated;
        value           uniform 0;
    }
    heatsource1
    {
        type            calculated;
        value           nonuniform List<scalar> 3(2.06118e-07 2.06515e-07 2.06775e-07);
    }
    heatsource2
    {
        type            calculated;
        value           nonuniform List<scalar> 4(5.17274e-08 5.18424e-08 0 0);
    }
    Table_master
    {
        type            calculated;
        value           nonuniform List<scalar> 9(-1.54936e-07 -1.55054e-07 -1.55085e-07 -1.55102e-07 -1.55112e-07 -1.55116e-07 -1.55109e-07 -1.55091e-07 -1.55041e-07);
    }
    Table_slave
    {
        type            calculated;
        value           nonuniform List<scalar> 9(1.54797e-07 1.54817e-07 1.54792e-07 1.54774e-07 1.54766e-07 1.5476e-07 1.54769e-07 1.54798e-07 1.54859e-07);
    }
    inlet
    {
        type            calculated;
        value           uniform -0.00648223;
    }
    outlet
    {
        type            calculated;
        value           nonuniform List<scalar> 2(0.00535795 0.00102522);
    }
}


// ************************************************************************* //
