/*--------------------------------*- C++ -*----------------------------------*\
  =========                 |
  \\      /  F ield         | OpenFOAM: The Open Source CFD Toolbox
   \\    /   O peration     | Website:  https://openfoam.org
    \\  /    A nd           | Version:  6
     \\/     M anipulation  |
\*---------------------------------------------------------------------------*/
FoamFile
{
    version     2.0;
    format      ascii;
    class       volScalarField;
    location    "300";
    object      alphat;
}
// * * * * * * * * * * * * * * * * * * * * * * * * * * * * * * * * * * * * * //

dimensions      [1 -1 -1 0 0 0 0];

internalField   nonuniform List<scalar> 
459
(
0.000818212
0.000850989
0.000835597
0.000862771
0.000886009
0.000905441
0.000921888
0.000936207
0.00094927
0.000962108
0.00097175
0.000976921
0.000977331
0.000974336
0.000968092
0.000715021
0.000680352
0.000652528
0.000634967
0.000622168
0.000607266
0.000585386
0.000562532
0.000540464
0.000519137
0.00049862
0.000478933
0.000460019
0.000441711
0.000423664
0.000405275
0.000385408
0.000372288
0.000342482
0.00126234
0.00192845
0.00159814
0.00186934
0.00199165
0.0021231
0.00225513
0.00237667
0.00247189
0.00251968
0.00253093
0.00247759
0.00232153
0.00201028
0.00150392
0.000989136
0.000916599
0.000842461
0.00150763
0.00197598
0.00225447
0.00236196
0.0022756
0.0018665
0.00164637
0.00147334
0.00133137
0.00121003
0.00110374
0.00100785
0.000916946
0.000826863
0.000749116
0.000682415
0.00081521
0.000449394
0.00167442
0.00295411
0.00171517
0.00262128
0.00281521
0.0029514
0.00305803
0.00313973
0.00320006
0.00323543
0.00324454
0.00320043
0.00306785
0.00280256
0.00236547
0.00177781
0.00107757
0.000960489
0.00255183
0.00308726
0.00318452
0.00312644
0.00267851
0.000730617
0.000645683
0.000581965
0.000533357
0.000495412
0.000465055
0.00044038
0.00042053
0.000406065
0.000464569
0.000545534
0.000925464
0.000528259
0.00210193
0.00454591
0.00168228
0.00294975
0.00329131
0.00341194
0.00348043
0.00352205
0.00355133
0.00357279
0.00358702
0.00357783
0.00352004
0.00337686
0.00308938
0.00257134
0.00178744
0.00108954
0.00280429
0.00302318
0.00323375
0.00326579
0.00317429
0.00272533
0.000720822
0.000685734
0.000675286
0.000671759
0.000665954
0.00065213
0.00063083
0.000607566
0.000578309
0.000554406
0.000565708
0.0010925
0.000591506
0.00253762
0.00665665
0.00209891
0.00281137
0.00350715
0.00364908
0.0036971
0.0037108
0.00371514
0.00372692
0.00374606
0.00377444
0.0037881
0.00375886
0.00365771
0.00346763
0.00320916
0.00290255
0.00269846
0.00278822
0.00303168
0.00308097
0.00305784
0.00296424
0.00267107
0.00265409
0.00267911
0.00268848
0.00265886
0.00257557
0.00239093
0.00208428
0.00170733
0.00130999
0.000982673
0.00104391
0.000761022
0.000754224
0.000896348
0.000997962
0.00298006
0.00890577
0.00364338
0.00243539
0.00333609
0.00367088
0.003789
0.0038209
0.00379589
0.00376291
0.00376997
0.003825
0.00387745
0.00389382
0.00383434
0.00364535
0.0032858
0.00279114
0.00237604
0.00249926
0.00288906
0.00294803
0.00294076
0.00293908
0.00296261
0.00303045
0.00309312
0.00312659
0.00312185
0.0030758
0.00297935
0.00275394
0.0024052
0.00194963
0.00149796
0.00112574
0.000948614
0.000876397
0.001309
0.00104177
0.00342876
0.0107579
0.00684071
0.00342879
0.00261004
0.00287902
0.00333384
0.00368517
0.00389555
0.00374749
0.00375566
0.0038187
0.00387862
0.00391257
0.00388546
0.00372973
0.00337335
0.00279162
0.00218765
0.00229477
0.00285825
0.00292979
0.00290238
0.00289732
0.00293786
0.0030061
0.00307098
0.00311375
0.00313254
0.00313217
0.00311851
0.00302714
0.00275661
0.00234407
0.00192013
0.00150748
0.0012738
0.00124705
0.00135671
0.00116013
0.00354936
0.0109619
0.00877117
0.00672341
0.00482072
0.00366985
0.00330787
0.0034235
0.00372802
0.00377532
0.00377784
0.00379765
0.0038275
0.00384373
0.00381286
0.00368827
0.00340133
0.00284712
0.00207712
0.00213055
0.00288846
0.00298829
0.00292966
0.00289067
0.00289297
0.00291632
0.00294229
0.0029649
0.00299054
0.00303329
0.00310834
0.00320326
0.00312626
0.00277914
0.00248841
0.00239428
0.00263305
0.00337379
0.00449118
0.00184251
0.0034835
0.00424822
0.00475107
0.00491873
0.00474372
0.00434445
0.00397395
0.00374685
0.00366366
0.00363075
0.00364628
0.00368406
0.00371643
0.00371726
0.00366306
0.00352978
0.00327405
0.00276872
0.00196154
0.00197205
0.00293296
0.00308648
0.0029856
0.00289446
0.00283938
0.00279851
0.00275754
0.00271211
0.0026632
0.00261332
0.00256373
0.00251435
0.00246917
0.00244353
0.00248114
0.00256719
0.00261603
0.00254371
0.00237924
0.00169905
0.00254294
0.00421791
0.00456295
0.00449798
0.00432167
0.00415212
0.00402824
0.00393293
0.00385431
0.00377766
0.00368561
0.00356421
0.00340532
0.00320426
0.00293692
0.00246836
0.00169035
0.00179612
0.00293798
0.00318875
0.00304614
0.00291285
0.00281845
0.00273826
0.00266413
0.00259532
0.00253405
0.00248606
0.00246083
0.00246833
0.00249977
0.00254593
0.0026004
0.00262801
0.0025707
0.00240042
0.00212891
0.00137946
0.00269917
0.00481577
0.00504362
0.00486876
0.00466824
0.00445662
0.00424619
0.00404231
0.00380396
0.00352318
0.00322564
0.0029269
0.00263708
0.00236248
0.00209651
0.0017758
0.00128707
0.00153699
0.00249018
0.00267918
0.00256589
0.00245738
0.00238382
0.00233818
0.00232348
0.00234087
0.00238513
0.00244504
0.00250315
0.00258074
0.00267634
0.00278068
0.0028784
0.00295608
0.00296467
0.00300199
0.00269561
0.00139588
0.0023495
0.00247446
0.00258023
0.00273117
0.00258188
0.00237557
0.00220525
0.00205162
0.00190728
0.0017712
0.0016493
0.00154133
0.00144011
0.0013419
0.00124487
0.00114866
0.0010541
0.000961969
0.000851899
0.000776908
0.000804988
0.000814493
0.000818853
0.000828331
0.00084401
0.000865381
0.000892146
0.000924192
0.000961806
0.00100607
0.00105953
0.00112015
0.00118825
0.00126363
0.00134617
0.00145503
0.00149071
0.00145877
0.00136319
0.00126016
)
;

boundaryField
{
    floor
    {
        type            compressible::alphatWallFunction;
        Prt             0.85;
        value           nonuniform List<scalar> 
29
(
0.00013777
0.000101375
9.62805e-05
9.2169e-05
8.9563e-05
8.76581e-05
8.54339e-05
8.21555e-05
7.8715e-05
7.53764e-05
7.21337e-05
6.89984e-05
6.59747e-05
6.3055e-05
6.02144e-05
5.73995e-05
5.45156e-05
5.1381e-05
4.93001e-05
4.45365e-05
4.45359e-05
6.14077e-05
7.35201e-05
8.307e-05
0.000137768
0.000101374
0.000119861
0.000136689
0.000154819
)
;
    }
    ceiling
    {
        type            compressible::alphatWallFunction;
        Prt             0.85;
        value           nonuniform List<scalar> 
43
(
0.000322164
0.000338115
0.000351554
0.000370724
0.000351891
0.000325647
0.000303787
0.00028391
0.000265084
0.000247194
0.00023104
0.000216619
0.000202999
0.00018968
0.000176414
0.000163143
0.000149974
0.000137012
0.000121343
0.000110515
0.000114583
0.000115956
0.000116585
0.000117951
0.000120205
0.000123271
0.000127098
0.000131662
0.000136996
0.000143242
0.000150743
0.000159197
0.000168631
0.000179003
0.000190278
0.000205032
0.000209839
0.000205536
0.000192595
0.00017853
0.000464527
0.000557503
0.000366512
)
;
    }
    sWall
    {
        type            compressible::alphatWallFunction;
        Prt             0.85;
        value           uniform 0.000320942;
    }
    nWall
    {
        type            compressible::alphatWallFunction;
        Prt             0.85;
        value           nonuniform List<scalar> 6(0.000141751 0.000147902 0.000164381 0.000194452 0.000196676 0.000178179);
    }
    sideWalls
    {
        type            empty;
    }
    glass1
    {
        type            compressible::alphatWallFunction;
        Prt             0.85;
        value           nonuniform List<scalar> 9(0.000113026 0.000174306 0.000229144 0.000284609 0.000339995 0.000395293 0.000450549 0.000465408 0.000457588);
    }
    glass2
    {
        type            compressible::alphatWallFunction;
        Prt             0.85;
        value           nonuniform List<scalar> 2(0.000254472 0.0002357);
    }
    sun
    {
        type            compressible::alphatWallFunction;
        Prt             0.85;
        value           nonuniform List<scalar> 
14
(
0.000116397
0.000121094
0.000118882
0.000122783
0.000126108
0.00012888
0.00013122
0.000133254
0.000135107
0.000136924
0.000138288
0.000139018
0.000139076
0.000138652
)
;
    }
    heatsource1
    {
        type            compressible::alphatWallFunction;
        Prt             0.85;
        value           nonuniform List<scalar> 3(0.00010725 0.00012773 0.000142135);
    }
    heatsource2
    {
        type            compressible::alphatWallFunction;
        Prt             0.85;
        value           nonuniform List<scalar> 4(0.00014089 0.000130614 0.000130612 0.000153299);
    }
    Table_master
    {
        type            compressible::alphatWallFunction;
        Prt             0.85;
        value           nonuniform List<scalar> 9(0.000103805 9.12964e-05 8.17804e-05 7.44348e-05 6.86424e-05 6.39682e-05 6.01402e-05 5.7041e-05 5.47706e-05);
    }
    Table_slave
    {
        type            compressible::alphatWallFunction;
        Prt             0.85;
        value           nonuniform List<scalar> 9(0.000102373 9.722e-05 9.56795e-05 9.51589e-05 9.43015e-05 9.22552e-05 8.90916e-05 8.56214e-05 8.12338e-05);
    }
    inlet
    {
        type            fixedValue;
        value           uniform 1.94e-05;
    }
    outlet
    {
        type            zeroGradient;
    }
}


// ************************************************************************* //
