// -*- C++ -*-
// File generated by PyFoam - sorry for the ugliness

FoamFile
{
 version 2.0;
 format ascii;
 class volScalarField;
 location "600";
 object T;
}

dimensions [ 0 0 0 1 0 0 0 ];

internalField nonuniform List<scalar> 459
(
  304.823
  304.355
  304.3
  304.288
  304.287
  304.29
  304.296
  304.302
  304.309
  304.316
  304.323
  304.331
  304.34
  304.351
  304.367
  305.295
  305.223
  305.17
  305.12
  305.086
  305.103
  305.133
  305.166
  305.201
  305.237
  305.274
  305.309
  305.344
  305.381
  305.42
  305.463
  305.512
  305.577
  305.686
  304.637
  304.32
  304.22
  304.206
  304.217
  304.233
  304.249
  304.261
  304.275
  304.288
  304.302
  304.316
  304.33
  304.344
  304.361
  304.372
  304.394
  305.329
  305.254
  305.167
  305.054
  305.017
  305.043
  305.079
  305.128
  305.188
  305.263
  305.338
  305.402
  305.462
  305.518
  305.568
  305.61
  305.646
  305.683
  305.756
  304.343
  304.063
  304.052
  304.13
  304.212
  304.275
  304.316
  304.34
  304.357
  304.367
  304.371
  304.371
  304.37
  304.37
  304.374
  304.382
  304.398
  305.349
  305.293
  305.103
  304.981
  304.961
  305.008
  305.048
  305.12
  305.232
  305.42
  305.68
  305.823
  305.852
  305.858
  305.849
  305.813
  305.789
  305.781
  305.818
  304.194
  303.831
  303.998
  304.253
  304.435
  304.541
  304.595
  304.609
  304.591
  304.558
  304.518
  304.479
  304.446
  304.42
  304.404
  304.4
  304.405
  304.429
  304.884
  304.985
  304.917
  304.868
  304.906
  305.003
  305.118
  305.189
  305.244
  305.292
  305.336
  305.379
  305.422
  305.464
  305.508
  305.608
  305.712
  305.789
  305.848
  304.059
  303.646
  304.086
  304.554
  304.767
  304.83
  304.833
  304.813
  304.763
  304.698
  304.63
  304.567
  304.511
  304.468
  304.438
  304.423
  304.421
  304.438
  304.601
  304.668
  304.693
  304.759
  304.889
  305.051
  305.2
  305.307
  305.387
  305.453
  305.51
  305.556
  305.593
  305.62
  305.64
  305.67
  305.725
  305.793
  305.855
  305.903
  305.989
  306.122
  303.907
  303.521
  304.186
  304.867
  304.942
  304.92
  304.884
  304.847
  304.804
  304.743
  304.673
  304.607
  304.548
  304.501
  304.465
  304.446
  304.44
  304.452
  304.524
  304.572
  304.65
  304.805
  305.011
  305.219
  305.39
  305.512
  305.599
  305.665
  305.708
  305.738
  305.757
  305.766
  305.768
  305.768
  305.785
  305.826
  305.876
  305.927
  305.995
  306.099
  303.719
  303.437
  304.167
  304.953
  304.982
  304.927
  304.868
  304.816
  304.77
  304.723
  304.671
  304.617
  304.566
  304.522
  304.487
  304.467
  304.462
  304.478
  304.538
  304.633
  304.811
  305.054
  305.306
  305.523
  305.683
  305.788
  305.855
  305.886
  305.902
  305.909
  305.91
  305.904
  305.891
  305.875
  305.871
  305.89
  305.924
  305.974
  306.027
  306.102
  303.488
  303.23
  303.824
  305.029
  305.044
  304.959
  304.876
  304.805
  304.748
  304.702
  304.661
  304.62
  304.58
  304.546
  304.52
  304.507
  304.515
  304.576
  304.718
  304.953
  305.228
  305.498
  305.726
  305.901
  306.013
  306.064
  306.078
  306.08
  306.075
  306.067
  306.054
  306.038
  306.017
  305.995
  305.98
  305.986
  306.021
  306.106
  306.141
  306.171
  303.173
  302.664
  302.622
  305.153
  305.197
  305.08
  304.974
  304.885
  304.813
  304.759
  304.72
  304.687
  304.66
  304.643
  304.641
  304.666
  304.737
  304.906
  305.186
  305.524
  305.82
  306.02
  306.157
  306.242
  306.278
  306.285
  306.279
  306.267
  306.252
  306.235
  306.215
  306.192
  306.168
  306.146
  306.134
  306.149
  306.202
  306.291
  306.37
  306.487
  300.152
  305.297
  305.422
  305.304
  305.198
  305.111
  305.041
  304.987
  304.954
  304.935
  304.932
  304.951
  305
  305.096
  305.26
  305.508
  305.8
  306.07
  306.271
  306.396
  306.464
  306.494
  306.501
  306.494
  306.482
  306.466
  306.448
  306.427
  306.402
  306.373
  306.341
  306.31
  306.285
  306.28
  306.304
  306.363
  306.438
  306.679
  304.548
  305.686
  305.686
  305.61
  305.543
  305.489
  305.447
  305.418
  305.404
  305.412
  305.441
  305.499
  305.591
  305.726
  305.906
  306.116
  306.32
  306.483
  306.593
  306.656
  306.685
  306.694
  306.689
  306.679
  306.664
  306.646
  306.626
  306.602
  306.574
  306.543
  306.508
  306.471
  306.438
  306.413
  306.407
  306.436
  306.516
  306.641
  308.335
  306.888
  305.788
  306.023
  306.031
  306.033
  306.039
  306.047
  306.059
  306.074
  306.091
  306.123
  306.171
  306.239
  306.325
  306.428
  306.541
  306.652
  306.743
  306.807
  306.846
  306.864
  306.869
  306.865
  306.855
  306.841
  306.825
  306.806
  306.784
  306.76
  306.734
  306.706
  306.676
  306.647
  306.62
  306.6
  306.594
  306.622
  306.787
  307.03
)
;

boundaryField
{
  floor
  {
    type wallHeatTransfer;
    Tinf uniform 305.2;
    alphaWall uniform 0.24;
    value nonuniform List<scalar> 29
(
  304.436
  305.279
  305.22
  305.175
  305.131
  305.101
  305.115
  305.142
  305.171
  305.201
  305.232
  305.262
  305.292
  305.321
  305.351
  305.383
  305.417
  305.456
  305.506
  305.587
  305.587
  305.643
  305.69
  305.719
  304.436
  305.279
  305.306
  305.323
  304.501
)
;
  }
  ceiling
  {
    type wallHeatTransfer;
    Tinf uniform 303.2;
    alphaWall uniform 0.24;
    value nonuniform List<scalar> 43
(
  307.922
  306.586
  305.583
  305.783
  305.791
  305.795
  305.803
  305.815
  305.829
  305.846
  305.865
  305.897
  305.946
  306.011
  306.093
  306.19
  306.296
  306.397
  306.479
  306.535
  306.566
  306.578
  306.577
  306.57
  306.558
  306.543
  306.526
  306.507
  306.484
  306.459
  306.429
  306.397
  306.362
  306.325
  306.289
  306.259
  306.245
  306.267
  306.436
  306.661
  303.174
  302.685
  304.472
)
;
  }
  sWall
  {
    type wallHeatTransfer;
    Tinf uniform 315.2;
    alphaWall uniform 0.36;
    value uniform 309.134;
  }
  nWall
  {
    type wallHeatTransfer;
    Tinf uniform 307.2;
    alphaWall uniform 0.36;
    value nonuniform List<scalar> 6
(
  306.425
  306.371
  306.353
  306.758
  306.716
  307.054
)
;
  }
  sideWalls
  {
    type empty;
  }
  glass1
  {
    type wallHeatTransfer;
    Tinf uniform 315.2;
    alphaWall uniform 4.3;
    value nonuniform List<scalar> 9
(
  310.848
  310.102
  309.576
  309.387
  309.253
  309.124
  308.965
  308.765
  308.466
)
;
  }
  glass2
  {
    type wallHeatTransfer;
    Tinf uniform 307.2;
    alphaWall uniform 4.3;
    value nonuniform List<scalar> 2
(
  306.963
  306.998
)
;
  }
  sun
  {
    type wallHeatTransfer;
    Tinf uniform 305.2;
    alphaWall uniform 0.24;
    value nonuniform List<scalar> 14
(
  304.849
  304.403
  304.352
  304.342
  304.342
  304.347
  304.354
  304.361
  304.369
  304.377
  304.385
  304.394
  304.405
  304.418
)
;
  }
  heatsource1
  {
    type fixedGradient;
    gradient uniform 0;
  }
  heatsource2
  {
    type fixedGradient;
    gradient uniform 0;
  }
  Table_master
  {
    type zeroGradient;
  }
  Table_slave
  {
    type zeroGradient;
  }
  inlet
  {
    type fixedValue;
    value uniform 296.15;
  }
  outlet
  {
    type zeroGradient;
  }
} 	// ************************************************************************* //

