/*--------------------------------*- C++ -*----------------------------------*\
  =========                 |
  \\      /  F ield         | OpenFOAM: The Open Source CFD Toolbox
   \\    /   O peration     | Website:  https://openfoam.org
    \\  /    A nd           | Version:  6
     \\/     M anipulation  |
\*---------------------------------------------------------------------------*/
FoamFile
{
    version     2.0;
    format      ascii;
    class       surfaceScalarField;
    location    "700";
    object      phi;
}
// * * * * * * * * * * * * * * * * * * * * * * * * * * * * * * * * * * * * * //

dimensions      [1 0 -1 0 0 0 0];

internalField   nonuniform List<scalar> 
852
(
-0.00297163
0.00302306
-0.00415711
0.00118546
-0.00497482
0.000817697
-0.00549357
0.000518734
-0.00566832
0.000174738
-0.0054555
-0.000212834
-0.00483047
-0.000625049
-0.00384522
-0.000985269
-0.00263336
-0.00121187
-0.0013588
-0.00127457
-0.000189384
-0.00116943
0.000613706
-0.000803112
0.000998352
-0.000384668
0.000883535
0.000114795
0.000884458
-0.000745991
0.000746964
-0.000818029
7.19705e-05
-0.000372152
-0.00044594
0.000232614
-0.000604823
0.000778328
-0.000545768
0.00119799
-0.000419721
0.00144464
-0.000246699
0.00156155
-0.000116968
0.00162876
-6.72618e-05
0.0016755
-4.68015e-05
0.00170845
-3.30089e-05
0.00173073
-2.23497e-05
0.00174124
-1.05692e-05
0.0017295
1.1663e-05
0.0016685
6.09289e-05
0.00151078
0.000157647
0.00121859
0.000292109
0.000760387
0.000458117
0.000761362
-0.00214686
0.00530991
-0.00324916
0.00228774
-0.00408069
0.00164921
-0.00460938
0.00104741
-0.00480185
0.00036719
-0.00461496
-0.00039973
-0.00404043
-0.00119959
-0.00315829
-0.00186743
-0.00212328
-0.00224689
-0.00109506
-0.0023028
-0.000210063
-0.00205445
0.000483593
-0.00149679
0.000938495
-0.000839593
0.0012033
-0.000150034
0.00159396
0.000493772
0.000875406
0.000718483
0.00087533
-0.000110312
0.000860339
0.000234938
-0.000273362
0.000653943
-0.000865006
0.000991809
-0.000942742
0.00128488
-0.000838886
0.0015104
-0.00064529
0.00156449
-0.000300845
0.00157498
-0.000127506
0.00158664
-7.89811e-05
0.00159654
-5.67546e-05
0.00160328
-3.98034e-05
0.00160789
-2.7024e-05
0.00161026
-1.30017e-05
0.00160591
1.5942e-05
0.00156496
0.000101808
0.00139081
0.000331729
0.00107702
0.000605817
0.000637308
0.000897739
0.00140164
-0.00151392
0.00703971
-0.00243547
0.00320928
-0.00318101
0.00239474
-0.00365334
0.00151971
-0.00382798
0.000541824
-0.00363032
-0.000597406
-0.00306125
-0.00176867
-0.00224764
-0.00268105
-0.00136439
-0.00313014
-0.000540945
-0.00312626
0.000136072
-0.00273149
0.00068158
-0.00204232
0.00108622
-0.00124425
0.00137172
-0.000435559
0.00153477
0.0003307
0.00125284
0.00100038
0.00212815
0.000988687
-0.000123752
0.00144878
-0.000733525
0.00157914
-0.000995414
0.00166703
-0.00103068
0.00175679
-0.000928693
0.00192209
-0.00081064
0.00162135
0.00149395
0.00141507
0.00135841
0.00131871
0.00129178
0.00127886
0.00129489
0.00139678
0.00117487
0.000553554
0.000903613
0.000876991
0.000525143
0.00127612
0.00193166
-0.00105217
0.00837347
-0.00175016
0.00390725
-0.00226515
0.00290971
-0.00258931
0.00184385
-0.00267228
0.000624786
-0.00238309
-0.000886619
-0.00178826
-0.0023635
-0.0010666
-0.00340271
-0.000373714
-0.00382303
0.000215915
-0.0037159
0.000678742
-0.00319433
0.00105456
-0.00241817
0.00135307
-0.00154279
0.00159684
-0.000679357
0.00182326
0.000104259
0.00210509
0.000718531
0.00314224
0.00109097
0.00273894
0.000407465
0.00273071
-0.000115547
0.00252829
-0.000531139
0.00229518
-0.000762339
0.0020891
-0.000824632
0.0019181
-0.000757741
0.00168533
-0.000577913
0.00190976
-0.000224625
0.00198173
-7.21746e-05
0.00199441
-1.28854e-05
0.00196894
2.52638e-05
0.00190723
6.15087e-05
0.00180582
0.000101198
0.00165275
0.000152865
0.00142217
0.000230376
0.00106184
0.000360113
0.000946905
0.000668421
0.000753326
0.00107049
0.00048844
0.00154091
0.00242672
-0.000722866
0.00943455
-0.00121444
0.00439881
-0.00135786
0.00305311
-0.00143263
0.0019186
-0.00128572
0.000477851
-0.000797893
-0.00137446
-0.000191834
-0.00296956
0.000354754
-0.00394929
0.00078043
-0.0042487
0.00108228
-0.00401775
0.00129485
-0.00340692
0.00145016
-0.0025735
0.00157362
-0.00166628
0.00170308
-0.000808838
0.00189056
-8.32518e-05
0.00216911
0.000439956
0.00257773
0.000682323
0.00260723
0.000377933
0.0025334
-4.17397e-05
0.00234733
-0.000345102
0.00210597
-0.000521015
0.00185918
-0.000577883
0.00163337
-0.000531976
0.00145181
-0.0003964
0.00141808
-0.000190955
0.0013906
-4.47508e-05
0.00134496
3.27007e-05
0.00129284
7.73243e-05
0.00123927
0.000115019
0.00117965
0.000160751
0.0011051
0.000227359
0.0010058
0.000329605
0.000883478
0.000482375
0.000807442
0.000744387
0.000769776
0.00110807
0.000724068
0.00158652
0.000973307
0.00217738
-0.00062198
0.00159498
-0.00111269
0.000490398
-0.00107876
-0.000602593
0.0104236
-0.000889566
0.00468577
-0.000491708
0.00265523
-0.000124214
0.00155108
0.000447271
-9.36668e-05
0.00112934
-0.00205654
0.00162866
-0.00346888
0.00190192
-0.00422254
0.00200385
-0.00435062
0.00197381
-0.00398772
0.00186457
-0.0032977
0.00172817
-0.00243714
0.00160624
-0.00154439
0.00154068
-0.000743315
0.00156452
-0.000107129
0.00168577
0.000318681
0.00188458
0.000483478
0.00194815
0.000314341
0.00186126
4.51101e-05
0.00169037
-0.000174247
0.00147627
-0.000306958
0.00125087
-0.000352526
0.0010395
-0.000320658
0.00086832
-0.00022528
0.000768807
-9.15027e-05
0.000709193
1.48008e-05
0.00066823
7.35997e-05
0.000642206
0.000103282
0.000629592
0.000127566
0.000628571
0.000161705
0.000636934
0.000218926
0.000653644
0.000312825
0.000680084
0.000455865
0.000750344
0.000674053
0.000898109
0.000960225
0.00114646
0.00133808
0.00158957
0.00173417
0.0018574
0.00132705
0.00151015
0.000837538
0.000473392
-0.000610532
0.0114644
-0.000390173
0.00446539
0.000801414
0.00146362
0.00180441
0.000548064
0.00271896
-0.00100825
0.0033155
-0.00265308
0.00356486
-0.00371823
0.00348701
-0.00414467
0.00316993
-0.00403353
0.00270911
-0.00352691
0.00219829
-0.00278691
0.00171489
-0.00195378
0.00130975
-0.00113929
0.00103036
-0.000463964
0.000894382
2.88037e-05
0.000901425
0.0003116
0.000992598
0.000392268
0.00102499
0.000281905
0.000963609
0.000106454
0.000833784
-4.44688e-05
0.000661952
-0.000135178
0.000473884
-0.000164516
0.000294179
-0.000141014
0.000147099
-7.82642e-05
5.33176e-05
2.21077e-06
7.45667e-06
6.05921e-05
-5.16973e-06
8.61552e-05
4.57158e-06
9.34692e-05
3.53333e-05
9.67314e-05
8.93294e-05
0.000107635
0.000169824
0.000138357
0.000280418
0.000202156
0.000424177
0.000312031
0.000617704
0.000480449
0.000884556
0.000693292
0.00126453
0.000958018
0.00184103
0.00115758
0.00233912
0.000828852
0.00239944
0.000777111
0.00291969
0.0027089
0.00923703
0.00350048
0.0036738
0.00392823
0.00103585
0.00489347
-0.000417213
0.0056755
-0.00179028
0.00587118
-0.00284875
0.00555265
-0.00339967
0.00486173
-0.00345372
0.00395324
-0.00312503
0.00295978
-0.00253348
0.00200658
-0.00183375
0.0011874
-0.00113466
0.000547004
-0.000498958
0.000136801
-5.38163e-05
-4.04809e-05
0.000206037
-4.6069e-05
0.000317143
1.49348e-05
0.000331219
4.09117e-05
0.00025588
8.37448e-07
0.000146475
-9.47299e-05
5.10403e-05
-0.000225039
-4.9324e-06
-0.000369012
-2.06102e-05
-0.000504167
-5.92903e-06
-0.000609084
2.65807e-05
-0.00066689
5.9942e-05
-0.000684248
7.78735e-05
-0.000676832
7.86628e-05
-0.000650928
6.74866e-05
-0.000605613
5.13377e-05
-0.000536299
3.82405e-05
-0.000436813
3.87901e-05
-0.000300226
6.54886e-05
-0.000117363
0.000129086
0.000123502
0.0002395
0.000420838
0.000395872
0.0007958
0.00058297
0.00125837
0.000694922
0.00148484
0.000602284
0.000741309
0.00152053
0.00383493
0.0097597
0.0134216
0.0118718
0.00258557
0.0109574
0.000497185
0.00985045
-0.000683259
0.00846403
-0.00146227
0.00687125
-0.00180684
0.00521289
-0.00179536
0.00361333
-0.00152549
0.00213781
-0.00105802
0.000879997
-0.000576003
-8.17396e-05
-0.000173007
-0.000682271
0.000101504
-0.000952914
0.000216764
-0.00101995
0.00027302
-0.000997619
0.000294753
-0.000949449
0.000282992
-0.000929149
0.000235519
-0.00095601
0.000173271
-0.00102383
0.000118792
-0.00111372
8.48816e-05
-0.0012068
7.23919e-05
-0.00128731
7.45039e-05
-0.00134382
8.30082e-05
-0.00137494
9.09829e-05
-0.00139048
9.33286e-05
-0.00140255
9.0651e-05
-0.00142206
8.69168e-05
-0.00145885
8.80359e-05
-0.00152261
0.000101915
-0.0016234
0.000139489
-0.00177362
0.000215618
-0.00199361
0.000348979
-0.00231553
0.000561334
-0.00279392
0.000874164
-0.00350914
0.00129809
-0.00457999
0.00176568
-0.00600772
0.00202991
-0.00597477
0.00148749
-0.00195582
0.00533239
0.00398103
0.00396428
0.00186544
0.00384056
-0.000559464
0.00345081
-0.00107252
0.00257864
-0.00093473
0.00148451
-0.000701306
0.000348959
-0.000390032
-0.000654629
-5.45344e-05
-0.00136798
0.000137261
-0.00176413
0.000223063
-0.00191937
0.000256672
-0.00195934
0.000256662
-0.00193958
0.000253199
-0.00189398
0.000249084
-0.00184896
0.000237901
-0.00182752
0.000214004
-0.0018369
0.000182568
-0.00187067
0.000152489
-0.00191592
0.00013004
-0.00196027
0.000116666
-0.00199616
0.000110305
-0.00202105
0.000107813
-0.00203668
0.000106522
-0.00204821
0.000104772
-0.00206086
0.000103212
-0.00207872
0.000104689
-0.00210495
0.000114175
-0.00214201
0.000138876
-0.00219111
0.000188497
-0.0022514
0.000275802
-0.00231958
0.000417063
-0.00238805
0.000629705
-0.0024373
0.000923322
-0.00242787
0.00128856
-0.00233889
0.0016766
-0.00191415
0.00160507
-0.000696801
0.00027004
-0.00260919
0.000200742
0.00382593
0.00119847
0.000867795
0.00054615
9.28669e-05
-0.000385864
-0.000140604
-0.00125472
-6.59731e-05
-0.00199509
3.89624e-05
-0.00252581
0.000140586
-0.00279123
0.000210789
-0.00288875
0.000234697
-0.00289407
0.0002283
-0.0028465
0.000209015
-0.0027774
0.000187483
-0.00269817
0.000173893
-0.00261667
0.0001675
-0.00254167
0.000162821
-0.00248234
0.00015459
-0.0024421
0.000142239
-0.00241786
0.00012816
-0.00240312
0.00011521
-0.00239169
0.000105151
-0.00237993
9.84528e-05
-0.00236704
9.48349e-05
-0.00235431
9.36962e-05
-0.00234408
9.44565e-05
-0.0023382
9.72378e-05
-0.0023367
0.000103093
-0.00233676
0.000114144
-0.00233168
0.000133699
-0.00230961
0.000166324
-0.00225196
0.000218051
-0.00213239
0.000297396
-0.00191895
0.000416164
-0.00157332
0.0005776
-0.00101515
0.00073029
-8.24032e-05
0.000743753
0.00110984
0.000412733
0.00178347
-0.000403695
-0.000779949
0.00130464
-0.00922192
-0.00537363
-0.0045045
-0.00442016
-0.00457382
-0.00465582
-0.0046353
-0.00451533
-0.00432729
-0.00411718
-0.00391487
-0.00373285
-0.00357306
-0.00342737
-0.00328848
-0.00315466
-0.00302949
-0.00291707
-0.00281912
-0.00273445
-0.00266011
-0.00259269
-0.00252906
-0.00246676
-0.00240391
-0.00233856
-0.00226771
-0.00218625
-0.00208575
-0.00195317
-0.00176935
-0.00150658
-0.00112526
-0.00058252
0.000113003
0.000821828
0.00119891
0.000758934
)
;

boundaryField
{
    floor
    {
        type            calculated;
        value           nonuniform List<scalar> 
29
(
0
0
0
0
0
0
0
0
0
0
0
0
0
0
0
0
0
0
0
0
-1.07016e-06
-3.0689e-06
-4.97598e-06
-6.72543e-06
-9.4596e-07
-1.0488e-06
-3.14432e-06
-4.69071e-06
-4.19785e-06
)
;
    }
    ceiling
    {
        type            calculated;
        value           nonuniform List<scalar> 
43
(
1.58948e-06
-1.91906e-05
-2.24306e-05
-1.449e-06
8.42517e-06
1.2952e-05
1.59343e-05
1.83405e-05
2.0525e-05
2.26542e-05
2.44892e-05
2.59003e-05
2.69036e-05
2.76009e-05
2.81064e-05
2.85198e-05
2.89121e-05
2.93166e-05
2.97263e-05
3.01123e-05
3.04467e-05
3.07181e-05
3.09342e-05
3.11177e-05
3.12997e-05
3.15141e-05
3.17906e-05
3.21492e-05
3.25936e-05
3.31052e-05
3.36417e-05
3.41406e-05
3.45294e-05
3.47429e-05
3.47619e-05
3.4667e-05
3.48277e-05
3.5549e-05
3.61832e-05
3.74371e-05
1.55336e-05
1.19133e-05
-4.55953e-05
)
;
    }
    sWall
    {
        type            calculated;
        value           uniform -0.000204031;
    }
    nWall
    {
        type            calculated;
        value           nonuniform List<scalar> 6(-3.42428e-05 -4.2114e-05 -4.69657e-05 -4.3531e-05 -4.58628e-05 -5.85492e-05);
    }
    sideWalls
    {
        type            empty;
        value           nonuniform 0();
    }
    glass1
    {
        type            calculated;
        value           nonuniform List<scalar> 9(-5.14528e-05 -0.000140001 -0.000215887 -0.000281602 -0.000338231 -0.000386483 -0.000430228 -0.000481576 -0.000538225);
    }
    glass2
    {
        type            calculated;
        value           nonuniform List<scalar> 2(-0.000174041 -0.000184125);
    }
    sun
    {
        type            calculated;
        value           uniform 0;
    }
    heatsource1
    {
        type            calculated;
        value           nonuniform List<scalar> 3(2.02176e-07 2.02193e-07 2.0223e-07);
    }
    heatsource2
    {
        type            calculated;
        value           nonuniform List<scalar> 4(5.06959e-08 5.08194e-08 0 0);
    }
    Table_master
    {
        type            calculated;
        value           nonuniform List<scalar> 9(-1.51748e-07 -1.51904e-07 -1.5195e-07 -1.51976e-07 -1.51992e-07 -1.51999e-07 -1.52e-07 -1.51988e-07 -1.51941e-07);
    }
    Table_slave
    {
        type            calculated;
        value           nonuniform List<scalar> 9(1.5159e-07 1.51626e-07 1.51614e-07 1.51606e-07 1.51607e-07 1.5162e-07 1.51648e-07 1.51695e-07 1.5177e-07);
    }
    inlet
    {
        type            calculated;
        value           uniform -0.0067278;
    }
    outlet
    {
        type            calculated;
        value           nonuniform List<scalar> 2(-0.0011023 0.0105456);
    }
}


// ************************************************************************* //
