/*--------------------------------*- C++ -*----------------------------------*\
  =========                 |
  \\      /  F ield         | OpenFOAM: The Open Source CFD Toolbox
   \\    /   O peration     | Website:  https://openfoam.org
    \\  /    A nd           | Version:  6
     \\/     M anipulation  |
\*---------------------------------------------------------------------------*/
FoamFile
{
    version     2.0;
    format      ascii;
    class       volScalarField;
    location    "200";
    object      alphat;
}
// * * * * * * * * * * * * * * * * * * * * * * * * * * * * * * * * * * * * * //

dimensions      [1 -1 -1 0 0 0 0];

internalField   nonuniform List<scalar> 
459
(
0.00298499
0.00281983
0.00267905
0.00256504
0.00247093
0.00239052
0.00231955
0.00225372
0.00219009
0.00212596
0.00205852
0.00198421
0.00189746
0.00178644
0.00164164
0.000445152
0.000418476
0.000288229
0.000219766
0.000207368
0.000213544
0.000226659
0.000238663
0.000249156
0.00025856
0.000266341
0.000279399
0.000300327
0.000334227
0.000385694
0.000456119
0.000532071
0.000640418
0.000598723
0.00340311
0.00359003
0.00349266
0.0033604
0.00328686
0.00326081
0.00325908
0.00323026
0.00317266
0.00308893
0.00298307
0.00285442
0.00268721
0.00241108
0.00202229
0.00153315
0.00116388
0.000592625
0.00135516
0.000760322
0.000577558
0.000580227
0.000604013
0.000608399
0.000651332
0.000718489
0.000783998
0.000830569
0.000867022
0.000935314
0.00107946
0.00135623
0.00188996
0.00208293
0.00259357
0.000818212
0.00372742
0.00389675
0.00348434
0.00313909
0.00300068
0.00299069
0.00304918
0.00311875
0.00317126
0.00319402
0.00318073
0.00312419
0.00300696
0.00275624
0.0023836
0.00204794
0.00113849
0.000656619
0.0012775
0.000870524
0.000673007
0.000547578
0.000430111
0.000318331
0.000339536
0.000365552
0.00039587
0.00043304
0.000481273
0.000547949
0.00064579
0.000797428
0.00249695
0.00278138
0.00333136
0.000976048
0.00401358
0.00414993
0.00321721
0.00261893
0.00254568
0.0026874
0.00286612
0.00300379
0.00309838
0.0031663
0.0032131
0.00322375
0.00316947
0.00294072
0.00252455
0.00215576
0.00123671
0.000709183
0.00135294
0.00153779
0.001293
0.00111196
0.000961483
0.000823069
0.000699355
0.00071866
0.000739757
0.000760656
0.000784277
0.000813594
0.000852438
0.000907448
0.000992676
0.00289993
0.00296601
0.00292902
0.00100301
0.00429699
0.00434417
0.00280501
0.00224436
0.00288111
0.00347108
0.00375987
0.00363026
0.0033757
0.00325334
0.0032486
0.00326811
0.00318785
0.00289352
0.0024903
0.00209343
0.00165308
0.00245291
0.00285139
0.00307451
0.00314188
0.00324452
0.00337281
0.00350996
0.00362539
0.00372591
0.00374902
0.00374408
0.00372449
0.00369819
0.00367121
0.00364858
0.00363238
0.00361675
0.00322281
0.00264068
0.00198264
0.00121969
0.00124766
0.00116993
0.00460307
0.00447967
0.00238041
0.00260048
0.00356887
0.00404868
0.00413673
0.00382415
0.00342119
0.00325499
0.00322628
0.00320156
0.0030616
0.00276418
0.0024384
0.00218372
0.00254507
0.00376055
0.00418647
0.00443456
0.00464999
0.00486439
0.00506176
0.00522489
0.00533389
0.00537814
0.00537525
0.00534241
0.00528939
0.00522285
0.005147
0.00506389
0.00497268
0.00486322
0.00470709
0.00451723
0.00432729
0.00420707
0.00415102
0.00147568
0.00496224
0.00464178
0.00251022
0.0025142
0.00328348
0.00362351
0.00362343
0.00343856
0.00326046
0.00316482
0.00312647
0.00306552
0.0029084
0.00266356
0.00247643
0.0025321
0.00366406
0.00470193
0.00515579
0.00550146
0.00579307
0.00603776
0.00622209
0.00634492
0.00639641
0.00639429
0.00635159
0.00627948
0.00618708
0.00608198
0.00597075
0.00586032
0.00575951
0.00567684
0.00561281
0.00555593
0.00549324
0.00551893
0.0059328
0.00172842
0.00545488
0.00540426
0.00385003
0.00216405
0.00292675
0.00324126
0.00327522
0.00319325
0.0031237
0.00308063
0.00304342
0.00297023
0.00282554
0.00265073
0.00261735
0.00302169
0.00447838
0.00541185
0.00604799
0.00652878
0.00688217
0.00713477
0.00727642
0.00733179
0.00731954
0.00725825
0.00716194
0.0070414
0.00690486
0.00675861
0.00660768
0.00645718
0.00631361
0.00618449
0.00607753
0.00600763
0.006008
0.00612418
0.00674627
0.00197143
0.00623431
0.00733742
0.00901666
0.00383152
0.0032719
0.00364771
0.00346853
0.00335897
0.00322366
0.00315618
0.00310798
0.00303169
0.00290258
0.0027729
0.002835
0.00343882
0.00485793
0.00601603
0.00692959
0.00752118
0.00793362
0.00817407
0.00827068
0.00826217
0.00818283
0.0080595
0.00791116
0.00775016
0.00758379
0.00741566
0.00724713
0.00707859
0.00691048
0.00674313
0.00657699
0.00641969
0.00630911
0.00633651
0.00659711
0.00193735
0.0147436
0.00657409
0.00458794
0.00494013
0.00466991
0.00441541
0.00409013
0.00379292
0.00363
0.00350682
0.00336867
0.00326282
0.00342062
0.00417847
0.0052551
0.00652241
0.00764741
0.00842056
0.00894121
0.00921562
0.00928902
0.00922481
0.00908101
0.00890095
0.00871257
0.00853087
0.00836127
0.00820272
0.00805049
0.00789838
0.00774039
0.0075714
0.00738663
0.00717961
0.00693749
0.00661581
0.00584502
0.00174008
0.00613462
0.00416306
0.00608186
0.00617253
0.00609104
0.00561425
0.00496934
0.00432262
0.00393642
0.00371773
0.00356079
0.00343716
0.00355172
0.00418532
0.00518241
0.00642012
0.00773922
0.00885733
0.0095681
0.00987586
0.00988959
0.00973719
0.00951988
0.00930229
0.00911796
0.00897805
0.00887923
0.00880996
0.00875542
0.0087009
0.0086337
0.0085431
0.00841891
0.00824911
0.00801262
0.00763537
0.00663214
0.00214035
0.00120539
0.00126744
0.00286235
0.00255898
0.00204128
0.00177227
0.00168876
0.00162532
0.00159463
0.0015822
0.00156604
0.00155632
0.00154769
0.00152754
0.00151874
0.00154007
0.00159117
0.00166728
0.0017635
0.00188467
0.00201091
0.00211392
0.00218194
0.00221623
0.00222434
0.0022152
0.00219675
0.00217508
0.00215425
0.00213648
0.00212243
0.00211165
0.00210301
0.00209505
0.00208611
0.00207427
0.00205733
0.00202993
0.00194555
0.00170411
)
;

boundaryField
{
    floor
    {
        type            compressible::alphatWallFunction;
        Prt             0.85;
        value           nonuniform List<scalar> 
29
(
0.000230465
6.09515e-05
5.67614e-05
3.5879e-05
2.44316e-05
2.23252e-05
2.33919e-05
2.56336e-05
2.76691e-05
2.94369e-05
3.10132e-05
3.23128e-05
3.44821e-05
3.793e-05
4.34456e-05
5.16771e-05
6.27072e-05
7.43584e-05
9.06293e-05
8.44092e-05
8.44082e-05
0.000116647
0.000139173
0.00014298
0.000230463
6.09508e-05
8.34567e-05
9.30115e-05
0.000100786
)
;
    }
    ceiling
    {
        type            compressible::alphatWallFunction;
        Prt             0.85;
        value           nonuniform List<scalar> 
43
(
0.000171624
0.000180142
0.000387896
0.000349622
0.000283044
0.000247797
0.000236744
0.000228307
0.000224213
0.000222555
0.000220394
0.000219092
0.000217933
0.000215222
0.000214025
0.000216877
0.000223711
0.000233849
0.000246595
0.00026254
0.000279035
0.000292413
0.000301205
0.000305625
0.000306667
0.000305485
0.000303103
0.000300303
0.00029761
0.000295309
0.000293487
0.000292088
0.000290966
0.000289931
0.000288768
0.000287229
0.000285025
0.000281458
0.000270452
0.000238665
0.000792353
0.000919216
0.000780781
)
;
    }
    sWall
    {
        type            compressible::alphatWallFunction;
        Prt             0.85;
        value           uniform 0.000170886;
    }
    nWall
    {
        type            compressible::alphatWallFunction;
        Prt             0.85;
        value           nonuniform List<scalar> 6(0.000166176 0.000207892 0.000241637 0.000243215 0.000295563 0.000238449);
    }
    sideWalls
    {
        type            empty;
    }
    glass1
    {
        type            compressible::alphatWallFunction;
        Prt             0.85;
        value           nonuniform List<scalar> 9(0.00040073 0.000452459 0.000492133 0.000526851 0.000560994 0.000597618 0.000640291 0.00069836 0.000789262);
    }
    glass2
    {
        type            compressible::alphatWallFunction;
        Prt             0.85;
        value           nonuniform List<scalar> 2(0.00027396 0.00026952);
    }
    sun
    {
        type            compressible::alphatWallFunction;
        Prt             0.85;
        value           nonuniform List<scalar> 
14
(
0.000403126
0.000382436
0.000364703
0.00035027
0.000338305
0.000328044
0.000318956
0.000310501
0.000302302
0.000294015
0.000285269
0.000275597
0.000264255
0.000249657
)
;
    }
    heatsource1
    {
        type            compressible::alphatWallFunction;
        Prt             0.85;
        value           nonuniform List<scalar> 3(0.000172974 0.000176817 0.000166107);
    }
    heatsource2
    {
        type            compressible::alphatWallFunction;
        Prt             0.85;
        value           nonuniform List<scalar> 4(0.000215594 0.000165355 0.000165353 0.000161839);
    }
    Table_master
    {
        type            compressible::alphatWallFunction;
        Prt             0.85;
        value           nonuniform List<scalar> 9(4.07554e-05 4.41848e-05 4.83535e-05 5.31624e-05 5.89935e-05 6.64651e-05 7.66405e-05 9.13003e-05 0.000113504);
    }
    Table_slave
    {
        type            compressible::alphatWallFunction;
        Prt             0.85;
        value           nonuniform List<scalar> 9(9.92105e-05 0.000102043 0.000105128 0.000108174 0.000111604 0.000115844 0.000121433 0.000129298 0.000141373);
    }
    inlet
    {
        type            fixedValue;
        value           uniform 1.94e-05;
    }
    outlet
    {
        type            zeroGradient;
    }
}


// ************************************************************************* //
