/*--------------------------------*- C++ -*----------------------------------*\
  =========                 |
  \\      /  F ield         | OpenFOAM: The Open Source CFD Toolbox
   \\    /   O peration     | Website:  https://openfoam.org
    \\  /    A nd           | Version:  6
     \\/     M anipulation  |
\*---------------------------------------------------------------------------*/
FoamFile
{
    version     2.0;
    format      ascii;
    class       surfaceScalarField;
    location    "400";
    object      phi;
}
// * * * * * * * * * * * * * * * * * * * * * * * * * * * * * * * * * * * * * //

dimensions      [1 0 -1 0 0 0 0];

internalField   nonuniform List<scalar> 
852
(
-0.00293189
0.00298816
-0.00396374
0.00103185
-0.00475063
0.000786896
-0.00536949
0.000618853
-0.00579153
0.000422046
-0.00599483
0.000203294
-0.00595785
-3.69808e-05
-0.00566186
-0.000295983
-0.0051155
-0.000546366
-0.00436623
-0.000749271
-0.00349114
-0.000875089
-0.0025774
-0.00091374
-0.00169841
-0.000878993
-0.000872834
-0.000825577
-0.000871408
-0.000662111
0.000664794
-0.000318624
-0.000343487
0.000291734
-0.000610358
0.000759792
-0.000468058
0.00106687
-0.000307079
0.00125549
-0.000188618
0.00135716
-0.000101667
0.00140774
-5.05846e-05
0.00143623
-2.84884e-05
0.00145344
-1.72158e-05
0.00146279
-9.34616e-06
0.0014653
-2.50916e-06
0.00145895
6.35267e-06
0.00143524
2.37083e-05
0.00137161
6.36258e-05
0.00123019
0.000141429
0.000996317
0.00023387
0.000704763
0.000291554
0.000708381
-0.00209054
0.00523016
-0.00309058
0.00203189
-0.00389434
0.00159065
-0.00449932
0.00122383
-0.00491074
0.000833469
-0.00511602
0.000408574
-0.00509033
-6.26792e-05
-0.00481727
-0.000569036
-0.00431591
-0.00104773
-0.00364368
-0.0014215
-0.00288029
-0.00163848
-0.0021064
-0.00168764
-0.00139501
-0.00159039
-0.000838549
-0.00138203
-0.000637288
-0.00107267
-0.000107992
-0.000529348
-0.000108043
0.000402551
0.000269853
0.000826162
-0.000767099
0.00107019
-0.000854391
0.0012754
-0.00067326
0.00142615
-0.000457835
0.00151228
-0.000274745
0.00152487
-0.000114259
0.00152837
-5.40838e-05
0.00153261
-3.27254e-05
0.00153615
-2.07588e-05
0.00153852
-1.17133e-05
0.00153963
-3.62461e-06
0.00153859
7.3924e-06
0.00153179
3.0511e-05
0.00149034
0.000105075
0.00131476
0.000317015
0.00101126
0.000537367
0.000628303
0.000674512
0.00134598
-0.00146302
0.00692477
-0.00232283
0.0028917
-0.00302923
0.00229705
-0.00354057
0.00173516
-0.00389431
0.00118721
-0.0040741
0.000588364
-0.0040365
-0.000100284
-0.0037554
-0.000850132
-0.00326976
-0.00153337
-0.00265249
-0.00203877
-0.00198407
-0.0023069
-0.00133087
-0.00234084
-0.000745152
-0.00217611
-0.000283051
-0.00184414
2.59441e-05
-0.00138166
0.000241919
-0.000745324
0.000133876
0.00148165
-0.00120386
0.00169493
-0.000980374
0.00167578
-0.000835241
0.00167733
-0.000674809
0.00169839
-0.000478896
0.00170451
-0.000280862
0.0015904
0.00153647
0.0015039
0.00148329
0.00147173
0.00146826
0.00147581
0.00150647
0.0016117
0.00133077
0.000597945
0.000988551
0.000879587
0.000551994
0.00111107
0.00191215
-0.0010223
0.00824684
-0.0017028
0.0035722
-0.00216217
0.00275643
-0.00248905
0.00206204
-0.00271613
0.00141429
-0.00281442
0.000686658
-0.00271095
-0.000203759
-0.00238391
-0.00117717
-0.00191005
-0.00200723
-0.0013731
-0.00257572
-0.000840806
-0.0028392
-0.000352778
-0.00282887
7.21302e-05
-0.00260102
0.000427187
-0.00219919
0.000736743
-0.00169122
0.00111048
-0.00111906
0.00185658
-0.000612226
0.00242217
-0.00055835
0.00201265
-0.000794332
0.00188982
-0.000857551
0.00178588
-0.000731293
0.0016982
-0.000587131
0.00165334
-0.000434038
0.00164221
-0.000269734
0.00175384
-0.000111778
0.00182664
-7.29519e-05
0.00188642
-5.99367e-05
0.00193293
-4.66643e-05
0.00195207
-1.92867e-05
0.00192267
2.92435e-05
0.00182013
0.000102393
0.00161233
0.000207644
0.00124547
0.000366703
0.00111658
0.00072684
0.000830663
0.0011655
0.000392111
0.00154962
0.00232286
-0.000717445
0.00932192
-0.0012343
0.00408905
-0.00132022
0.00284234
-0.00137203
0.00211385
-0.00139672
0.00143898
-0.0013231
0.000613033
-0.00106537
-0.000461485
-0.000669924
-0.00157262
-0.000241083
-0.00243607
0.000151779
-0.00296859
0.000477399
-0.00316482
0.000730465
-0.00308193
0.000921326
-0.00279188
0.00107887
-0.00235673
0.00123285
-0.00184521
0.00143622
-0.00132243
0.00171711
-0.000893121
0.00186193
-0.000703168
0.00176551
-0.000697911
0.00159354
-0.000685585
0.00145148
-0.00058923
0.00133745
-0.000473105
0.00126195
-0.00035853
0.00123762
-0.000245406
0.00128262
-0.000156777
0.00133303
-0.000123363
0.00138821
-0.000115116
0.0014444
-0.000102858
0.00149085
-6.5727e-05
0.0015079
1.2188e-05
0.00147519
0.000135109
0.0013811
0.000301732
0.00122638
0.000521422
0.00109185
0.000861377
0.000947581
0.00130977
0.00062779
0.00186941
0.00055246
0.00239819
-0.000973387
0.00152564
-0.00143612
0.000462532
-0.00138909
-0.000627056
0.0103554
-0.000982728
0.00444472
-0.000557475
0.00241709
-0.000195894
0.00175227
8.00534e-05
0.00116303
0.000445259
0.000247828
0.000924279
-0.000940505
0.00134464
-0.00199298
0.00163951
-0.00273094
0.00179849
-0.00312757
0.00184596
-0.0032123
0.00181114
-0.00304712
0.00172259
-0.00270333
0.00161623
-0.00225037
0.00152513
-0.00175411
0.00147621
-0.00127351
0.00146434
-0.00088125
0.00140943
-0.00064826
0.00126551
-0.000553987
0.0010764
-0.000496478
0.000912137
-0.000424962
0.000789316
-0.000350284
0.000713322
-0.000282536
0.000690844
-0.000222927
0.000717502
-0.000183434
0.000769016
-0.000174876
0.00083498
-0.00018108
0.000910806
-0.000178682
0.000990804
-0.000145724
0.00106297
-5.998e-05
0.00110972
8.8365e-05
0.00112717
0.000284281
0.00112354
0.000525055
0.00114669
0.000838224
0.00124442
0.00121205
0.00142958
0.00168425
0.00187086
0.00195691
0.0021298
0.0012667
0.00174019
0.000852146
0.000407737
-0.000684506
0.0114905
-0.000567435
0.00432765
0.000560746
0.00128891
0.00134152
0.000971499
0.00199577
0.000508775
0.00267386
-0.000430267
0.00322873
-0.00149537
0.00353416
-0.00229841
0.00358864
-0.00278543
0.00343479
-0.00297372
0.00313209
-0.0029096
0.00274134
-0.00265637
0.00231574
-0.00227773
0.00190205
-0.00183668
0.0015362
-0.00138826
0.00123596
-0.000973268
0.00100061
-0.000645902
0.000797282
-0.000444931
0.000594027
-0.000350732
0.00040269
-0.000305141
0.000248635
-0.000270906
0.000141046
-0.000242695
8.00549e-05
-0.000221544
6.49854e-05
-0.000207857
8.82689e-05
-0.000206717
0.000134836
-0.000221442
0.000195629
-0.000241872
0.000269863
-0.000252915
0.000361771
-0.000237631
0.00047619
-0.000174398
0.000600374
-3.58172e-05
0.000723997
0.000160659
0.000858479
0.000390573
0.0010422
0.000654501
0.00132363
0.000930621
0.00176407
0.00124381
0.00242986
0.00129113
0.00296958
0.000726978
0.00299434
0.000827392
0.00346349
0.00258556
0.00940907
0.00328466
0.00362856
0.00367344
0.000900123
0.00432422
0.00032072
0.0051063
-0.000273308
0.00575018
-0.00107415
0.00600005
-0.00174524
0.0058725
-0.00217086
0.00543937
-0.00235231
0.00479039
-0.00232474
0.00401952
-0.00213873
0.00321115
-0.001848
0.00242807
-0.00149466
0.00171949
-0.0011281
0.00111883
-0.000787598
0.000634606
-0.000489043
0.000272485
-0.000283781
7.53958e-06
-0.000179985
-0.000194922
-0.000148269
-0.000351461
-0.000148602
-0.000467697
-0.000154669
-0.000547249
-0.000163143
-0.000594652
-0.00017414
-0.000614135
-0.000188373
-0.000612778
-0.000208072
-0.000600524
-0.000233695
-0.000582887
-0.000259508
-0.000558714
-0.000277087
-0.000519521
-0.000276823
-0.000446437
-0.000247481
-0.000310228
-0.000172025
-0.000128281
-2.12864e-05
8.45398e-05
0.000177753
0.000353214
0.000385827
0.000690039
0.000593797
0.00113642
0.000797426
0.00162988
0.000797667
0.0018416
0.000515258
0.00109718
0.00157182
0.00481034
0.00996193
0.0135824
0.0124403
0.00204218
0.0117225
0.00103859
0.0110759
0.000373289
0.0102225
-0.00022078
0.00910253
-0.000625284
0.00781809
-0.000886419
0.00646284
-0.000997069
0.00510958
-0.000971484
0.00382435
-0.000853497
0.0026606
-0.000684246
0.00164104
-0.000475096
0.000789151
-0.000276216
0.000113805
-0.000112252
-0.000369996
-5.24034e-06
-0.000674872
2.10968e-05
-0.000864521
9.66561e-06
-0.000997257
-1.55329e-05
-0.00110204
-4.38147e-05
-0.00118642
-7.02923e-05
-0.00125418
-9.5378e-05
-0.00130944
-0.000118879
-0.00135672
-0.000141089
-0.00140271
-0.00016209
-0.00145536
-0.000181038
-0.0015221
-0.000192765
-0.00161001
-0.000189184
-0.00172763
-0.000159193
-0.00188546
-8.96538e-05
-0.00208903
3.15504e-05
-0.0023247
0.000214381
-0.00261966
0.000472719
-0.00305702
0.00082318
-0.00372775
0.00126453
-0.00469888
0.00176855
-0.00608696
0.00218575
-0.00777441
0.0022027
-0.00730588
0.00110329
-0.00221932
0.00468843
0.00352574
0.00384537
0.00188164
0.00425992
-4.12777e-05
0.00427494
-0.000235809
0.00387931
-0.000229658
0.00325631
-0.00026342
0.00250951
-0.000250269
0.00170677
-0.000168743
0.000892945
-3.96726e-05
0.000114366
9.43343e-05
-0.000545507
0.00018478
-0.00102463
0.000202912
-0.00133434
0.000197459
-0.00151349
0.000173909
-0.00162327
0.000130883
-0.00170064
8.70286e-05
-0.00176445
4.82824e-05
-0.00182514
1.68717e-05
-0.00188708
-8.3435e-06
-0.00195173
-3.07349e-05
-0.00201998
-5.06234e-05
-0.00209383
-6.72337e-05
-0.00217666
-7.92655e-05
-0.00227037
-8.73199e-05
-0.00237602
-8.71156e-05
-0.00249255
-7.26583e-05
-0.00261588
-3.58562e-05
-0.0027385
3.29664e-05
-0.00284819
0.000141242
-0.00294174
0.00030793
-0.0030271
0.000558078
-0.00310992
0.000906004
-0.00318618
0.00134079
-0.00321104
0.00179341
-0.00313281
0.00210753
-0.00277429
0.00184419
-0.00151141
-0.000159597
-0.00365856
-0.000549859
0.00413971
0.000293005
0.00103877
-5.23379e-05
0.00030406
-0.000386043
9.78958e-05
-0.00068632
7.06207e-05
-0.00103247
8.27352e-05
-0.00139963
0.000116891
-0.0017325
0.000164127
-0.00198154
0.000209373
-0.00213036
0.000243159
-0.00220171
0.000256132
-0.00223493
0.000236128
-0.00224004
0.000202574
-0.00223269
0.000166563
-0.00223285
0.000131042
-0.0022462
0.000100373
-0.00227272
7.48041e-05
-0.00230962
5.37747e-05
-0.00235484
3.68794e-05
-0.00240884
2.32657e-05
-0.00247033
1.08706e-05
-0.00253702
-5.44804e-07
-0.00260645
-9.82957e-06
-0.00267703
-1.67396e-05
-0.00274462
-1.95273e-05
-0.00280221
-1.5064e-05
-0.00283877
7.06605e-07
-0.00284371
3.79036e-05
-0.0028073
0.000104828
-0.00270795
0.000208582
-0.00251436
0.00036449
-0.00219974
0.000591383
-0.00174498
0.000886042
-0.00112231
0.00117074
-0.000160603
0.00114582
0.00114144
0.000542145
0.00158384
-0.000602002
-0.00199566
-0.00723515
-0.010129
-0.00594658
-0.0048877
-0.00457227
-0.00446725
-0.00439215
-0.00430694
-0.00418919
-0.00402559
-0.00381797
-0.00357771
-0.00332559
-0.00309452
-0.00289791
-0.00273803
-0.00261425
-0.00252156
-0.00245478
-0.00240928
-0.00238086
-0.00236618
-0.00236397
-0.00237319
-0.00239168
-0.002417
-0.00244499
-0.00246836
-0.00247575
-0.00244572
-0.00234849
-0.00214724
-0.00178981
-0.00120521
-0.000325705
0.000838703
0.00197816
0.0025137
0.00190472
)
;

boundaryField
{
    floor
    {
        type            calculated;
        value           nonuniform List<scalar> 
29
(
0
0
0
0
0
0
0
0
0
0
0
0
0
0
0
0
0
0
0
0
-3.61745e-06
-9.29773e-06
-1.41746e-05
-1.85976e-05
-1.4264e-06
-2.68302e-06
-7.60977e-06
-7.94074e-06
-7.23939e-06
)
;
    }
    ceiling
    {
        type            calculated;
        value           nonuniform List<scalar> 
43
(
-4.53937e-05
-4.40713e-05
-4.27599e-05
-2.01012e-05
-1.13734e-05
-7.12215e-06
-4.47516e-06
-2.47361e-06
-8.5044e-07
5.26169e-07
1.75288e-06
2.90015e-06
4.01353e-06
5.05917e-06
5.96374e-06
6.69222e-06
7.25774e-06
7.6919e-06
8.02364e-06
8.27386e-06
8.45746e-06
8.58499e-06
8.66156e-06
8.68567e-06
8.65523e-06
8.58088e-06
8.46383e-06
8.30547e-06
8.10683e-06
7.86722e-06
7.6058e-06
7.33264e-06
7.05559e-06
6.78503e-06
6.53994e-06
6.33493e-06
6.36684e-06
6.59889e-06
6.98273e-06
8.2016e-06
1.11653e-05
8.1033e-06
-6.41147e-05
)
;
    }
    sWall
    {
        type            calculated;
        value           uniform -0.000274645;
    }
    nWall
    {
        type            calculated;
        value           nonuniform List<scalar> 6(-4.72349e-05 -5.66383e-05 -6.14164e-05 -7.2162e-05 -7.90535e-05 -9.91395e-05);
    }
    sideWalls
    {
        type            empty;
        value           nonuniform 0();
    }
    glass1
    {
        type            calculated;
        value           nonuniform List<scalar> 9(-5.62677e-05 -0.000151463 -0.000231586 -0.000299769 -0.000357638 -0.000406438 -0.000450591 -0.000504123 -0.000564034);
    }
    glass2
    {
        type            calculated;
        value           nonuniform List<scalar> 2(-0.000249667 -0.000276223);
    }
    sun
    {
        type            calculated;
        value           uniform 0;
    }
    heatsource1
    {
        type            calculated;
        value           nonuniform List<scalar> 3(2.03959e-07 2.03917e-07 2.03934e-07);
    }
    heatsource2
    {
        type            calculated;
        value           nonuniform List<scalar> 4(5.10887e-08 5.12136e-08 0 0);
    }
    Table_master
    {
        type            calculated;
        value           nonuniform List<scalar> 9(-1.52968e-07 -1.53047e-07 -1.53075e-07 -1.53094e-07 -1.53108e-07 -1.53117e-07 -1.5312e-07 -1.53114e-07 -1.53081e-07);
    }
    Table_slave
    {
        type            calculated;
        value           nonuniform List<scalar> 9(1.52847e-07 1.52872e-07 1.52855e-07 1.52841e-07 1.52837e-07 1.52841e-07 1.52857e-07 1.52899e-07 1.52979e-07);
    }
    inlet
    {
        type            calculated;
        value           uniform -0.00617201;
    }
    outlet
    {
        type            calculated;
        value           nonuniform List<scalar> 2(0.00755519 0.00293797);
    }
}


// ************************************************************************* //
