// -*- C++ -*-
// File generated by PyFoam - sorry for the ugliness

FoamFile
{
 version 2.0;
 format ascii;
 class volScalarField;
 location "1100";
 object T;
}

dimensions [ 0 0 0 1 0 0 0 ];

internalField nonuniform List<scalar> 459
(
  303.282
  303.016
  303.005
  303.003
  303.002
  302.999
  302.996
  302.992
  302.985
  302.976
  302.964
  302.953
  302.943
  302.936
  302.935
  302.969
  302.959
  302.96
  302.962
  302.963
  302.964
  302.963
  302.962
  302.96
  302.958
  302.957
  302.955
  302.953
  302.951
  302.949
  302.947
  302.945
  302.944
  302.958
  303.462
  303.059
  303.037
  303.042
  303.048
  303.051
  303.052
  303.048
  303.037
  303.018
  302.994
  302.97
  302.951
  302.936
  302.925
  302.91
  302.874
  302.968
  302.958
  302.96
  302.963
  302.965
  302.966
  302.962
  302.958
  302.953
  302.948
  302.943
  302.937
  302.932
  302.927
  302.923
  302.92
  302.918
  302.917
  302.942
  303.649
  303.11
  303.071
  303.084
  303.101
  303.114
  303.123
  303.122
  303.105
  303.072
  303.031
  302.993
  302.963
  302.943
  302.933
  302.926
  302.915
  302.962
  302.963
  302.969
  302.976
  302.982
  302.986
  302.98
  302.974
  302.967
  302.96
  302.954
  302.947
  302.94
  302.933
  302.927
  302.923
  302.918
  302.914
  302.936
  303.837
  303.172
  303.106
  303.124
  303.154
  303.183
  303.206
  303.21
  303.186
  303.134
  303.069
  303.012
  302.971
  302.946
  302.937
  302.935
  302.937
  302.947
  302.956
  302.971
  302.985
  302.999
  303.01
  303.019
  303.027
  303.035
  303.043
  303.05
  303.055
  303.059
  303.061
  303.062
  303.061
  303.013
  302.968
  302.936
  302.94
  304.019
  303.251
  303.145
  303.157
  303.197
  303.244
  303.287
  303.297
  303.259
  303.185
  303.095
  303.022
  302.972
  302.945
  302.937
  302.941
  302.95
  302.963
  302.979
  302.998
  303.017
  303.034
  303.048
  303.061
  303.073
  303.084
  303.093
  303.101
  303.106
  303.107
  303.105
  303.099
  303.089
  303.058
  303.011
  302.963
  302.945
  303.031
  303.074
  303.082
  304.183
  303.354
  303.216
  303.203
  303.239
  303.297
  303.36
  303.36
  303.3
  303.204
  303.101
  303.016
  302.961
  302.936
  302.933
  302.946
  302.965
  302.987
  303.01
  303.034
  303.056
  303.075
  303.091
  303.104
  303.116
  303.126
  303.135
  303.141
  303.144
  303.143
  303.137
  303.127
  303.112
  303.087
  303.046
  302.997
  302.966
  302.992
  303.008
  303.042
  304.333
  303.519
  303.38
  303.344
  303.358
  303.405
  303.437
  303.398
  303.3
  303.177
  303.062
  302.976
  302.929
  302.916
  302.929
  302.957
  302.99
  303.022
  303.053
  303.079
  303.101
  303.12
  303.134
  303.146
  303.156
  303.164
  303.169
  303.172
  303.172
  303.169
  303.161
  303.148
  303.131
  303.108
  303.075
  303.035
  303.004
  303.004
  303.01
  303.037
  304.552
  303.942
  303.789
  303.693
  303.643
  303.615
  303.528
  303.384
  303.217
  303.065
  302.952
  302.889
  302.874
  302.893
  302.933
  302.984
  303.033
  303.074
  303.106
  303.129
  303.147
  303.162
  303.173
  303.181
  303.187
  303.191
  303.192
  303.192
  303.189
  303.184
  303.177
  303.165
  303.149
  303.13
  303.106
  303.08
  303.065
  303.075
  303.088
  303.208
  304.866
  304.58
  304.321
  304.089
  303.885
  303.664
  303.373
  303.098
  302.894
  302.779
  302.742
  302.764
  302.826
  302.9
  302.974
  303.05
  303.102
  303.135
  303.157
  303.174
  303.186
  303.195
  303.202
  303.206
  303.208
  303.208
  303.207
  303.205
  303.201
  303.198
  303.195
  303.193
  303.194
  303.198
  303.209
  303.229
  303.258
  303.288
  303.308
  303.362
  296.531
  298.577
  299.791
  300.421
  300.988
  301.492
  301.919
  302.261
  302.524
  302.731
  302.906
  303.018
  303.088
  303.135
  303.166
  303.186
  303.199
  303.209
  303.215
  303.219
  303.222
  303.223
  303.223
  303.222
  303.221
  303.22
  303.22
  303.22
  303.22
  303.222
  303.225
  303.232
  303.244
  303.261
  303.283
  303.304
  303.322
  303.345
  297.189
  299.01
  300.34
  301.181
  301.713
  302.116
  302.432
  302.672
  302.848
  302.973
  303.065
  303.127
  303.167
  303.193
  303.21
  303.221
  303.228
  303.232
  303.235
  303.235
  303.235
  303.235
  303.235
  303.234
  303.234
  303.234
  303.234
  303.234
  303.235
  303.237
  303.24
  303.245
  303.253
  303.265
  303.28
  303.297
  303.296
  303.326
  301.451
  299.702
  299.525
  301.233
  302.035
  302.424
  302.655
  302.818
  302.941
  303.032
  303.1
  303.149
  303.185
  303.209
  303.225
  303.235
  303.24
  303.244
  303.245
  303.246
  303.246
  303.245
  303.244
  303.244
  303.243
  303.243
  303.242
  303.242
  303.242
  303.243
  303.243
  303.244
  303.245
  303.248
  303.252
  303.263
  303.27
  303.276
  303.278
  303.316
)
;

boundaryField
{
  floor
  {
    type wallHeatTransfer;
    Tinf uniform 305.2;
    alphaWall uniform 0.24;
    value nonuniform List<scalar> 29
(
  303.158
  303.403
  303.343
  303.317
  303.321
  303.332
  303.344
  303.361
  303.378
  303.395
  303.412
  303.428
  303.443
  303.457
  303.471
  303.484
  303.498
  303.513
  303.516
  303.551
  303.551
  303.43
  303.374
  303.348
  303.158
  303.403
  303.377
  303.214
  303.141
)
;
  }
  ceiling
  {
    type wallHeatTransfer;
    Tinf uniform 303.2;
    alphaWall uniform 0.24;
    value nonuniform List<scalar> 43
(
  301.566
  299.93
  299.76
  301.353
  302.109
  302.476
  302.693
  302.846
  302.96
  303.046
  303.109
  303.154
  303.187
  303.208
  303.221
  303.229
  303.234
  303.236
  303.237
  303.238
  303.237
  303.237
  303.237
  303.236
  303.236
  303.236
  303.236
  303.236
  303.236
  303.237
  303.237
  303.239
  303.24
  303.243
  303.247
  303.257
  303.264
  303.268
  303.27
  303.304
  304.79
  304.525
  297.565
)
;
  }
  sWall
  {
    type wallHeatTransfer;
    Tinf uniform 315.2;
    alphaWall uniform 0.36;
    value uniform 302.768;
  }
  nWall
  {
    type wallHeatTransfer;
    Tinf uniform 307.2;
    alphaWall uniform 0.36;
    value nonuniform List<scalar> 6
(
  303.823
  303.764
  303.677
  303.888
  303.867
  303.922
)
;
  }
  sideWalls
  {
    type empty;
  }
  glass1
  {
    type wallHeatTransfer;
    Tinf uniform 315.2;
    alphaWall uniform 4.3;
    value nonuniform List<scalar> 9
(
  311.442
  310.775
  310.358
  310.041
  309.78
  309.546
  309.372
  309.446
  309.678
)
;
  }
  glass2
  {
    type wallHeatTransfer;
    Tinf uniform 307.2;
    alphaWall uniform 4.3;
    value nonuniform List<scalar> 2
(
  305.634
  305.757
)
;
  }
  sun
  {
    type wallHeatTransfer;
    Tinf uniform 305.2;
    alphaWall uniform 0.24;
    value nonuniform List<scalar> 14
(
  303.485
  303.233
  303.22
  303.212
  303.204
  303.196
  303.188
  303.179
  303.17
  303.159
  303.15
  303.144
  303.142
  303.147
)
;
  }
  heatsource1
  {
    type fixedGradient;
    gradient uniform 0;
  }
  heatsource2
  {
    type fixedGradient;
    gradient uniform 0;
  }
  Table_master
  {
    type zeroGradient;
  }
  Table_slave
  {
    type zeroGradient;
  }
  inlet
  {
    type fixedValue;
    value uniform 293.15;
  }
  outlet
  {
    type zeroGradient;
  }
} 	// ************************************************************************* //

