/*--------------------------------*- C++ -*----------------------------------*\
  =========                 |
  \\      /  F ield         | OpenFOAM: The Open Source CFD Toolbox
   \\    /   O peration     | Website:  https://openfoam.org
    \\  /    A nd           | Version:  6
     \\/     M anipulation  |
\*---------------------------------------------------------------------------*/
FoamFile
{
    version     2.0;
    format      ascii;
    class       volScalarField;
    location    "400";
    object      epsilon;
}
// * * * * * * * * * * * * * * * * * * * * * * * * * * * * * * * * * * * * * //

dimensions      [0 2 -3 0 0 0 0];

internalField   nonuniform List<scalar> 
459
(
0.000367689
0.000468139
0.000483918
0.000552006
0.000619649
0.000686381
0.000754261
0.000827042
0.000890449
0.000928118
0.00092722
0.000879886
0.000789999
0.000677701
0.000569147
2.94026e-05
5.39564e-05
7.02351e-05
6.46505e-05
5.66353e-05
4.85185e-05
4.05183e-05
3.37128e-05
2.82241e-05
2.38357e-05
2.0312e-05
1.74817e-05
1.51687e-05
1.32408e-05
1.15898e-05
1.01099e-05
8.69282e-06
8.11685e-06
6.4248e-06
0.000985498
0.00150582
0.000442331
0.000420424
0.000434639
0.000458426
0.000493448
0.000544203
0.000602247
0.000650431
0.000670601
0.000650043
0.000588174
0.000504707
0.000456961
0.00058654
0.000171391
4.5884e-05
9.23006e-05
8.87864e-05
7.63499e-05
6.25925e-05
5.10157e-05
4.4321e-05
3.6257e-05
2.93139e-05
2.37475e-05
1.93686e-05
1.59626e-05
1.33004e-05
1.12285e-05
9.73614e-06
8.90053e-06
8.6495e-06
2.69779e-05
1.73048e-05
0.00186222
0.00390168
0.000576023
0.00040395
0.000412562
0.000450081
0.000506894
0.000584641
0.000672902
0.000745911
0.000780459
0.000765344
0.000702921
0.000612179
0.000525265
0.000478514
0.000533994
0.000340865
0.000211622
0.000145646
0.000105533
7.98108e-05
6.50949e-05
0.000113419
8.09964e-05
5.98703e-05
4.5705e-05
3.59115e-05
2.89425e-05
2.38613e-05
2.0099e-05
1.73234e-05
1.3467e-05
1.15999e-05
5.17323e-05
2.85626e-05
0.0031037
0.00828159
0.000967602
0.000414563
0.000400787
0.000451643
0.000533655
0.000652011
0.000780614
0.000873425
0.000909555
0.000886288
0.000811199
0.000704745
0.000585352
0.000491607
0.000451726
0.000793484
0.000428354
0.000243421
0.000156352
0.000109488
8.21911e-05
7.01405e-05
0.000158834
0.000125867
0.000106697
9.42293e-05
8.43861e-05
7.47253e-05
6.60396e-05
5.73751e-05
4.78994e-05
2.91663e-05
1.96016e-05
8.69045e-05
3.9639e-05
0.00483952
0.0148546
0.00199063
0.000505283
0.000406076
0.000458334
0.000577244
0.000787664
0.000969312
0.00106664
0.00108599
0.00103811
0.000935212
0.000796311
0.000641118
0.000493583
0.000372319
0.000302681
0.000226877
0.000166175
0.000122351
9.28044e-05
7.38787e-05
6.35892e-05
6.40304e-05
6.27608e-05
6.13038e-05
5.94153e-05
5.64321e-05
5.19033e-05
4.6921e-05
4.21927e-05
3.79266e-05
3.12543e-05
2.46143e-05
6.01546e-05
4.6476e-05
7.73066e-05
0.000133957
0.000188361
0.0072637
0.0220031
0.00455483
0.00100212
0.000598039
0.000590021
0.000759827
0.00113558
0.00131661
0.00136668
0.00133562
0.00124506
0.0011035
0.000921712
0.000719994
0.000525973
0.000365849
0.00025601
0.000185874
0.000137636
0.000103367
8.10409e-05
6.82176e-05
6.27373e-05
6.30643e-05
6.58553e-05
6.88702e-05
7.07828e-05
7.04062e-05
6.6499e-05
5.85315e-05
4.98336e-05
4.19223e-05
3.4992e-05
3.06669e-05
4.37198e-05
4.6803e-05
5.8181e-05
0.000247762
0.000214538
0.0101558
0.0262334
0.00958264
0.0034431
0.00202962
0.00162282
0.00180088
0.00193616
0.00192228
0.00182765
0.0016932
0.00152451
0.00131608
0.00107135
0.000811059
0.000567241
0.000370397
0.00023807
0.000159529
0.000113904
8.65198e-05
7.17067e-05
6.58585e-05
6.63724e-05
7.13313e-05
7.85343e-05
8.6261e-05
9.35279e-05
9.91296e-05
0.000100992
9.54969e-05
8.29853e-05
7.08142e-05
6.09394e-05
5.71487e-05
6.5386e-05
8.52214e-05
0.000140235
0.000330526
0.00031656
0.0108477
0.0293043
0.0159803
0.0104823
0.00719124
0.00528675
0.00416663
0.00338206
0.00284221
0.00245907
0.00215364
0.00186416
0.00155469
0.0012192
0.000881742
0.000579405
0.000344195
0.000198926
0.000120712
8.74829e-05
7.20434e-05
6.64342e-05
6.72536e-05
7.2589e-05
8.1251e-05
9.23381e-05
0.000105376
0.000120369
0.000137402
0.000156201
0.000175403
0.00018684
0.000193492
0.000212843
0.000256275
0.000391469
0.000740732
0.00142806
0.00418588
0.00121087
0.0100504
0.0170302
0.0136796
0.0103348
0.00784532
0.00608997
0.00486526
0.00403548
0.0034603
0.00301767
0.00261513
0.00219843
0.00175108
0.00128599
0.000850725
0.00049189
0.000234867
0.000129405
8.50604e-05
6.7189e-05
6.10962e-05
6.15201e-05
6.6148e-05
7.39103e-05
8.43982e-05
9.76078e-05
0.000113951
0.00013433
0.000160194
0.000193646
0.00023756
0.000295613
0.000374523
0.000493176
0.000669109
0.000907297
0.00117691
0.00140706
0.00158209
0.000984355
0.00446416
0.00668209
0.00647004
0.00593266
0.00539041
0.00479434
0.00416748
0.00352246
0.00286332
0.00220511
0.0015705
0.000957311
0.000476457
0.00022963
0.000114432
7.01894e-05
5.34811e-05
4.80126e-05
4.80019e-05
5.11545e-05
5.65185e-05
6.37746e-05
7.29485e-05
8.43144e-05
9.8415e-05
0.000116143
0.000138878
0.000168714
0.000208838
0.000264676
0.000341705
0.0004473
0.000584985
0.000741065
0.000872507
0.000923209
0.000856647
0.000542408
0.00321643
0.00644489
0.00645835
0.00534449
0.00463615
0.00410129
0.00344309
0.00265409
0.00183043
0.00115512
0.000659932
0.000338718
0.000165142
8.46735e-05
5.08303e-05
3.87936e-05
3.57656e-05
3.67061e-05
3.96553e-05
4.40202e-05
4.9657e-05
5.66475e-05
6.52233e-05
7.57625e-05
8.88391e-05
0.000105324
0.000126541
0.000154502
0.000192154
0.000243118
0.000312404
0.000404978
0.000521246
0.000652966
0.000749515
0.000846232
0.000769057
0.000567829
0.00212232
0.00251113
0.00282418
0.00333324
0.00281095
0.00227934
0.0018533
0.00149085
0.00121014
0.00093713
0.000675206
0.000445921
0.00026845
0.000153919
9.11149e-05
6.07329e-05
4.74081e-05
4.2543e-05
4.20864e-05
4.41935e-05
4.80791e-05
5.32996e-05
5.97769e-05
6.76435e-05
7.71179e-05
8.85051e-05
0.000102223
0.000118868
0.000139352
0.000165185
0.000198042
0.000238871
0.000289951
0.000354246
0.000434817
0.000549773
0.000587054
0.000543571
0.000446629
0.000355569
)
;

boundaryField
{
    floor
    {
        Cmu             0.09;
        kappa           0.41;
        E               9.8;
        type            epsilonWallFunction;
        value           nonuniform List<scalar> 
29
(
0.000569147
2.94026e-05
5.39564e-05
7.02351e-05
6.46505e-05
5.66353e-05
4.85185e-05
4.05183e-05
3.37128e-05
2.82241e-05
2.38357e-05
2.0312e-05
1.74817e-05
1.51687e-05
1.32408e-05
1.15898e-05
1.01099e-05
8.69282e-06
8.11685e-06
6.4248e-06
6.4248e-06
1.73048e-05
2.85626e-05
3.9639e-05
0.000569147
2.94026e-05
4.5884e-05
0.000340865
0.000793484
)
;
    }
    ceiling
    {
        Cmu             0.09;
        kappa           0.41;
        E               9.8;
        type            epsilonWallFunction;
        value           nonuniform List<scalar> 
43
(
0.00212232
0.00251113
0.00282418
0.00333324
0.00281095
0.00227934
0.0018533
0.00149085
0.00121014
0.00093713
0.000675206
0.000445921
0.00026845
0.000153919
9.11149e-05
6.07329e-05
4.74081e-05
4.2543e-05
4.20864e-05
4.41935e-05
4.80791e-05
5.32996e-05
5.97769e-05
6.76435e-05
7.71179e-05
8.85051e-05
0.000102223
0.000118868
0.000139352
0.000165185
0.000198042
0.000238871
0.000289951
0.000354246
0.000434817
0.000549773
0.000587054
0.000543571
0.000446629
0.000355569
0.0100504
0.0170302
0.00321643
)
;
    }
    sWall
    {
        Cmu             0.09;
        kappa           0.41;
        E               9.8;
        type            epsilonWallFunction;
        value           uniform 0.00212232;
    }
    nWall
    {
        Cmu             0.09;
        kappa           0.41;
        E               9.8;
        type            epsilonWallFunction;
        value           nonuniform List<scalar> 6(0.000188361 0.000214538 0.00031656 0.000542408 0.000567829 0.000355569);
    }
    sideWalls
    {
        type            empty;
    }
    glass1
    {
        Cmu             0.09;
        kappa           0.41;
        E               9.8;
        type            epsilonWallFunction;
        value           nonuniform List<scalar> 9(0.000367689 0.000985498 0.00186222 0.0031037 0.00483952 0.0072637 0.0101558 0.0108477 0.0100504);
    }
    glass2
    {
        Cmu             0.09;
        kappa           0.41;
        E               9.8;
        type            epsilonWallFunction;
        value           nonuniform List<scalar> 2(0.00121087 0.000984355);
    }
    sun
    {
        Cmu             0.09;
        kappa           0.41;
        E               9.8;
        type            epsilonWallFunction;
        value           nonuniform List<scalar> 
14
(
0.000367689
0.000468139
0.000483918
0.000552006
0.000619649
0.000686381
0.000754261
0.000827042
0.000890449
0.000928118
0.00092722
0.000879886
0.000789999
0.000677701
)
;
    }
    heatsource1
    {
        Cmu             0.09;
        kappa           0.41;
        E               9.8;
        type            epsilonWallFunction;
        value           nonuniform List<scalar> 3(7.73066e-05 0.000133957 0.000188361);
    }
    heatsource2
    {
        Cmu             0.09;
        kappa           0.41;
        E               9.8;
        type            epsilonWallFunction;
        value           nonuniform List<scalar> 4(0.00058654 0.000171391 0.000171391 0.000533994);
    }
    Table_master
    {
        Cmu             0.09;
        kappa           0.41;
        E               9.8;
        type            epsilonWallFunction;
        value           nonuniform List<scalar> 9(0.000113419 8.09964e-05 5.98703e-05 4.5705e-05 3.59115e-05 2.89425e-05 2.38613e-05 2.0099e-05 1.73234e-05);
    }
    Table_slave
    {
        Cmu             0.09;
        kappa           0.41;
        E               9.8;
        type            epsilonWallFunction;
        value           nonuniform List<scalar> 9(0.000158834 0.000125867 0.000106697 9.42293e-05 8.43861e-05 7.47253e-05 6.60396e-05 5.73751e-05 4.78994e-05);
    }
    inlet
    {
        type            turbulentMixingLengthDissipationRateInlet;
        mixingLength    0.01;
        phi             phi;
        k               k;
        value           uniform 0.000101881;
    }
    outlet
    {
        type            zeroGradient;
    }
}


// ************************************************************************* //
