/*--------------------------------*- C++ -*----------------------------------*\
  =========                 |
  \\      /  F ield         | OpenFOAM: The Open Source CFD Toolbox
   \\    /   O peration     | Website:  https://openfoam.org
    \\  /    A nd           | Version:  6
     \\/     M anipulation  |
\*---------------------------------------------------------------------------*/
FoamFile
{
    version     2.0;
    format      ascii;
    class       surfaceScalarField;
    location    "400";
    object      phi;
}
// * * * * * * * * * * * * * * * * * * * * * * * * * * * * * * * * * * * * * //

dimensions      [1 0 -1 0 0 0 0];

internalField   nonuniform List<scalar> 
852
(
-0.0028932
0.00295095
-0.00383947
0.000946293
-0.00459325
0.000753805
-0.00521235
0.000619113
-0.00566705
0.000454727
-0.00593739
0.000270356
-0.00600086
6.34966e-05
-0.00583265
-0.000168194
-0.00541906
-0.000413569
-0.00477958
-0.000639457
-0.00396886
-0.000810698
-0.0030619
-0.000906941
-0.00212485
-0.000937031
-0.00115422
-0.000970606
-0.00115264
-0.000579192
0.000582315
-0.000158259
-0.000420913
0.000444481
-0.00060272
0.000855732
-0.000411231
0.00110545
-0.000249699
0.00124835
-0.000142877
0.00131886
-7.049e-05
0.00135078
-3.19e-05
0.00136576
-1.49571e-05
0.00137177
-5.99185e-06
0.0013716
1.85662e-07
0.00136605
5.57158e-06
0.0013529
1.31693e-05
0.00132406
2.8868e-05
0.00125832
6.57604e-05
0.00112115
0.000137187
0.000906061
0.000215111
0.000675288
0.000230794
0.00067955
-0.00206442
0.00517038
-0.00301884
0.00190073
-0.00380697
0.00154196
-0.0044177
0.00122986
-0.00486251
0.000899562
-0.00513427
0.000542135
-0.00521028
0.000139531
-0.00506357
-0.000314888
-0.00468595
-0.000791166
-0.00410821
-0.00121717
-0.00339476
-0.00152414
-0.00262324
-0.00167843
-0.00187294
-0.00168731
-0.00125728
-0.00158625
-0.00107613
-0.00133376
-0.000314134
-0.000762029
-0.000314164
0.000622529
-3.1744e-05
0.000962499
-0.000760863
0.00112915
-0.000769352
0.00129208
-0.000574145
0.00141077
-0.000368362
0.00147184
-0.000203928
0.00147597
-7.46058e-05
0.0014764
-3.23108e-05
0.00147781
-1.63484e-05
0.00147908
-7.24153e-06
0.00147969
-3.96021e-07
0.00147938
5.90267e-06
0.00147729
1.52781e-05
0.00146997
3.62093e-05
0.00142921
0.000106537
0.00125764
0.000308777
0.000964484
0.00050829
0.000606405
0.000588895
0.00129651
-0.0014534
0.00686014
-0.00229769
0.00274504
-0.00300188
0.00224617
-0.00352439
0.00175239
-0.00391302
0.00128821
-0.00416178
0.000790914
-0.00423709
0.000214866
-0.00409353
-0.000458426
-0.00372429
-0.00116039
-0.00317887
-0.00176256
-0.00253278
-0.0021702
-0.00186116
-0.00235004
-0.00123445
-0.00231399
-0.000722761
-0.00209792
-0.000365344
-0.00169116
-1.11922e-05
-0.00111616
-0.000325336
0.00131838
-0.00134123
0.00153618
-0.000978638
0.00152889
-0.00076204
0.00154068
-0.000585916
0.00156874
-0.000396407
0.00156701
-0.000202183
0.00149258
0.00146044
0.00144427
0.0014372
0.00143697
0.00144305
0.0014585
0.00149488
0.00160159
0.00131905
0.000591345
0.000975108
0.000852247
0.000541328
0.0010227
0.00185371
-0.00102698
0.00819221
-0.00171986
0.00343794
-0.0021903
0.00271664
-0.00253983
0.00210194
-0.0028104
0.0015588
-0.0029909
0.000971436
-0.00303203
0.000256021
-0.00285784
-0.000632593
-0.00247896
-0.00153925
-0.00197521
-0.00226629
-0.00142729
-0.0027181
-0.000895499
-0.00288181
-0.000422825
-0.00278664
-2.59147e-05
-0.00249481
0.000319377
-0.00203643
0.000691657
-0.00148842
0.00132082
-0.000954484
0.00205086
-0.000721535
0.00160576
-0.000896111
0.001527
-0.00089986
0.0014842
-0.000719223
0.00145167
-0.000553363
0.00145613
-0.000400853
0.00150406
-0.000250091
0.00163111
-0.000127185
0.00173739
-0.000106421
0.00183644
-9.91851e-05
0.00192256
-8.62601e-05
0.00197807
-5.56394e-05
0.00197621
1.7204e-06
0.00188848
8.75912e-05
0.00168239
0.000205949
0.00130458
0.000377676
0.00115435
0.000741588
0.000836793
0.00116983
0.000341795
0.00151771
0.00221617
-0.000728125
0.00928345
-0.00127716
0.00398699
-0.0013896
0.0028291
-0.00148811
0.00220046
-0.00157817
0.00164888
-0.00163223
0.00102552
-0.00157234
0.000196151
-0.00131183
-0.00089308
-0.000925953
-0.00192511
-0.000508182
-0.00268403
-0.000118635
-0.00310762
0.000209896
-0.00321031
0.000467131
-0.00304386
0.000661895
-0.00268955
0.000836261
-0.00221078
0.00103264
-0.00168478
0.00128654
-0.00120836
0.00147585
-0.000910828
0.00140599
-0.000826229
0.00126689
-0.000760746
0.00117289
-0.000625204
0.00111157
-0.000492025
0.00108994
-0.000379209
0.00111991
-0.000280044
0.0012079
-0.000215155
0.00129977
-0.000198274
0.00139589
-0.000195285
0.0014895
-0.000179857
0.00156667
-0.000132792
0.00160553
-3.7131e-05
0.00158269
0.000110451
0.0014856
0.000303045
0.0013183
0.000544992
0.00116266
0.000897247
0.000987598
0.0013449
0.00060557
0.00189976
0.000440627
0.00238113
-0.00103477
0.00147521
-0.00148893
0.000453976
-0.00143966
-0.000641155
0.0103366
-0.00103983
0.00438569
-0.000655273
0.00244455
-0.000388815
0.00193403
-0.000235808
0.00149589
-9.3899e-05
0.000883627
0.000174764
-7.24955e-05
0.000552157
-0.00127045
0.000894946
-0.00226788
0.00114947
-0.00293853
0.00130098
-0.00325911
0.00135861
-0.00326791
0.00134802
-0.00303325
0.00129331
-0.00263482
0.00122862
-0.00214607
0.00118335
-0.00163949
0.00116305
-0.00118805
0.00112054
-0.000868299
0.000995916
-0.000701587
0.000832151
-0.000596964
0.000704753
-0.000497789
0.000626385
-0.000413639
0.000597808
-0.000350616
0.000621865
-0.000304085
0.000688181
-0.000281455
0.000773549
-0.000283628
0.00086967
-0.000291391
0.00097234
-0.000282513
0.00107533
-0.000235764
0.00116646
-0.00012825
0.00122301
5.39104e-05
0.00123763
0.000288438
0.00122408
0.000558558
0.00123313
0.000888216
0.00131397
0.00126407
0.00147912
0.00173463
0.00190606
0.00195422
0.00215944
0.00122185
0.00177416
0.000839271
0.000393689
-0.000740272
0.0115326
-0.000665082
0.00431052
0.000384355
0.00139514
0.000989077
0.00132932
0.00137484
0.00111015
0.0018175
0.000440989
0.00230836
-0.000563341
0.00267597
-0.00163805
0.00286463
-0.00245651
0.00286774
-0.00294162
0.00271317
-0.00310451
0.00244487
-0.00299959
0.00211204
-0.0027004
0.00175741
-0.00228017
0.00141782
-0.00180646
0.00111952
-0.00134117
0.000868533
-0.000937042
0.000653728
-0.000653476
0.000447868
-0.00049571
0.000266448
-0.000415527
0.000134569
-0.000365892
5.64416e-05
-0.000335496
2.62905e-05
-0.000320449
3.90438e-05
-0.000316823
8.34583e-05
-0.000325855
0.000145464
-0.00034562
0.00021862
-0.000364534
0.000303997
-0.000367876
0.000406714
-0.000338468
0.000531901
-0.000253424
0.000669447
-8.36229e-05
0.0008034
0.000154497
0.000939789
0.000422182
0.00112359
0.00070443
0.0014058
0.000981878
0.00185334
0.0012871
0.00252211
0.00128547
0.00306559
0.000678383
0.00309652
0.00080836
0.00355415
0.00251113
0.00953073
0.00315256
0.00366911
0.00338142
0.0011663
0.0036862
0.00102456
0.0040284
0.000767963
0.00451884
-4.94365e-05
0.00496089
-0.00100537
0.0050939
-0.00177103
0.00491271
-0.0022753
0.0044846
-0.00251348
0.00389099
-0.00251088
0.0032115
-0.00232007
0.00251498
-0.00200385
0.00184995
-0.00161512
0.00125061
-0.00120711
0.000741997
-0.000832542
0.000329025
-0.000524053
1.79472e-05
-0.000342381
-0.000210702
-0.000267044
-0.000373526
-0.000252686
-0.000484772
-0.00025463
-0.000555943
-0.00026431
-0.000596505
-0.000279872
-0.000613157
-0.000300156
-0.000613816
-0.000325182
-0.000606672
-0.00035275
-0.000595006
-0.000376186
-0.000576177
-0.000386691
-0.000540635
-0.000373997
-0.000467817
-0.00032623
-0.000323148
-0.000228279
-0.000120501
-4.81363e-05
0.000113658
0.000188036
0.000397124
0.000420978
0.000742975
0.000636041
0.00119175
0.000838347
0.00166087
0.000816361
0.00183423
0.000505035
0.00106322
0.00157939
0.00488036
0.0100896
0.0137512
0.0123191
0.00259836
0.0112164
0.00212725
0.0104382
0.00154627
0.00973804
0.000650709
0.00884562
-0.000112918
0.00776942
-0.000694802
0.00660049
-0.00110634
0.00540574
-0.00131869
0.00423506
-0.00134017
0.00313405
-0.00121904
0.00214073
-0.00101051
0.00127004
-0.000744415
0.000528556
-0.000465607
-5.98144e-05
-0.000244157
-0.000470629
-0.000113222
-0.000725972
-8.70221e-05
-0.000893114
-9.98849e-05
-0.00101784
-0.000127944
-0.00111589
-0.000156568
-0.00119616
-0.000184025
-0.00126534
-0.000210676
-0.00132903
-0.000236448
-0.00139354
-0.00026066
-0.00146573
-0.000280544
-0.0015517
-0.000290201
-0.00165758
-0.000280801
-0.00179107
-0.000240489
-0.00196261
-0.000154683
-0.00218159
-9.28114e-06
-0.00243253
0.000202821
-0.00273827
0.000493791
-0.00319476
0.000877475
-0.00390524
0.00134654
-0.00493114
0.00186427
-0.00638369
0.00226893
-0.00812134
0.0022427
-0.00758156
0.00103963
-0.00240918
0.00480068
0.00388955
0.00429831
0.00262967
0.00504059
0.00080406
0.00519611
0.000495249
0.004893
0.000190254
0.00436348
-0.000165238
0.00367297
-0.000415797
0.00287557
-0.000521277
0.0020269
-0.000491481
0.00118822
-0.000380355
0.000402693
-0.000224967
-0.000285651
-5.60594e-05
-0.000809049
5.78055e-05
-0.00113979
8.66025e-05
-0.00132533
7.23347e-05
-0.00144588
3.35361e-05
-0.00154075
-5.00005e-06
-0.00162911
-3.95625e-05
-0.00171633
-6.9332e-05
-0.0018052
-9.51431e-05
-0.00189832
-0.000117545
-0.00199841
-0.000136344
-0.00210829
-0.000150762
-0.0022302
-0.000158617
-0.00236465
-0.000155738
-0.00250953
-0.000135905
-0.00265894
-9.10603e-05
-0.00280213
-1.14823e-05
-0.00292502
0.000113628
-0.00302402
0.00030183
-0.00311004
0.000579829
-0.00319345
0.000960897
-0.00327518
0.00142829
-0.00330703
0.00189613
-0.00322461
0.00218652
-0.00284198
0.00186009
-0.00156879
-0.000233547
-0.00390134
-0.000623012
0.00456901
0.00058542
0.00142128
0.000748351
0.000641164
0.00084667
0.000396959
0.000832607
0.000204336
0.000629415
3.79647e-05
0.00025793
-4.4306e-05
-0.000234306
-2.90413e-05
-0.000759335
3.35539e-05
-0.00122894
8.92559e-05
-0.00158525
0.000131362
-0.00179666
0.000155365
-0.00189226
0.000153419
-0.00193536
0.000129714
-0.00195967
9.66613e-05
-0.00198775
6.1633e-05
-0.00202369
3.09483e-05
-0.00206967
6.43613e-06
-0.002126
-1.29837e-05
-0.00219229
-2.88428e-05
-0.00226796
-4.18613e-05
-0.00235207
-5.22197e-05
-0.00244314
-5.96788e-05
-0.00253851
-6.32225e-05
-0.00263346
-6.07764e-05
-0.00272026
-4.90882e-05
-0.00278754
-2.37654e-05
-0.0028205
2.14893e-05
-0.00280425
9.73927e-05
-0.00271565
0.000213249
-0.00252074
0.000384933
-0.00219326
0.000633432
-0.0017233
0.000958342
-0.00109061
0.00126346
-0.000111821
0.00120775
0.00118264
0.000565646
0.00156495
-0.000615847
-0.00225223
-0.00752893
-0.0103491
-0.00573738
-0.00429309
-0.00363617
-0.00322741
-0.00301426
-0.00296986
-0.00300955
-0.0030354
-0.00299975
-0.00290927
-0.00277739
-0.00262213
-0.00246934
-0.00234067
-0.00224535
-0.00218526
-0.00215598
-0.00215129
-0.00216608
-0.00219676
-0.00224048
-0.00229458
-0.00235614
-0.00242124
-0.00248388
-0.00253482
-0.00256041
-0.00254071
-0.00244507
-0.00223353
-0.00185027
-0.00121849
-0.000261812
0.000999919
0.00220582
0.00276949
0.00215152
)
;

boundaryField
{
    floor
    {
        type            calculated;
        value           nonuniform List<scalar> 
29
(
0
0
0
0
0
0
0
0
0
0
0
0
0
0
0
0
0
0
0
0
-4.2392e-06
-1.0535e-05
-1.58415e-05
-2.06478e-05
-1.56449e-06
-3.1022e-06
-8.44966e-06
-8.88184e-06
-8.47643e-06
)
;
    }
    ceiling
    {
        type            calculated;
        value           nonuniform List<scalar> 
43
(
-4.53783e-05
-4.40527e-05
-4.27336e-05
-2.30038e-05
-1.57518e-05
-1.18011e-05
-8.81606e-06
-6.42125e-06
-4.60787e-06
-3.18289e-06
-2.07931e-06
-1.21938e-06
-4.99735e-07
1.18926e-07
6.41975e-07
1.05718e-06
1.3569e-06
1.55569e-06
1.68191e-06
1.76259e-06
1.81525e-06
1.85162e-06
1.87646e-06
1.89133e-06
1.89713e-06
1.89447e-06
1.88382e-06
1.86546e-06
1.83937e-06
1.80479e-06
1.76398e-06
1.72499e-06
1.69242e-06
1.67243e-06
1.67609e-06
1.74598e-06
1.86056e-06
1.99363e-06
2.14018e-06
3.0403e-06
1.05834e-05
7.52447e-06
-5.64271e-05
)
;
    }
    sWall
    {
        type            calculated;
        value           uniform -0.000271215;
    }
    nWall
    {
        type            calculated;
        value           nonuniform List<scalar> 6(-4.94537e-05 -5.91601e-05 -6.39154e-05 -7.66071e-05 -8.41445e-05 -0.000103735);
    }
    sideWalls
    {
        type            empty;
        value           nonuniform 0();
    }
    glass1
    {
        type            calculated;
        value           nonuniform List<scalar> 9(-5.77307e-05 -0.000154991 -0.000236337 -0.000305061 -0.0003631 -0.000411958 -0.000455717 -0.000509244 -0.00056939);
    }
    glass2
    {
        type            calculated;
        value           nonuniform List<scalar> 2(-0.000262975 -0.000292009);
    }
    sun
    {
        type            calculated;
        value           uniform 0;
    }
    heatsource1
    {
        type            calculated;
        value           nonuniform List<scalar> 3(2.04315e-07 2.04237e-07 2.04251e-07);
    }
    heatsource2
    {
        type            calculated;
        value           nonuniform List<scalar> 4(5.10955e-08 5.12401e-08 0 0);
    }
    Table_master
    {
        type            calculated;
        value           nonuniform List<scalar> 9(-1.53222e-07 -1.53283e-07 -1.53306e-07 -1.53322e-07 -1.53334e-07 -1.53341e-07 -1.53344e-07 -1.53339e-07 -1.5331e-07);
    }
    Table_slave
    {
        type            calculated;
        value           nonuniform List<scalar> 9(1.53116e-07 1.53122e-07 1.53093e-07 1.53067e-07 1.53052e-07 1.53057e-07 1.53065e-07 1.53104e-07 1.53185e-07);
    }
    inlet
    {
        type            calculated;
        value           uniform -0.00609185;
    }
    outlet
    {
        type            calculated;
        value           nonuniform List<scalar> 2(0.00784553 0.00286426);
    }
}


// ************************************************************************* //
