// -*- C++ -*-
// File generated by PyFoam - sorry for the ugliness

FoamFile
{
 version 2.0;
 format ascii;
 class volVectorField;
 location "400";
 object U;
}

dimensions [ 0 1 -1 0 0 0 0 ];

internalField nonuniform List<vector> 459
(
  (0.0406792 0.0837456 0)
  (-0.162627 0.0233389 0)
  (-0.183408 0.017319 0)
  (-0.213349 0.0128349 0)
  (-0.236551 0.00775278 0)
  (-0.252348 0.00237649 0)
  (-0.259642 -0.00339897 0)
  (-0.256902 -0.00965974 0)
  (-0.243642 -0.0163958 0)
  (-0.220273 -0.0228853 0)
  (-0.188465 -0.0282664 0)
  (-0.150678 -0.0321319 0)
  (-0.10968 -0.0350759 0)
  (-0.0712549 -0.0391639 0)
  (-0.0533531 -0.0457757 0)
  (0.00867661 0.00615501 0)
  (-0.0161851 -0.0189773 0)
  (0.00954597 -0.0250248 0)
  (0.0274272 -0.0174702 0)
  (0.0417047 -0.0112268 0)
  (0.0510746 -0.00696226 0)
  (0.0559176 -0.00421714 0)
  (0.0579605 -0.00280237 0)
  (0.0587122 -0.00215053 0)
  (0.0590003 -0.00181521 0)
  (0.0590731 -0.00160306 0)
  (0.0589519 -0.00142368 0)
  (0.0585696 -0.00119623 0)
  (0.0577265 -0.000762728 0)
  (0.0558867 0.000246238 0)
  (0.0519298 0.0023363 0)
  (0.0446645 0.0043247 0)
  (0.0398307 0.0050653 0)
  (-0.0195683 0.0192138 0)
  (0.218457 0.171959 0)
  (-0.154721 0.0618697 0)
  (-0.148128 0.0501081 0)
  (-0.179225 0.0408045 0)
  (-0.201951 0.0302859 0)
  (-0.217648 0.0186748 0)
  (-0.225358 0.00551689 0)
  (-0.223398 -0.0094161 0)
  (-0.211325 -0.0251748 0)
  (-0.189998 -0.0395279 0)
  (-0.161532 -0.0502335 0)
  (-0.128955 -0.056058 0)
  (-0.0957454 -0.057244 0)
  (-0.0666747 -0.0554553 0)
  (-0.0480529 -0.0503109 0)
  (-0.0321206 -0.028801 0)
  (-0.0104569 -0.000620552 0)
  (0.0805458 0.0223745 0)
  (0.0388811 -0.01817 0)
  (0.0414849 -0.0266468 0)
  (0.0511905 -0.0212743 0)
  (0.0584267 -0.0136033 0)
  (0.0625372 -0.00706121 0)
  (0.0638564 -0.00235136 0)
  (0.0637864 0.000145891 0)
  (0.0635783 0.00125727 0)
  (0.0635725 0.00180969 0)
  (0.0636462 0.00216989 0)
  (0.0636768 0.00246941 0)
  (0.0636417 0.00287923 0)
  (0.0634921 0.00372597 0)
  (0.0626951 0.00587642 0)
  (0.0588604 0.0119506 0)
  (0.0491807 0.0165506 0)
  (0.0463649 0.0182673 0)
  (-0.0561156 0.0421861 0)
  (0.380485 0.257608 0)
  (-0.175196 0.0997344 0)
  (-0.111471 0.0814701 0)
  (-0.142065 0.0641574 0)
  (-0.1619 0.0466875 0)
  (-0.176193 0.027872 0)
  (-0.183685 0.00653475 0)
  (-0.181649 -0.0176096 0)
  (-0.16948 -0.0427445 0)
  (-0.14888 -0.0648636 0)
  (-0.122617 -0.0803812 0)
  (-0.0938887 -0.0876931 0)
  (-0.0658262 -0.0870513 0)
  (-0.0413753 -0.0798469 0)
  (-0.0226932 -0.0657455 0)
  (-0.00789744 -0.0420584 0)
  (0.00912113 -0.0106395 0)
  (0.104151 -0.0527795 0)
  (0.065241 -0.0461692 0)
  (0.0614934 -0.0370612 0)
  (0.0648809 -0.0273366 0)
  (0.0670687 -0.0180495 0)
  (0.0678805 -0.0105369 0)
  (0.0664405 -0.00879429 0)
  (0.063817 -0.00656423 0)
  (0.0622502 -0.00539783 0)
  (0.0617516 -0.00475723 0)
  (0.0617282 -0.00436703 0)
  (0.0619129 -0.0040705 0)
  (0.062364 -0.00372769 0)
  (0.0635315 -0.0030343 0)
  (0.0665693 -0.000110637 0)
  (0.0645397 0.0168596 0)
  (0.0507942 0.0281845 0)
  (0.0543571 0.0343504 0)
  (-0.08727 0.0664969 0)
  (0.524757 0.32668 0)
  (-0.212584 0.134178 0)
  (-0.0725876 0.108052 0)
  (-0.102524 0.0837323 0)
  (-0.116582 0.0615418 0)
  (-0.127226 0.0375517 0)
  (-0.132974 0.00912871 0)
  (-0.128892 -0.0244386 0)
  (-0.115234 -0.0592158 0)
  (-0.0952582 -0.0883495 0)
  (-0.0722807 -0.10735 0)
  (-0.0489934 -0.115 0)
  (-0.0276583 -0.112155 0)
  (-0.00940793 -0.100929 0)
  (0.00626746 -0.0815075 0)
  (0.0207667 -0.056988 0)
  (0.0419023 -0.031878 0)
  (0.0721436 -0.00560042 0)
  (0.0824488 -0.0375962 0)
  (0.0697273 -0.0389691 0)
  (0.0635569 -0.0317744 0)
  (0.0623067 -0.0244926 0)
  (0.0622258 -0.017155 0)
  (0.0634265 -0.00898891 0)
  (0.0669888 -0.00583814 0)
  (0.0722012 -0.00536634 0)
  (0.0769657 -0.00507997 0)
  (0.0810016 -0.00468512 0)
  (0.084112 -0.00391516 0)
  (0.0856132 -0.00256864 0)
  (0.0840187 -0.000432559 0)
  (0.0780955 0.00272006 0)
  (0.0652892 0.00739411 0)
  (0.0533459 0.0275148 0)
  (0.0409726 0.0437887 0)
  (0.0584093 0.0554668 0)
  (-0.122923 0.088511 0)
  (0.647549 0.380659 0)
  (-0.255732 0.163323 0)
  (-0.03402 0.123293 0)
  (-0.061139 0.094947 0)
  (-0.0671855 0.0702601 0)
  (-0.0716841 0.0432992 0)
  (-0.0733476 0.00956687 0)
  (-0.062816 -0.0328652 0)
  (-0.0467829 -0.075834 0)
  (-0.0289065 -0.109047 0)
  (-0.0118051 -0.128587 0)
  (0.00332297 -0.134419 0)
  (0.0152396 -0.128356 0)
  (0.0243873 -0.114039 0)
  (0.0318231 -0.0938271 0)
  (0.0393103 -0.0707328 0)
  (0.0492651 -0.0494214 0)
  (0.0601858 -0.0381932 0)
  (0.0634394 -0.0410599 0)
  (0.0584186 -0.0368174 0)
  (0.0522756 -0.0295162 0)
  (0.0485901 -0.022851 0)
  (0.0468948 -0.0169844 0)
  (0.0472399 -0.0116576 0)
  (0.0496723 -0.00799165 0)
  (0.0537372 -0.00653634 0)
  (0.0579654 -0.00598444 0)
  (0.0620824 -0.00518571 0)
  (0.0658222 -0.00332716 0)
  (0.06857 0.000205152 0)
  (0.0692787 0.00541205 0)
  (0.0669979 0.0122396 0)
  (0.0612575 0.0212204 0)
  (0.0539039 0.0369897 0)
  (0.0429475 0.0553565 0)
  (0.0660698 0.0751101 0)
  (-0.0254445 0.10168 0)
  (0.0445436 0.0277456 0)
  (-0.0645183 -0.0357031 0)
  (-0.274373 -0.0584618 0)
  (0.734609 0.426252 0)
  (-0.296001 0.183906 0)
  (-0.00505356 0.119551 0)
  (-0.0182807 0.0962685 0)
  (-0.0144575 0.0731383 0)
  (-0.0110106 0.0453531 0)
  (-0.00434379 0.00606004 0)
  (0.0182684 -0.0472748 0)
  (0.0345402 -0.0926875 0)
  (0.0468699 -0.124072 0)
  (0.054793 -0.140171 0)
  (0.0584551 -0.142468 0)
  (0.0587062 -0.133767 0)
  (0.0567081 -0.117426 0)
  (0.0536827 -0.0964985 0)
  (0.0510488 -0.0741773 0)
  (0.0498962 -0.0539688 0)
  (0.0494015 -0.0402238 0)
  (0.0461493 -0.0343369 0)
  (0.0395588 -0.0295727 0)
  (0.0327267 -0.0241728 0)
  (0.0280849 -0.019416 0)
  (0.0258212 -0.0155952 0)
  (0.0258602 -0.012496 0)
  (0.0278893 -0.010617 0)
  (0.0312808 -0.010318 0)
  (0.0352382 -0.0104524 0)
  (0.0395023 -0.00992441 0)
  (0.0439089 -0.00782786 0)
  (0.0481318 -0.00328846 0)
  (0.0519021 0.00404718 0)
  (0.0535679 0.0134745 0)
  (0.0535402 0.0248738 0)
  (0.0535069 0.0398443 0)
  (0.0515018 0.057912 0)
  (0.0745937 0.0807058 0)
  (0.0519408 0.096962 0)
  (0.0933281 0.0670306 0)
  (0.116973 0.0441355 0)
  (-0.132097 -0.00890432 0)
  (0.781629 0.467861 0)
  (-0.315139 0.17093 0)
  (0.0197385 0.0705597 0)
  (0.0386678 0.0756722 0)
  (0.051059 0.0657172 0)
  (0.0628077 0.0357368 0)
  (0.0886865 -0.0126023 0)
  (0.111082 -0.064443 0)
  (0.12348 -0.104845 0)
  (0.126644 -0.130039 0)
  (0.122208 -0.140375 0)
  (0.11202 -0.138123 0)
  (0.0982034 -0.126419 0)
  (0.0827882 -0.108552 0)
  (0.0674583 -0.0875851 0)
  (0.0535856 -0.0664069 0)
  (0.0419358 -0.0476175 0)
  (0.0324358 -0.0340281 0)
  (0.0235438 -0.0263503 0)
  (0.0150725 -0.0218356 0)
  (0.00811958 -0.0183728 0)
  (0.00358631 -0.0158653 0)
  (0.00134199 -0.0142508 0)
  (0.00109708 -0.0132971 0)
  (0.0024521 -0.013154 0)
  (0.0048186 -0.0138094 0)
  (0.00770725 -0.0145124 0)
  (0.0110224 -0.014463 0)
  (0.0148791 -0.0128287 0)
  (0.0194424 -0.00855897 0)
  (0.025574 -0.000558135 0)
  (0.0321988 0.0101924 0)
  (0.0377713 0.0220769 0)
  (0.0446703 0.0355658 0)
  (0.0520575 0.0504602 0)
  (0.0746593 0.0689092 0)
  (0.0873552 0.0753708 0)
  (0.119927 0.0516024 0)
  (0.159898 0.0432547 0)
  (-0.0344619 0.0938691 0)
  (0.884993 0.47267 0)
  (-0.0774192 0.151263 0)
  (0.102652 -0.00429306 0)
  (0.1648 -0.00889795 0)
  (0.171718 -0.00509767 0)
  (0.17962 -0.0301496 0)
  (0.207681 -0.0625301 0)
  (0.221979 -0.0914062 0)
  (0.219992 -0.11263 0)
  (0.2052 -0.12408 0)
  (0.181702 -0.125399 0)
  (0.153131 -0.117945 0)
  (0.122687 -0.104083 0)
  (0.0928785 -0.0862545 0)
  (0.0654342 -0.0668579 0)
  (0.0415467 -0.0482494 0)
  (0.021703 -0.0323076 0)
  (0.00663554 -0.0214402 0)
  (-0.00507769 -0.0159205 0)
  (-0.0131166 -0.0139105 0)
  (-0.0188995 -0.013026 0)
  (-0.0227415 -0.0127839 0)
  (-0.0250619 -0.0130239 0)
  (-0.0261964 -0.0136224 0)
  (-0.026478 -0.0145793 0)
  (-0.0262945 -0.0157932 0)
  (-0.0259147 -0.0169103 0)
  (-0.0253496 -0.01749 0)
  (-0.0243843 -0.0170304 0)
  (-0.022581 -0.0149316 0)
  (-0.0189004 -0.010472 0)
  (-0.0094646 -0.00286387 0)
  (0.000405076 0.00697293 0)
  (0.0113692 0.0161425 0)
  (0.0232881 0.0234058 0)
  (0.0436929 0.0306649 0)
  (0.0621187 0.0227163 0)
  (0.0810659 -0.00582628 0)
  (0.14013 0.0404012 0)
  (-0.419961 0.209006 0)
  (1.02862 0.42758 0)
  (0.491499 0.283097 0)
  (0.502695 0.195392 0)
  (0.512226 0.136516 0)
  (0.476167 0.0949189 0)
  (0.440138 0.0520784 0)
  (0.403014 0.00624105 0)
  (0.359179 -0.0341202 0)
  (0.310132 -0.0630909 0)
  (0.258409 -0.078847 0)
  (0.206807 -0.0825638 0)
  (0.157436 -0.0772357 0)
  (0.112054 -0.0662101 0)
  (0.071724 -0.051999 0)
  (0.0370724 -0.0367598 0)
  (0.00857437 -0.0227031 0)
  (-0.0139479 -0.012046 0)
  (-0.0268709 -0.00795164 0)
  (-0.0354227 -0.00717751 0)
  (-0.0414561 -0.00778128 0)
  (-0.04615 -0.00870622 0)
  (-0.0499186 -0.00975917 0)
  (-0.0530671 -0.0108991 0)
  (-0.0558517 -0.0121035 0)
  (-0.058541 -0.0133598 0)
  (-0.0614356 -0.0145629 0)
  (-0.0648113 -0.0154512 0)
  (-0.0689081 -0.015627 0)
  (-0.0740056 -0.0145446 0)
  (-0.0805164 -0.0114955 0)
  (-0.0889559 -0.00567263 0)
  (-0.0996363 0.00356069 0)
  (-0.109992 0.0154128 0)
  (-0.125096 0.0298541 0)
  (-0.149525 0.0468622 0)
  (-0.185756 0.0652185 0)
  (-0.237215 0.0807396 0)
  (-0.295372 0.0908764 0)
  (-0.364065 0.0957919 0)
  (-0.626174 0.0963399 0)
  (-0.195058 0.0304138 0)
  (0.143444 0.0612133 0)
  (0.237091 0.0387061 0)
  (0.230796 0.0112542 0)
  (0.215117 -0.0120422 0)
  (0.199314 -0.028008 0)
  (0.173895 -0.0372304 0)
  (0.141509 -0.0405092 0)
  (0.105515 -0.0385594 0)
  (0.0687892 -0.03277 0)
  (0.0339113 -0.0243786 0)
  (0.00129126 -0.0137329 0)
  (-0.0262004 -0.00389342 0)
  (-0.0437659 0.0010691 0)
  (-0.0542262 0.00230871 0)
  (-0.0600883 0.00135812 0)
  (-0.0644015 -0.000144488 0)
  (-0.0683053 -0.00180837 0)
  (-0.0720523 -0.00334552 0)
  (-0.0758045 -0.00470741 0)
  (-0.0796814 -0.00590308 0)
  (-0.0838029 -0.00692302 0)
  (-0.0882995 -0.0077177 0)
  (-0.0932915 -0.00815473 0)
  (-0.0988431 -0.00799411 0)
  (-0.104921 -0.0069019 0)
  (-0.111373 -0.0044797 0)
  (-0.117904 -0.000309329 0)
  (-0.123934 0.006004 0)
  (-0.128301 0.0149792 0)
  (-0.131688 0.0277746 0)
  (-0.134481 0.0446657 0)
  (-0.137688 0.0645726 0)
  (-0.14192 0.0836097 0)
  (-0.143959 0.0916583 0)
  (-0.126157 0.067861 0)
  (-0.0793937 -0.0276649 0)
  (-0.281826 -0.207411 0)
  (-0.0411037 0.214911 0)
  (0.0570577 0.105568 0)
  (0.0326731 0.0375211 0)
  (0.0334933 0.0212296 0)
  (0.0349298 0.0115286 0)
  (0.0314443 0.00126599 0)
  (0.0206929 -0.00626416 0)
  (0.00187015 -0.00815332 0)
  (-0.0215641 -0.00493354 0)
  (-0.0437618 -0.000570637 0)
  (-0.061954 0.00303258 0)
  (-0.0742884 0.00484237 0)
  (-0.0802891 0.00412288 0)
  (-0.0828157 0.00172307 0)
  (-0.083995 -0.00123309 0)
  (-0.0849964 -0.00420895 0)
  (-0.0863495 -0.00658128 0)
  (-0.0880545 -0.00824018 0)
  (-0.0902578 -0.00931068 0)
  (-0.0928961 -0.0100429 0)
  (-0.0959547 -0.0105748 0)
  (-0.0994081 -0.0109413 0)
  (-0.103212 -0.0111365 0)
  (-0.107287 -0.0110971 0)
  (-0.111479 -0.0106811 0)
  (-0.115526 -0.00965283 0)
  (-0.119025 -0.00766636 0)
  (-0.121409 -0.00423005 0)
  (-0.121938 0.00122431 0)
  (-0.119632 0.00926476 0)
  (-0.113013 0.0207892 0)
  (-0.100852 0.0365213 0)
  (-0.0830741 0.0559105 0)
  (-0.0607403 0.0745291 0)
  (-0.0369317 0.0850653 0)
  (0.00420173 0.068437 0)
  (0.143396 -0.00327536 0)
  (-0.208406 -0.118438 0)
  (-0.0697487 -0.331895 0)
  (-0.422304 -0.119365 0)
  (-0.308541 0.0808696 0)
  (-0.225231 -0.0202576 0)
  (-0.175346 -0.0412317 0)
  (-0.146988 -0.036141 0)
  (-0.133399 -0.0312084 0)
  (-0.128999 -0.0258969 0)
  (-0.128908 -0.0185025 0)
  (-0.130606 -0.010546 0)
  (-0.130386 -0.00340126 0)
  (-0.127563 0.00257303 0)
  (-0.122756 0.00781562 0)
  (-0.116418 0.0123656 0)
  (-0.10958 0.0160089 0)
  (-0.103397 0.018825 0)
  (-0.0985269 0.0210113 0)
  (-0.0951946 0.022584 0)
  (-0.0932961 0.0235101 0)
  (-0.092583 0.0237518 0)
  (-0.0928143 0.0233975 0)
  (-0.0938141 0.0227511 0)
  (-0.0954421 0.021994 0)
  (-0.0975826 0.0211887 0)
  (-0.100125 0.020383 0)
  (-0.102931 0.0196283 0)
  (-0.105798 0.0189879 0)
  (-0.108416 0.0185367 0)
  (-0.110323 0.0183595 0)
  (-0.110812 0.018563 0)
  (-0.108671 0.0195262 0)
  (-0.101869 0.0220213 0)
  (-0.0878612 0.0267927 0)
  (-0.0648304 0.0347188 0)
  (-0.0336996 0.0462646 0)
  (0.0171797 0.0613834 0)
  (0.062632 0.0622565 0)
  (0.106297 0.0461493 0)
  (0.165947 0.0150509 0)
  (-0.210274 -0.0427026 0)
)
;

boundaryField
{
  floor
  {
    type noSlip;
  }
  ceiling
  {
    type noSlip;
  }
  sWall
  {
    type noSlip;
  }
  nWall
  {
    type noSlip;
  }
  sideWalls
  {
    type empty;
  }
  glass1
  {
    type noSlip;
  }
  glass2
  {
    type noSlip;
  }
  sun
  {
    type noSlip;
  }
  heatsource1
  {
    type noSlip;
  }
  heatsource2
  {
    type noSlip;
  }
  Table_master
  {
    type noSlip;
  }
  Table_slave
  {
    type noSlip;
  }
  inlet
  {
    type fixedValue;
    value uniform (0.277164 -0.114805 0);
  }
  outlet
  {
    type zeroGradient;
  }
} 	// ************************************************************************* //

