/*--------------------------------*- C++ -*----------------------------------*\
  =========                 |
  \\      /  F ield         | OpenFOAM: The Open Source CFD Toolbox
   \\    /   O peration     | Website:  https://openfoam.org
    \\  /    A nd           | Version:  6
     \\/     M anipulation  |
\*---------------------------------------------------------------------------*/
FoamFile
{
    version     2.0;
    format      ascii;
    class       volScalarField;
    location    "700";
    object      epsilon;
}
// * * * * * * * * * * * * * * * * * * * * * * * * * * * * * * * * * * * * * //

dimensions      [0 2 -3 0 0 0 0];

internalField   nonuniform List<scalar> 
459
(
0.000111284
0.000123375
9.80668e-05
0.000108911
0.000121723
0.000134892
0.000148389
0.000162512
0.000177873
0.000194336
0.000209403
0.000221997
0.000231227
0.000236337
0.000234072
6.75684e-06
9.76684e-06
6.92594e-06
4.45209e-06
3.34691e-06
2.94243e-06
2.98674e-06
3.73185e-06
4.71513e-06
5.75599e-06
6.57868e-06
6.74519e-06
6.31578e-06
6.12839e-06
6.30871e-06
7.05428e-06
6.50157e-06
5.19964e-06
4.07066e-06
0.00052192
0.00113118
0.000124491
8.16754e-05
8.39808e-05
8.94433e-05
9.57966e-05
0.000103457
0.000113228
0.000125585
0.000139602
0.000155129
0.000171961
0.000189939
0.000214763
0.000298274
7.24205e-05
2.48181e-05
3.33687e-05
1.56931e-05
1.00689e-05
7.92285e-06
7.00921e-06
6.45421e-06
8.39727e-06
1.10832e-05
1.36835e-05
1.56022e-05
1.68107e-05
1.78078e-05
1.88996e-05
2.04206e-05
1.96408e-05
1.69992e-05
1.59928e-05
1.51197e-05
0.00133652
0.00385884
0.000315658
9.52675e-05
8.55492e-05
9.12271e-05
9.96428e-05
0.000109953
0.000122343
0.000137042
0.00015264
0.000168311
0.000183743
0.000199057
0.000216359
0.000248572
0.000342949
7.81955e-05
4.83626e-05
2.99628e-05
2.46392e-05
2.17273e-05
1.87265e-05
8.86399e-06
1.07017e-05
1.33497e-05
1.65267e-05
2.0561e-05
2.61898e-05
3.48693e-05
5.01837e-05
8.18965e-05
5.82762e-05
5.76907e-05
5.93424e-05
4.79124e-05
0.00268727
0.00867618
0.000824179
0.00013879
9.65321e-05
0.000101306
0.000112988
0.000127679
0.000144933
0.00016448
0.00018352
0.000200291
0.000215013
0.000228237
0.000239154
0.000246998
0.000258396
0.000301128
8.18773e-05
5.40973e-05
4.51025e-05
4.56601e-05
5.14058e-05
6.27598e-05
8.5242e-05
8.34461e-05
8.33796e-05
8.48703e-05
8.84994e-05
9.52351e-05
0.000106817
0.00012697
0.000166033
9.38301e-05
0.000106945
0.00013408
0.000148279
0.00461761
0.0150283
0.00197345
0.000267423
0.000127902
0.000122542
0.000136622
0.000157643
0.000183867
0.000213916
0.000239007
0.000257444
0.000272303
0.000286386
0.000297371
0.000296546
0.000272458
0.000213376
0.000134417
9.17382e-05
7.34366e-05
6.6569e-05
6.42774e-05
6.38325e-05
6.355e-05
6.23635e-05
6.2279e-05
6.36919e-05
6.70828e-05
7.31717e-05
8.29403e-05
9.74725e-05
0.000116987
0.000137035
0.000167873
0.000209737
0.0002779
0.000357781
0.000225013
0.0001429
0.00716381
0.0207587
0.00431396
0.000785498
0.000284191
0.000206001
0.000206751
0.000229839
0.000268185
0.000311227
0.000335619
0.000345002
0.000349649
0.000357918
0.000369799
0.000373692
0.000351366
0.000293977
0.000223252
0.000168249
0.000133923
0.000114354
0.000103555
9.73304e-05
9.29785e-05
8.96739e-05
8.78268e-05
8.77419e-05
8.99738e-05
9.55504e-05
0.00010609
0.000123734
0.000150502
0.000186954
0.000232901
0.000286431
0.000339236
0.000357551
0.000243104
0.000161369
0.0100591
0.0233116
0.00877704
0.00302687
0.00126774
0.00069213
0.000535033
0.000491394
0.000515511
0.000532971
0.000519286
0.000489009
0.000458515
0.000440109
0.000438114
0.000440733
0.000426264
0.000381677
0.000318848
0.000259412
0.000214358
0.000183888
0.000164568
0.000152441
0.000144301
0.0001386
0.000134897
0.000133187
0.000133979
0.000138593
0.0001495
0.000170341
0.000204728
0.00025355
0.000314476
0.000382761
0.000447528
0.000484754
0.000456038
0.000185796
0.0105169
0.0266207
0.0150621
0.0104398
0.00595716
0.00336723
0.00214041
0.0015381
0.00122096
0.00101821
0.000857039
0.000725775
0.000625076
0.000556215
0.000517711
0.000500599
0.000486574
0.000457004
0.000409761
0.000357273
0.000311043
0.000275627
0.000250903
0.000234517
0.000223723
0.000216634
0.000212024
0.000209368
0.000208853
0.000211796
0.000221464
0.000244012
0.000287751
0.000357425
0.000452393
0.000564674
0.000692514
0.000850226
0.00105977
0.00101128
0.00937553
0.0148376
0.0254379
0.0199175
0.0130216
0.00825603
0.00533167
0.00357871
0.00249416
0.00179238
0.00133651
0.00103637
0.000840255
0.000716257
0.000642689
0.000602102
0.000577104
0.000551929
0.000519196
0.000481365
0.000444612
0.000413758
0.000390635
0.00037484
0.000364943
0.000359092
0.000355662
0.000353462
0.000351927
0.000351535
0.000354752
0.000367818
0.000395031
0.000443428
0.00052341
0.000644356
0.000786067
0.000901271
0.00156882
0.00131301
0.0648816
0.0750172
0.0262028
0.0130022
0.00744686
0.0046551
0.00310914
0.00219019
0.0016222
0.00127693
0.00107449
0.000963267
0.000907189
0.000880344
0.000862803
0.000843012
0.000817802
0.000789625
0.000762898
0.000741726
0.000726798
0.000717908
0.000714856
0.000715463
0.000717565
0.000719302
0.000719362
0.000717331
0.000714609
0.000714545
0.000718604
0.000729645
0.000755019
0.000794757
0.000829247
0.000842968
0.000975764
0.00143586
0.0458136
0.0385205
0.0174103
0.00969331
0.00605656
0.00411361
0.0030206
0.00240514
0.0020805
0.00193388
0.00189849
0.00192625
0.00197768
0.00202235
0.00203469
0.00200902
0.00195669
0.00189498
0.00183835
0.00179446
0.00176647
0.00175324
0.00175051
0.0017539
0.00175883
0.00176094
0.00175633
0.00174194
0.00171608
0.0016785
0.00163694
0.00159279
0.00155167
0.00151505
0.00147153
0.00138456
0.00159469
0.00177813
0.00179381
0.00452553
0.0178359
0.0107355
0.00734219
0.00577533
0.00415804
0.00302675
0.00227553
0.0017781
0.00145526
0.00126385
0.0011631
0.0011225
0.00112059
0.00113998
0.00117111
0.00120063
0.00121996
0.00122727
0.00122488
0.00121668
0.00120595
0.00119508
0.00118551
0.00117748
0.0011707
0.00116447
0.0011579
0.00114994
0.00113943
0.00112491
0.00110324
0.00107844
0.00104774
0.00100501
0.000939882
0.000836923
0.000759195
0.000748802
)
;

boundaryField
{
    floor
    {
        Cmu             0.09;
        kappa           0.41;
        E               9.8;
        type            epsilonWallFunction;
        value           nonuniform List<scalar> 
29
(
0.000234072
6.75684e-06
9.76684e-06
6.92594e-06
4.45209e-06
3.34691e-06
2.94243e-06
2.98674e-06
3.73185e-06
4.71513e-06
5.75599e-06
6.57868e-06
6.74519e-06
6.31578e-06
6.12839e-06
6.30871e-06
7.05428e-06
6.50157e-06
5.19964e-06
4.07066e-06
4.07066e-06
1.51197e-05
4.79124e-05
0.000148279
0.000234072
6.75684e-06
2.48181e-05
7.81955e-05
0.000301128
)
;
    }
    ceiling
    {
        Cmu             0.09;
        kappa           0.41;
        E               9.8;
        type            epsilonWallFunction;
        value           nonuniform List<scalar> 
43
(
0.00179381
0.00452553
0.0178359
0.0107355
0.00734219
0.00577533
0.00415804
0.00302675
0.00227553
0.0017781
0.00145526
0.00126385
0.0011631
0.0011225
0.00112059
0.00113998
0.00117111
0.00120063
0.00121996
0.00122727
0.00122488
0.00121668
0.00120595
0.00119508
0.00118551
0.00117748
0.0011707
0.00116447
0.0011579
0.00114994
0.00113943
0.00112491
0.00110324
0.00107844
0.00104774
0.00100501
0.000939882
0.000836923
0.000759195
0.000748802
0.00937553
0.0148376
0.0458136
)
;
    }
    sWall
    {
        Cmu             0.09;
        kappa           0.41;
        E               9.8;
        type            epsilonWallFunction;
        value           uniform 0.00179381;
    }
    nWall
    {
        Cmu             0.09;
        kappa           0.41;
        E               9.8;
        type            epsilonWallFunction;
        value           nonuniform List<scalar> 6(0.0001429 0.000161369 0.000185796 0.00143586 0.00177813 0.000748802);
    }
    sideWalls
    {
        type            empty;
    }
    glass1
    {
        Cmu             0.09;
        kappa           0.41;
        E               9.8;
        type            epsilonWallFunction;
        value           nonuniform List<scalar> 9(0.000111284 0.00052192 0.00133652 0.00268727 0.00461761 0.00716381 0.0100591 0.0105169 0.00937553);
    }
    glass2
    {
        Cmu             0.09;
        kappa           0.41;
        E               9.8;
        type            epsilonWallFunction;
        value           nonuniform List<scalar> 2(0.00101128 0.00131301);
    }
    sun
    {
        Cmu             0.09;
        kappa           0.41;
        E               9.8;
        type            epsilonWallFunction;
        value           nonuniform List<scalar> 
14
(
0.000111284
0.000123375
9.80668e-05
0.000108911
0.000121723
0.000134892
0.000148389
0.000162512
0.000177873
0.000194336
0.000209403
0.000221997
0.000231227
0.000236337
)
;
    }
    heatsource1
    {
        Cmu             0.09;
        kappa           0.41;
        E               9.8;
        type            epsilonWallFunction;
        value           nonuniform List<scalar> 3(0.000357781 0.000225013 0.0001429);
    }
    heatsource2
    {
        Cmu             0.09;
        kappa           0.41;
        E               9.8;
        type            epsilonWallFunction;
        value           nonuniform List<scalar> 4(0.000298274 7.24205e-05 7.24205e-05 0.000342949);
    }
    Table_master
    {
        Cmu             0.09;
        kappa           0.41;
        E               9.8;
        type            epsilonWallFunction;
        value           nonuniform List<scalar> 9(8.86399e-06 1.07017e-05 1.33497e-05 1.65267e-05 2.0561e-05 2.61898e-05 3.48693e-05 5.01837e-05 8.18965e-05);
    }
    Table_slave
    {
        Cmu             0.09;
        kappa           0.41;
        E               9.8;
        type            epsilonWallFunction;
        value           nonuniform List<scalar> 9(8.5242e-05 8.34461e-05 8.33796e-05 8.48703e-05 8.84994e-05 9.52351e-05 0.000106817 0.00012697 0.000166033);
    }
    inlet
    {
        type            turbulentMixingLengthDissipationRateInlet;
        mixingLength    0.01;
        phi             phi;
        k               k;
        value           uniform 3.77337e-06;
    }
    outlet
    {
        type            zeroGradient;
    }
}


// ************************************************************************* //
