// -*- C++ -*-
// File generated by PyFoam - sorry for the ugliness

FoamFile
{
 version 2.0;
 format ascii;
 class volVectorField;
 location "300";
 object U;
}

dimensions [ 0 1 -1 0 0 0 0 ];

internalField nonuniform List<vector> 459
(
  (0.0321152 0.0858203 0)
  (-0.16694 0.0259395 0)
  (-0.191959 0.017742 0)
  (-0.222451 0.0119618 0)
  (-0.244201 0.00564435 0)
  (-0.256241 -0.00098813 0)
  (-0.257111 -0.00795672 0)
  (-0.245963 -0.0152241 0)
  (-0.223685 -0.0220912 0)
  (-0.192235 -0.0274485 0)
  (-0.155009 -0.0304753 0)
  (-0.115711 -0.0309574 0)
  (-0.0777436 -0.029344 0)
  (-0.0456477 -0.0271025 0)
  (-0.0323132 -0.0259953 0)
  (-0.00448228 0.00801648 0)
  (-0.0247697 -0.0170297 0)
  (-0.00192358 -0.0263215 0)
  (0.0200027 -0.0199307 0)
  (0.0357729 -0.0135761 0)
  (0.0478926 -0.00874885 0)
  (0.0552773 -0.00518832 0)
  (0.0590545 -0.00331585 0)
  (0.0607765 -0.00252877 0)
  (0.0616642 -0.00216517 0)
  (0.0622308 -0.0019341 0)
  (0.0625534 -0.001746 0)
  (0.0625666 -0.00151779 0)
  (0.0620667 -0.00107669 0)
  (0.060495 -4.3663e-05 0)
  (0.0566588 0.00211794 0)
  (0.0492561 0.00446439 0)
  (0.0415854 0.0065806 0)
  (-0.0101044 0.0205105 0)
  (0.203786 0.175327 0)
  (-0.154688 0.0680452 0)
  (-0.153756 0.0523192 0)
  (-0.184943 0.0402255 0)
  (-0.206282 0.0266286 0)
  (-0.218396 0.0115273 0)
  (-0.219752 -0.00522165 0)
  (-0.209424 -0.0228125 0)
  (-0.188877 -0.0387842 0)
  (-0.160428 -0.0506216 0)
  (-0.127588 -0.056731 0)
  (-0.0938213 -0.0569534 0)
  (-0.0622456 -0.0520466 0)
  (-0.0362416 -0.0436106 0)
  (-0.0198506 -0.0331459 0)
  (-0.00696506 -0.0151836 0)
  (-0.0060174 0.0164378 0)
  (0.0586672 0.033018 0)
  (0.0288316 -0.0193736 0)
  (0.0365578 -0.030982 0)
  (0.0475044 -0.0268314 0)
  (0.0561624 -0.0188833 0)
  (0.0621397 -0.0114316 0)
  (0.0646092 -0.00482189 0)
  (0.0650297 -0.00109654 0)
  (0.064958 0.000474615 0)
  (0.0650475 0.0011823 0)
  (0.065226 0.00161805 0)
  (0.0653557 0.0019874 0)
  (0.0653956 0.00246512 0)
  (0.0652924 0.00338028 0)
  (0.0645227 0.0056297 0)
  (0.0606867 0.0118502 0)
  (0.0510413 0.0171295 0)
  (0.0449771 0.0209925 0)
  (-0.0443523 0.0441819 0)
  (0.361065 0.261956 0)
  (-0.169671 0.107779 0)
  (-0.115024 0.0841834 0)
  (-0.144768 0.0628232 0)
  (-0.16345 0.040534 0)
  (-0.174291 0.0160893 0)
  (-0.174735 -0.01103 0)
  (-0.163446 -0.0390186 0)
  (-0.143115 -0.0634827 0)
  (-0.11674 -0.0805613 0)
  (-0.0879932 -0.0882865 0)
  (-0.05961 -0.0871406 0)
  (-0.0336627 -0.0784202 0)
  (-0.0122051 -0.0640049 0)
  (0.00370013 -0.0444692 0)
  (0.0148598 -0.0196388 0)
  (0.0209829 0.0148218 0)
  (0.106152 -0.0341986 0)
  (0.0732207 -0.0410374 0)
  (0.0689841 -0.0391109 0)
  (0.0709248 -0.0322389 0)
  (0.0723761 -0.023553 0)
  (0.0733722 -0.0161654 0)
  (0.0718388 -0.0130712 0)
  (0.0675315 -0.00925169 0)
  (0.0644843 -0.00718007 0)
  (0.0630996 -0.00600228 0)
  (0.0624894 -0.00525468 0)
  (0.0621708 -0.00473679 0)
  (0.0621581 -0.00425786 0)
  (0.0629197 -0.00344541 0)
  (0.065643 -0.000317648 0)
  (0.0635249 0.0168045 0)
  (0.050276 0.0287856 0)
  (0.0503328 0.0372379 0)
  (-0.0749408 0.0690126 0)
  (0.502763 0.331438 0)
  (-0.202254 0.142742 0)
  (-0.0746756 0.110939 0)
  (-0.102062 0.0816438 0)
  (-0.115119 0.0528927 0)
  (-0.121988 0.0205857 0)
  (-0.118113 -0.0168299 0)
  (-0.103494 -0.0554405 0)
  (-0.0829133 -0.0872494 0)
  (-0.0596009 -0.107837 0)
  (-0.0369017 -0.115668 0)
  (-0.0159815 -0.112639 0)
  (0.00270287 -0.100339 0)
  (0.0181084 -0.081566 0)
  (0.031218 -0.0585321 0)
  (0.0453502 -0.0323791 0)
  (0.0667708 -0.0045324 0)
  (0.0971982 0.00597565 0)
  (0.103569 -0.0291509 0)
  (0.0898293 -0.0365133 0)
  (0.0809215 -0.0337166 0)
  (0.0761815 -0.0282622 0)
  (0.0728445 -0.0213322 0)
  (0.0708953 -0.0130508 0)
  (0.0722457 -0.00766065 0)
  (0.076467 -0.00588365 0)
  (0.0799576 -0.00489482 0)
  (0.0822242 -0.00416701 0)
  (0.0835485 -0.00328872 0)
  (0.0834015 -0.00198069 0)
  (0.0807376 -1.36059e-05 0)
  (0.0742909 0.00291186 0)
  (0.0612489 0.00734144 0)
  (0.0500221 0.0273699 0)
  (0.0391285 0.0437682 0)
  (0.0532631 0.056816 0)
  (-0.107084 0.0911783 0)
  (0.624745 0.385118 0)
  (-0.242471 0.171096 0)
  (-0.0354709 0.125831 0)
  (-0.0575393 0.0918957 0)
  (-0.062387 0.0594014 0)
  (-0.0618215 0.0210562 0)
  (-0.0468756 -0.0263524 0)
  (-0.0274611 -0.0734715 0)
  (-0.00825851 -0.108597 0)
  (0.00921497 -0.129004 0)
  (0.0225708 -0.133984 0)
  (0.0331007 -0.127866 0)
  (0.041121 -0.113322 0)
  (0.0474799 -0.0930683 0)
  (0.0534009 -0.0697031 0)
  (0.0607797 -0.0460535 0)
  (0.0721901 -0.0276296 0)
  (0.0823865 -0.0251516 0)
  (0.083461 -0.0319283 0)
  (0.0767172 -0.0316887 0)
  (0.0684066 -0.0276727 0)
  (0.0617919 -0.0228072 0)
  (0.0568944 -0.0174888 0)
  (0.0539886 -0.0117306 0)
  (0.0536129 -0.00627061 0)
  (0.0554826 -0.00372023 0)
  (0.0576739 -0.00282537 0)
  (0.0598224 -0.00213121 0)
  (0.0618532 -0.000649541 0)
  (0.0633993 0.00218556 0)
  (0.0632918 0.00651491 0)
  (0.060917 0.0125142 0)
  (0.0555643 0.0208048 0)
  (0.0490206 0.0360522 0)
  (0.0398707 0.0540938 0)
  (0.0614826 0.0739804 0)
  (-0.0193154 0.102835 0)
  (0.045644 0.0328957 0)
  (-0.0607359 -0.0338173 0)
  (-0.269146 -0.0562308 0)
  (0.712875 0.429676 0)
  (-0.2816 0.189799 0)
  (-0.00598962 0.120738 0)
  (-0.0111738 0.0909406 0)
  (-0.0042093 0.0586343 0)
  (0.0101229 0.0115028 0)
  (0.0415432 -0.0461541 0)
  (0.0622486 -0.0924516 0)
  (0.0759423 -0.123268 0)
  (0.0830435 -0.138626 0)
  (0.0846602 -0.140293 0)
  (0.0825205 -0.131367 0)
  (0.078019 -0.114931 0)
  (0.0726636 -0.0940147 0)
  (0.0679188 -0.071361 0)
  (0.0650787 -0.0496858 0)
  (0.0649061 -0.03271 0)
  (0.064641 -0.0250279 0)
  (0.0606142 -0.0238575 0)
  (0.0529891 -0.0227347 0)
  (0.0446367 -0.0200172 0)
  (0.0377398 -0.0166786 0)
  (0.0327625 -0.013173 0)
  (0.0299451 -0.00959882 0)
  (0.0293893 -0.00663543 0)
  (0.0307126 -0.00560916 0)
  (0.0329577 -0.00560984 0)
  (0.0357588 -0.00540858 0)
  (0.0389547 -0.00399735 0)
  (0.0423439 -0.00049129 0)
  (0.0454066 0.00542044 0)
  (0.0471195 0.0134527 0)
  (0.0476536 0.0237641 0)
  (0.048373 0.0379406 0)
  (0.0477269 0.05544 0)
  (0.0700452 0.0777211 0)
  (0.0514978 0.0956257 0)
  (0.0915322 0.0670282 0)
  (0.114472 0.0441383 0)
  (-0.127507 -0.00675652 0)
  (0.767285 0.470269 0)
  (-0.300144 0.174874 0)
  (0.0228342 0.0679269 0)
  (0.051733 0.0604943 0)
  (0.0743763 0.0372395 0)
  (0.114614 -0.0172814 0)
  (0.144574 -0.0699848 0)
  (0.160526 -0.107555 0)
  (0.163949 -0.129271 0)
  (0.157292 -0.136982 0)
  (0.143485 -0.133161 0)
  (0.125504 -0.120787 0)
  (0.105908 -0.102892 0)
  (0.0868516 -0.0823259 0)
  (0.0699737 -0.0614011 0)
  (0.0562918 -0.0421819 0)
  (0.0461626 -0.0273113 0)
  (0.0382024 -0.0190247 0)
  (0.0303411 -0.0158921 0)
  (0.0221612 -0.0144426 0)
  (0.0146272 -0.0128354 0)
  (0.00867227 -0.0111212 0)
  (0.00455673 -0.00950252 0)
  (0.00238848 -0.00805935 0)
  (0.00212972 -0.00722058 0)
  (0.00335735 -0.00751068 0)
  (0.00544563 -0.00833948 0)
  (0.00815341 -0.00882065 0)
  (0.0115206 -0.00806361 0)
  (0.0156813 -0.00503956 0)
  (0.0215449 0.00126235 0)
  (0.0275156 0.0100272 0)
  (0.033249 0.0204196 0)
  (0.0405046 0.0329384 0)
  (0.0485005 0.0472142 0)
  (0.0704299 0.0651046 0)
  (0.084088 0.0727846 0)
  (0.116202 0.0508121 0)
  (0.15561 0.0432356 0)
  (-0.0348602 0.0924656 0)
  (0.872771 0.470894 0)
  (-0.0616195 0.15307 0)
  (0.112122 -0.0153736 0)
  (0.185687 -0.0490454 0)
  (0.226267 -0.0639337 0)
  (0.256369 -0.0858203 0)
  (0.270346 -0.105705 0)
  (0.266971 -0.118361 0)
  (0.24857 -0.122499 0)
  (0.219574 -0.118736 0)
  (0.184624 -0.108495 0)
  (0.147722 -0.0935238 0)
  (0.111987 -0.0758491 0)
  (0.0796836 -0.0575637 0)
  (0.0521612 -0.0402061 0)
  (0.0300962 -0.0250802 0)
  (0.0140929 -0.0143212 0)
  (0.00287568 -0.00889828 0)
  (-0.00557128 -0.0072862 0)
  (-0.012322 -0.00708362 0)
  (-0.0178971 -0.00700571 0)
  (-0.0221641 -0.00694928 0)
  (-0.0251253 -0.00701318 0)
  (-0.0268047 -0.00728894 0)
  (-0.0273424 -0.0079802 0)
  (-0.0271135 -0.00920073 0)
  (-0.0265287 -0.0106406 0)
  (-0.0257233 -0.011823 0)
  (-0.024551 -0.0122235 0)
  (-0.0226141 -0.0112348 0)
  (-0.0189442 -0.0081064 0)
  (-0.010463 -0.00215944 0)
  (-0.00170968 0.00570405 0)
  (0.00905141 0.0138293 0)
  (0.0207941 0.0206264 0)
  (0.0403439 0.0276235 0)
  (0.0588298 0.0208956 0)
  (0.0781221 -0.0055846 0)
  (0.136357 0.0397816 0)
  (-0.40787 0.203607 0)
  (1.02081 0.422866 0)
  (0.485398 0.279193 0)
  (0.500521 0.181147 0)
  (0.530302 0.10682 0)
  (0.510924 0.0516058 0)
  (0.465429 0.00337411 0)
  (0.413583 -0.0339031 0)
  (0.357076 -0.0572699 0)
  (0.29655 -0.0673033 0)
  (0.235177 -0.0669745 0)
  (0.176373 -0.0598379 0)
  (0.122762 -0.0486322 0)
  (0.0762132 -0.0355566 0)
  (0.0376494 -0.0226225 0)
  (0.00660507 -0.0112549 0)
  (-0.0165081 -0.00329542 0)
  (-0.0291787 -0.000382426 0)
  (-0.036908 -7.851e-05 0)
  (-0.0421034 -0.000976979 0)
  (-0.0462745 -0.00214093 0)
  (-0.0499007 -0.00319344 0)
  (-0.0529742 -0.00419444 0)
  (-0.0555426 -0.00522297 0)
  (-0.0576683 -0.00632709 0)
  (-0.0595479 -0.0075675 0)
  (-0.0615328 -0.00892008 0)
  (-0.0640116 -0.0101702 0)
  (-0.0673039 -0.0109389 0)
  (-0.0717315 -0.0106821 0)
  (-0.0777188 -0.00868471 0)
  (-0.0858022 -0.00410702 0)
  (-0.0959769 0.00363677 0)
  (-0.106557 0.0140848 0)
  (-0.121623 0.0273802 0)
  (-0.145241 0.0435534 0)
  (-0.179886 0.0614806 0)
  (-0.228757 0.0772644 0)
  (-0.28447 0.0882572 0)
  (-0.351808 0.0944895 0)
  (-0.609881 0.0967862 0)
  (-0.139367 -0.00206902 0)
  (0.115952 -0.0100471 0)
  (0.186635 -0.0455619 0)
  (0.175927 -0.0495933 0)
  (0.158993 -0.0428885 0)
  (0.135709 -0.0344532 0)
  (0.105427 -0.0255998 0)
  (0.0715662 -0.0164211 0)
  (0.035723 -0.00738749 0)
  (0.000501357 0.000646749 0)
  (-0.0280324 0.00629573 0)
  (-0.0473731 0.00943537 0)
  (-0.0598261 0.0107338 0)
  (-0.0665606 0.0102447 0)
  (-0.070589 0.00898272 0)
  (-0.0734941 0.00784249 0)
  (-0.0759675 0.00700044 0)
  (-0.0782888 0.00647895 0)
  (-0.0805544 0.00615367 0)
  (-0.0828974 0.00579193 0)
  (-0.0854148 0.00516463 0)
  (-0.0881195 0.00434262 0)
  (-0.0911317 0.00339001 0)
  (-0.0946086 0.00246378 0)
  (-0.0986658 0.00182398 0)
  (-0.103308 0.00181451 0)
  (-0.108454 0.00280722 0)
  (-0.113917 0.00513419 0)
  (-0.119087 0.00935239 0)
  (-0.123269 0.016321 0)
  (-0.126774 0.0271543 0)
  (-0.129789 0.0422221 0)
  (-0.133008 0.0606263 0)
  (-0.13685 0.0788653 0)
  (-0.138185 0.0875182 0)
  (-0.120083 0.0663798 0)
  (-0.0734193 -0.0238122 0)
  (-0.274202 -0.199567 0)
  (0.0271529 0.192489 0)
  (0.0372918 0.0662345 0)
  (-0.00171625 0.00263242 0)
  (-0.0197895 -0.00489207 0)
  (-0.0377965 -0.00109865 0)
  (-0.055211 0.00123065 0)
  (-0.0717496 0.00384809 0)
  (-0.0854329 0.00681996 0)
  (-0.093682 0.00847343 0)
  (-0.0986929 0.00792119 0)
  (-0.10119 0.00511563 0)
  (-0.101599 0.00113995 0)
  (-0.100732 -0.00309227 0)
  (-0.0993534 -0.00759067 0)
  (-0.0983379 -0.0123216 0)
  (-0.0980204 -0.0170166 0)
  (-0.0984141 -0.0214874 0)
  (-0.0993912 -0.0255061 0)
  (-0.100785 -0.0288554 0)
  (-0.102474 -0.0313863 0)
  (-0.104421 -0.0330051 0)
  (-0.106679 -0.0338043 0)
  (-0.109177 -0.0337325 0)
  (-0.111815 -0.0327132 0)
  (-0.114467 -0.0308649 0)
  (-0.116922 -0.0281103 0)
  (-0.118829 -0.0240488 0)
  (-0.119733 -0.0181487 0)
  (-0.119175 -0.0103963 0)
  (-0.116233 -0.000445362 0)
  (-0.10954 0.0124333 0)
  (-0.0978495 0.028881 0)
  (-0.0807811 0.0483189 0)
  (-0.0590753 0.0665649 0)
  (-0.0358248 0.0768565 0)
  (0.00496278 0.0600481 0)
  (0.142184 -0.00928869 0)
  (-0.204812 -0.109123 0)
  (-0.0444427 -0.32034 0)
  (-0.414241 -0.124204 0)
  (-0.30221 0.0622584 0)
  (-0.256447 -0.0167479 0)
  (-0.217626 -0.0204578 0)
  (-0.208502 -0.00947296 0)
  (-0.204609 6.204e-07 0)
  (-0.200576 0.00779342 0)
  (-0.194709 0.0150682 0)
  (-0.186439 0.0222625 0)
  (-0.175893 0.0293127 0)
  (-0.164038 0.0360355 0)
  (-0.152113 0.0423667 0)
  (-0.141175 0.0485737 0)
  (-0.131736 0.054819 0)
  (-0.123904 0.0611381 0)
  (-0.117588 0.0675881 0)
  (-0.112567 0.0740237 0)
  (-0.108623 0.0800821 0)
  (-0.105579 0.0853435 0)
  (-0.103291 0.0894607 0)
  (-0.101652 0.0922111 0)
  (-0.100577 0.0934888 0)
  (-0.100031 0.0933306 0)
  (-0.100004 0.0916988 0)
  (-0.100458 0.0886022 0)
  (-0.101265 0.0844805 0)
  (-0.102201 0.0796648 0)
  (-0.102885 0.0742417 0)
  (-0.102624 0.0684409 0)
  (-0.100156 0.0633912 0)
  (-0.0936085 0.0600023 0)
  (-0.0805984 0.0591832 0)
  (-0.0594323 0.0619141 0)
  (-0.030882 0.068682 0)
  (0.015722 0.0783684 0)
  (0.0573357 0.0786843 0)
  (0.0977176 0.0659448 0)
  (0.160983 0.0404117 0)
  (-0.229412 -0.00963004 0)
)
;

boundaryField
{
  floor
  {
    type noSlip;
  }
  ceiling
  {
    type noSlip;
  }
  sWall
  {
    type noSlip;
  }
  nWall
  {
    type noSlip;
  }
  sideWalls
  {
    type empty;
  }
  glass1
  {
    type noSlip;
  }
  glass2
  {
    type noSlip;
  }
  sun
  {
    type noSlip;
  }
  heatsource1
  {
    type noSlip;
  }
  heatsource2
  {
    type noSlip;
  }
  Table_master
  {
    type noSlip;
  }
  Table_slave
  {
    type noSlip;
  }
  inlet
  {
    type fixedValue;
    value uniform (0.277164 -0.114805 0);
  }
  outlet
  {
    type zeroGradient;
  }
} 	// ************************************************************************* //

