/*--------------------------------*- C++ -*----------------------------------*\
  =========                 |
  \\      /  F ield         | OpenFOAM: The Open Source CFD Toolbox
   \\    /   O peration     | Website:  https://openfoam.org
    \\  /    A nd           | Version:  6
     \\/     M anipulation  |
\*---------------------------------------------------------------------------*/
FoamFile
{
    version     2.0;
    format      ascii;
    class       volScalarField;
    location    "1500";
    object      alphat;
}
// * * * * * * * * * * * * * * * * * * * * * * * * * * * * * * * * * * * * * //

dimensions      [1 -1 -1 0 0 0 0];

internalField   nonuniform List<scalar> 
459
(
0.000915431
0.000962581
0.000944877
0.000973127
0.000997446
0.0010178
0.00103516
0.00105053
0.001065
0.00107716
0.0010829
0.00108089
0.00107146
0.00105788
0.00104234
0.000469119
0.000504127
0.000501729
0.000496078
0.00048964
0.000476402
0.0004491
0.000421863
0.00039683
0.000373723
0.000352603
0.000333479
0.000316322
0.00030109
0.000287693
0.000275708
0.000265574
0.000288923
0.000277495
0.00136304
0.00253902
0.00221067
0.0025659
0.00277848
0.00299387
0.00320009
0.0033769
0.00349436
0.00354888
0.0035428
0.00343653
0.00317397
0.00267688
0.00187373
0.00105921
0.000958287
0.000725856
0.00120384
0.00158073
0.00192432
0.00210244
0.00201004
0.00152374
0.00127261
0.0010872
0.000949555
0.000846099
0.000768329
0.000710441
0.000668342
0.000640151
0.000623411
0.000600561
0.000869456
0.000432499
0.00176058
0.00368994
0.00251097
0.00360654
0.00390955
0.00409558
0.00422542
0.00431425
0.00437054
0.00439986
0.00440412
0.00435209
0.00420027
0.00388409
0.00329662
0.00235623
0.00115852
0.000876369
0.00267392
0.00325265
0.00332207
0.00319742
0.00259969
0.000630215
0.000544822
0.000485808
0.000443937
0.000413114
0.000389641
0.000371304
0.000356843
0.000346061
0.00039977
0.00047624
0.00094139
0.000519417
0.00215986
0.005278
0.00248078
0.00395197
0.00440889
0.00451551
0.0045373
0.0045325
0.00453151
0.00454075
0.00456088
0.00457157
0.00455105
0.0044715
0.00424597
0.00364823
0.00240783
0.00114335
0.0033759
0.00383285
0.00388957
0.00373416
0.00347506
0.00279509
0.000662018
0.000635881
0.000633589
0.000638646
0.00064305
0.000640619
0.000625867
0.00060327
0.000576207
0.000559463
0.000572576
0.00107844
0.000587722
0.00256418
0.0073295
0.00295076
0.00372742
0.00455414
0.00465909
0.00461495
0.00454386
0.00450159
0.00449649
0.00453199
0.00458109
0.00462732
0.00467487
0.00472975
0.00477202
0.00471833
0.00441412
0.00430979
0.00408722
0.00382582
0.00358583
0.00340303
0.00320475
0.002808
0.00279125
0.0028306
0.00286218
0.00286106
0.00281052
0.00269487
0.00242886
0.00203344
0.00160334
0.00123269
0.00110423
0.000906391
0.000683188
0.000804631
0.000915063
0.00297845
0.00950742
0.00467627
0.00338515
0.00421978
0.00455723
0.00461137
0.00455199
0.00446529
0.0044255
0.00447473
0.00453827
0.00459351
0.00464423
0.00470923
0.00479987
0.00484643
0.0046943
0.00435969
0.00395996
0.00357224
0.00330304
0.0031885
0.00317081
0.00319141
0.00326624
0.00333671
0.00337755
0.00338067
0.00334192
0.00326057
0.00311945
0.00283227
0.00241526
0.00195017
0.00144886
0.0011958
0.000993243
0.00134787
0.000962082
0.00338329
0.0112389
0.00784564
0.00457449
0.00370136
0.00377782
0.00413245
0.00443065
0.00442019
0.00440456
0.0044494
0.00449746
0.00453457
0.00455783
0.00457972
0.00462467
0.00466669
0.004582
0.00429567
0.00386065
0.00340358
0.00311968
0.00303434
0.00306229
0.00313857
0.00322909
0.00330436
0.00334996
0.00336692
0.00336245
0.00334408
0.00331457
0.00319756
0.00288794
0.00248075
0.00204753
0.00174424
0.00163322
0.00165245
0.00112506
0.00348161
0.0109622
0.00912212
0.00744317
0.00582078
0.00477096
0.0044019
0.0044718
0.00451417
0.0044732
0.00444774
0.00444514
0.00444672
0.00443566
0.00441462
0.0044107
0.00443251
0.00440965
0.00423006
0.00382618
0.00333376
0.00305324
0.00297676
0.00299898
0.00305546
0.00311379
0.0031567
0.00318172
0.00319838
0.0032237
0.00327557
0.00336948
0.00349263
0.00347256
0.00326726
0.00319523
0.00339941
0.00373752
0.0042884
0.00168191
0.00340284
0.00410527
0.00469282
0.00495114
0.00494727
0.00472539
0.00449486
0.00436101
0.00428697
0.00427341
0.00428977
0.00430671
0.00430112
0.0042625
0.00420519
0.00417182
0.0041924
0.0042203
0.00412433
0.00377371
0.0032987
0.00305113
0.00297541
0.00297069
0.00298683
0.00299882
0.00299302
0.00296715
0.00292992
0.00289428
0.00286743
0.00284601
0.0028215
0.00279815
0.0027756
0.00275962
0.00269093
0.00253128
0.00234566
0.00159058
0.00269125
0.00469831
0.00492022
0.00488948
0.00479067
0.00469634
0.00461643
0.00452717
0.00443072
0.00432228
0.00419662
0.0040581
0.00393694
0.00388754
0.00393176
0.00400835
0.00397657
0.00369515
0.00333376
0.00315191
0.00307356
0.00303061
0.0029944
0.0029533
0.00290265
0.00284224
0.00277726
0.00271923
0.00268294
0.00267959
0.00270739
0.00273928
0.00275162
0.00272453
0.0026191
0.00243184
0.00218223
0.00134051
0.00260094
0.00517799
0.0052535
0.00511949
0.00497672
0.00482749
0.00467359
0.00449814
0.00426049
0.00401012
0.00377307
0.00357559
0.00347237
0.0035289
0.00371056
0.00390364
0.00400184
0.00390222
0.0037262
0.00361326
0.00354382
0.00348678
0.00342254
0.00334096
0.00324098
0.00312974
0.00301971
0.00292427
0.00285275
0.00280337
0.00279664
0.00283016
0.00287003
0.00289007
0.00282043
0.00279659
0.00287622
0.00137381
0.00210982
0.00227505
0.00241565
0.0025739
0.00243454
0.00228302
0.00211
0.00194257
0.0017725
0.00161027
0.00147712
0.00135701
0.00124253
0.00113182
0.00103386
0.000975166
0.000964944
0.000967711
0.000953069
0.000925001
0.000901859
0.000887034
0.000876419
0.000867296
0.000858739
0.000851457
0.000847521
0.000849789
0.000861187
0.000884327
0.000921942
0.000978537
0.00104856
0.00112568
0.00120665
0.00129966
0.00132111
0.00128163
0.00120739
0.00112597
)
;

boundaryField
{
    floor
    {
        type            compressible::alphatWallFunction;
        Prt             0.85;
        value           nonuniform List<scalar> 
29
(
0.000148301
6.44983e-05
6.9909e-05
6.95392e-05
6.86686e-05
6.76775e-05
6.56401e-05
6.14189e-05
5.71754e-05
5.32439e-05
4.95863e-05
4.62173e-05
4.31437e-05
4.03664e-05
3.78839e-05
3.56867e-05
3.37093e-05
3.20281e-05
3.58854e-05
3.39997e-05
3.39992e-05
5.88299e-05
7.22274e-05
8.25572e-05
0.000148299
6.44975e-05
0.000103034
0.000124795
0.000162354
)
;
    }
    ceiling
    {
        type            compressible::alphatWallFunction;
        Prt             0.85;
        value           nonuniform List<scalar> 
43
(
0.00029143
0.000312741
0.000330748
0.000350954
0.000333254
0.000313877
0.000291564
0.00026978
0.000247436
0.000225905
0.000208053
0.000191793
0.000176141
0.000160845
0.000147173
0.000138934
0.000137514
0.000137904
0.000135817
0.000131827
0.000128532
0.000126417
0.0001249
0.000123594
0.000122368
0.000121324
0.00012076
0.000121087
0.000122723
0.000126037
0.0001314
0.000139421
0.000149269
0.000160027
0.000171232
0.000183997
0.000186926
0.000181531
0.000171335
0.00016007
0.000454668
0.000540325
0.000354245
)
;
    }
    sWall
    {
        type            compressible::alphatWallFunction;
        Prt             0.85;
        value           uniform 0.000290291;
    }
    nWall
    {
        type            compressible::alphatWallFunction;
        Prt             0.85;
        value           nonuniform List<scalar> 6(0.00013011 0.000136777 0.000159616 0.000189247 0.000193773 0.000159752);
    }
    sideWalls
    {
        type            empty;
    }
    glass1
    {
        type            compressible::alphatWallFunction;
        Prt             0.85;
        value           nonuniform List<scalar> 9(0.000127066 0.000188318 0.000240949 0.000292609 0.000343963 0.000395755 0.000445687 0.000457837 0.000448392);
    }
    glass2
    {
        type            compressible::alphatWallFunction;
        Prt             0.85;
        value           nonuniform List<scalar> 2(0.00023385 0.000221786);
    }
    sun
    {
        type            compressible::alphatWallFunction;
        Prt             0.85;
        value           nonuniform List<scalar> 
14
(
0.000130406
0.000137083
0.000134576
0.000138575
0.000142006
0.000144871
0.000147309
0.000149463
0.000151489
0.000153187
0.000153986
0.000153703
0.000152384
0.00015048
)
;
    }
    heatsource1
    {
        type            compressible::alphatWallFunction;
        Prt             0.85;
        value           nonuniform List<scalar> 3(9.6845e-05 0.000114564 0.000130398);
    }
    heatsource2
    {
        type            compressible::alphatWallFunction;
        Prt             0.85;
        value           nonuniform List<scalar> 4(0.000150738 0.00013653 0.000136528 0.000164552);
    }
    Table_master
    {
        type            compressible::alphatWallFunction;
        Prt             0.85;
        value           nonuniform List<scalar> 9(8.8997e-05 7.61784e-05 6.71738e-05 6.07012e-05 5.58865e-05 5.21888e-05 4.92798e-05 4.69725e-05 4.52438e-05);
    }
    Table_slave
    {
        type            compressible::alphatWallFunction;
        Prt             0.85;
        value           nonuniform List<scalar> 9(9.37269e-05 8.98473e-05 8.95039e-05 9.02538e-05 9.09064e-05 9.05441e-05 8.83488e-05 8.4975e-05 8.09136e-05);
    }
    inlet
    {
        type            fixedValue;
        value           uniform 1.94e-05;
    }
    outlet
    {
        type            zeroGradient;
    }
}


// ************************************************************************* //
