/*--------------------------------*- C++ -*----------------------------------*\
  =========                 |
  \\      /  F ield         | OpenFOAM: The Open Source CFD Toolbox
   \\    /   O peration     | Website:  https://openfoam.org
    \\  /    A nd           | Version:  6
     \\/     M anipulation  |
\*---------------------------------------------------------------------------*/
FoamFile
{
    version     2.0;
    format      ascii;
    class       volScalarField;
    location    "100";
    object      alphat;
}
// * * * * * * * * * * * * * * * * * * * * * * * * * * * * * * * * * * * * * //

dimensions      [1 -1 -1 0 0 0 0];

internalField   nonuniform List<scalar> 
459
(
0.0014921
0.00165884
0.00172565
0.00182656
0.00192915
0.00203725
0.00212051
0.00216569
0.00216361
0.00210111
0.00194169
0.00178939
0.00160779
0.00143295
0.00124845
0.000771297
0.000911359
0.00107642
0.00118695
0.00121735
0.00119964
0.00113165
0.00105632
0.000988401
0.000929395
0.000878191
0.000833593
0.000794356
0.00075944
0.000727659
0.000697186
0.000665316
0.000627994
0.000572694
0.001923
0.00506851
0.0050964
0.00596322
0.00679206
0.00738292
0.00791039
0.00834137
0.00865479
0.00876983
0.00856546
0.00809201
0.00738109
0.00593579
0.00394545
0.00150032
0.00124122
0.000738746
0.00209515
0.00329562
0.00432339
0.00495241
0.00487199
0.0033459
0.00276364
0.00239549
0.00213414
0.00193835
0.0017851
0.00166175
0.00155183
0.00142925
0.00130381
0.00118535
0.00109619
0.000615622
0.00227616
0.00692461
0.00636036
0.0072423
0.00771604
0.00806092
0.00841518
0.00883638
0.00934417
0.0097753
0.00992317
0.00981106
0.00943044
0.00853892
0.00693631
0.00446468
0.00146772
0.000876977
0.00212517
0.00360225
0.00511615
0.00617023
0.00586054
0.00151454
0.00132489
0.0011705
0.00104656
0.000946764
0.000865596
0.000798669
0.000743741
0.000702858
0.000797903
0.000947419
0.00112938
0.000632143
0.00261245
0.00858028
0.00670101
0.00751946
0.00765835
0.00776
0.00792593
0.00831568
0.008954
0.00952885
0.00990625
0.0100293
0.00991996
0.00951317
0.00858441
0.00685774
0.00367679
0.00165485
0.00201419
0.00317543
0.00496236
0.00673853
0.00789505
0.00733464
0.00169792
0.0015396
0.0014151
0.00131399
0.00122574
0.00114383
0.00106381
0.000981837
0.000891973
0.000832187
0.000876377
0.00112913
0.000645403
0.00295701
0.0106468
0.00760537
0.00794388
0.00787387
0.00768311
0.00764915
0.00802767
0.00868512
0.00935459
0.00981523
0.0100019
0.0099754
0.00978893
0.00937767
0.00855473
0.00708632
0.00645206
0.00724729
0.00840193
0.00957443
0.0104463
0.0108322
0.0104621
0.00845252
0.00731901
0.00656834
0.00586515
0.00516923
0.00446696
0.00374652
0.00300157
0.00223972
0.00155166
0.00115896
0.00116336
0.000750481
0.000635045
0.00071113
0.00080446
0.00332225
0.0129443
0.0101014
0.00917954
0.00847393
0.00781818
0.00762349
0.00800501
0.0087458
0.00949793
0.00999836
0.0101932
0.010208
0.0102057
0.0102927
0.0103571
0.0103387
0.0108421
0.011853
0.0126724
0.0131509
0.0132436
0.0129667
0.0123225
0.0112513
0.0101898
0.00916735
0.00815093
0.00713931
0.00612289
0.00508863
0.00403594
0.0029944
0.0020678
0.00147046
0.0012639
0.000916692
0.000780515
0.0010844
0.000844464
0.0036231
0.0143654
0.0130503
0.0107051
0.00888694
0.0078075
0.00762595
0.00818206
0.00911317
0.00998422
0.0105268
0.0107649
0.0109723
0.0114219
0.0120686
0.0127066
0.0133399
0.0141327
0.0148451
0.0151209
0.0149936
0.0145248
0.0137974
0.0128893
0.0118508
0.0107697
0.00966474
0.00856724
0.00748092
0.00640369
0.00531835
0.00423496
0.00319329
0.00229649
0.00171958
0.0014603
0.00118665
0.00108614
0.00108491
0.000864524
0.00366625
0.0118239
0.0109131
0.00897019
0.00756545
0.00709829
0.00753968
0.00861497
0.00986783
0.010836
0.0113786
0.0117458
0.0124577
0.0134049
0.0140475
0.014613
0.0151742
0.0156781
0.0159112
0.0157068
0.0151266
0.0142708
0.0132437
0.0121316
0.0109789
0.0098528
0.00875743
0.00768808
0.0066467
0.00564136
0.00468201
0.00378626
0.00298255
0.00232854
0.00189819
0.00176058
0.00170222
0.00178518
0.00239255
0.00129799
0.00355874
0.00415893
0.00436839
0.00443564
0.00498289
0.00625191
0.00801104
0.00982786
0.0112259
0.0119196
0.0123667
0.0130875
0.0138018
0.0142979
0.0146372
0.0149446
0.0152028
0.0152804
0.0150412
0.0144479
0.0135576
0.0124661
0.0112661
0.0100486
0.00889608
0.00781444
0.00677009
0.00573737
0.00471722
0.00373863
0.00286106
0.00216871
0.00172771
0.00153339
0.00151925
0.00160948
0.00171516
0.00177178
0.0017262
0.00129832
0.00116315
0.00356147
0.00764734
0.0104208
0.0120122
0.0127557
0.0129295
0.0126672
0.0126761
0.0129236
0.0130898
0.0131726
0.013242
0.0132778
0.0131786
0.0128256
0.0121653
0.0112408
0.0101574
0.00903026
0.00795657
0.00698238
0.00610534
0.00528921
0.00450403
0.00375037
0.0030578
0.00246923
0.00202064
0.00172502
0.00157074
0.00153224
0.00157731
0.00166429
0.00173832
0.00175109
0.00168128
0.00123991
0.00237156
0.00961986
0.0116988
0.0121049
0.011845
0.0112509
0.0106676
0.0102136
0.00990238
0.00967462
0.00952244
0.00944681
0.00939936
0.00930265
0.00907788
0.00867443
0.00810278
0.00743162
0.006746
0.00610643
0.00553399
0.00501896
0.00454071
0.00408362
0.0036448
0.00323244
0.00285917
0.00253596
0.00226949
0.00206302
0.00191851
0.00183663
0.00181146
0.00182182
0.00183848
0.00189526
0.00233079
0.00130498
0.00216078
0.00231517
0.0024314
0.00265756
0.00243542
0.00228461
0.00214547
0.0019989
0.00185986
0.00175264
0.00168189
0.00163919
0.00161377
0.00159594
0.00157788
0.00155365
0.00151955
0.00147507
0.00142341
0.00136963
0.00131799
0.00127041
0.00122677
0.00118602
0.00114726
0.00111036
0.00107607
0.00104571
0.00102071
0.00100219
0.000990938
0.000987609
0.00099297
0.00100803
0.00103349
0.00106772
0.00110633
0.00111083
0.00108163
0.0010729
)
;

boundaryField
{
    floor
    {
        type            compressible::alphatWallFunction;
        Prt             0.85;
        value           nonuniform List<scalar> 
29
(
0.000176817
0.000109641
0.000129774
0.000153042
0.00016839
0.000172586
0.000170151
0.000160748
0.000150251
0.000140712
0.000132362
0.000125066
0.00011867
0.000113009
0.000107943
0.000103308
9.88407e-05
9.41438e-05
8.86079e-05
8.03315e-05
8.03306e-05
8.6761e-05
8.92188e-05
9.11869e-05
0.000176815
0.00010964
0.000104897
0.000124884
0.000231704
)
;
    }
    ceiling
    {
        type            compressible::alphatWallFunction;
        Prt             0.85;
        value           nonuniform List<scalar> 
43
(
0.000297962
0.00031783
0.000332697
0.000361539
0.000333384
0.000314102
0.000296181
0.000277164
0.000258981
0.000244857
0.000235486
0.00022981
0.000226424
0.000224045
0.000221633
0.000218391
0.000213818
0.000207837
0.000200864
0.000193575
0.000186546
0.000180043
0.000174053
0.000168439
0.000163078
0.000157954
0.000153174
0.000148928
0.00014542
0.000142814
0.000141228
0.000140757
0.000141511
0.000143629
0.000147205
0.000151997
0.000157384
0.000158021
0.000153958
0.000152744
0.000473756
0.000546736
0.000324746
)
;
    }
    sWall
    {
        type            compressible::alphatWallFunction;
        Prt             0.85;
        value           uniform 0.000296794;
    }
    nWall
    {
        type            compressible::alphatWallFunction;
        Prt             0.85;
        value           nonuniform List<scalar> 6(0.000114309 0.000120061 0.00012291 0.000175573 0.000184488 0.000152453);
    }
    sideWalls
    {
        type            empty;
    }
    glass1
    {
        type            compressible::alphatWallFunction;
        Prt             0.85;
        value           nonuniform List<scalar> 9(0.000204978 0.0002614 0.000306721 0.000349259 0.000392301 0.000437402 0.000474222 0.000479618 0.000466771);
    }
    glass2
    {
        type            compressible::alphatWallFunction;
        Prt             0.85;
        value           nonuniform List<scalar> 2(0.000182577 0.000182718);
    }
    sun
    {
        type            compressible::alphatWallFunction;
        Prt             0.85;
        value           nonuniform List<scalar> 
14
(
0.000209929
0.000232213
0.000241077
0.000254395
0.000267852
0.000281947
0.000292749
0.00029859
0.000298323
0.000290241
0.000269495
0.000249504
0.000225419
0.000201942
)
;
    }
    heatsource1
    {
        type            compressible::alphatWallFunction;
        Prt             0.85;
        value           nonuniform List<scalar> 3(8.97171e-05 0.000100949 0.000114527);
    }
    heatsource2
    {
        type            compressible::alphatWallFunction;
        Prt             0.85;
        value           nonuniform List<scalar> 4(0.000211167 0.000175962 0.000175961 0.000206779);
    }
    Table_master
    {
        type            compressible::alphatWallFunction;
        Prt             0.85;
        value           nonuniform List<scalar> 9(0.000213092 0.000187432 0.000166234 0.000148984 0.000134921 0.000123354 0.000113718 0.000105737 9.97497e-05);
    }
    Table_slave
    {
        type            compressible::alphatWallFunction;
        Prt             0.85;
        value           nonuniform List<scalar> 9(0.000237565 0.000216451 0.000199678 0.000185934 0.000173841 0.000162529 0.000151387 0.000139872 0.000127119);
    }
    inlet
    {
        type            fixedValue;
        value           uniform 1.94e-05;
    }
    outlet
    {
        type            zeroGradient;
    }
}


// ************************************************************************* //
