// -*- C++ -*-
// File generated by PyFoam - sorry for the ugliness

FoamFile
{
 version 2.0;
 format ascii;
 class volVectorField;
 location "100";
 object U;
}

dimensions [ 0 1 -1 0 0 0 0 ];

internalField nonuniform List<vector> 459
(
  (0.00973126 0.0922054 0)
  (-0.184075 0.0296519 0)
  (-0.218084 0.0136423 0)
  (-0.244491 0.0012001 0)
  (-0.250774 -0.0118767 0)
  (-0.23399 -0.025755 0)
  (-0.196382 -0.0396384 0)
  (-0.142843 -0.0503904 0)
  (-0.0823389 -0.0558172 0)
  (-0.0222109 -0.0540658 0)
  (0.0368473 -0.0384191 0)
  (0.0673778 -0.0235685 0)
  (0.0840779 -0.00834915 0)
  (0.0803021 0.0110701 0)
  (0.0623461 0.0482328 0)
  (-0.041003 0.0165108 0)
  (-0.0543613 -0.0128564 0)
  (-0.0289421 -0.0314361 0)
  (0.00177934 -0.036615 0)
  (0.035043 -0.0304517 0)
  (0.0620145 -0.0224769 0)
  (0.0813617 -0.0131872 0)
  (0.0929498 -0.00801984 0)
  (0.0985813 -0.00605537 0)
  (0.101377 -0.00529179 0)
  (0.103242 -0.00482231 0)
  (0.104639 -0.00443957 0)
  (0.105493 -0.00402182 0)
  (0.105443 -0.00326667 0)
  (0.103502 -0.00151843 0)
  (0.0976082 0.00214271 0)
  (0.0851978 0.00737195 0)
  (0.0643159 0.0153051 0)
  (0.0319427 0.0317627 0)
  (0.174628 0.189993 0)
  (-0.161747 0.0836177 0)
  (-0.172144 0.0544816 0)
  (-0.199533 0.028047 0)
  (-0.206612 -0.00220834 0)
  (-0.191111 -0.0356183 0)
  (-0.156481 -0.0663683 0)
  (-0.109213 -0.0869547 0)
  (-0.0578719 -0.093984 0)
  (-0.00839804 -0.0860104 0)
  (0.0336701 -0.0635504 0)
  (0.0620753 -0.0374312 0)
  (0.0805283 -0.00997288 0)
  (0.0905658 0.0196548 0)
  (0.0944669 0.0547977 0)
  (0.0937614 0.0549631 0)
  (0.062322 0.0569679 0)
  (0.00406342 0.0517664 0)
  (0.0109926 -0.0138815 0)
  (0.0340454 -0.0456038 0)
  (0.0519614 -0.0504705 0)
  (0.070013 -0.0443433 0)
  (0.0859116 -0.0333188 0)
  (0.0941222 -0.0155718 0)
  (0.0963956 -0.00453044 0)
  (0.0965351 -0.000212609 0)
  (0.0968451 0.00140914 0)
  (0.0974301 0.00225789 0)
  (0.0979233 0.00281754 0)
  (0.0982325 0.00345772 0)
  (0.0983156 0.00488653 0)
  (0.0973159 0.00846455 0)
  (0.0918547 0.0177277 0)
  (0.0781657 0.0283703 0)
  (0.0562227 0.0417748 0)
  (0.00938801 0.0653241 0)
  (0.326708 0.28279 0)
  (-0.166502 0.128699 0)
  (-0.128322 0.0855594 0)
  (-0.15472 0.0415314 0)
  (-0.16044 -0.00829747 0)
  (-0.14265 -0.0615509 0)
  (-0.108157 -0.108001 0)
  (-0.0663401 -0.135172 0)
  (-0.0241527 -0.140295 0)
  (0.0144055 -0.123668 0)
  (0.0442857 -0.0938181 0)
  (0.0673813 -0.059257 0)
  (0.0834521 -0.0237479 0)
  (0.0935722 0.0119631 0)
  (0.0987191 0.0456352 0)
  (0.0935665 0.0643955 0)
  (0.0770042 0.105434 0)
  (0.0695449 -0.000162164 0)
  (0.0825802 -0.0443162 0)
  (0.0907758 -0.0621785 0)
  (0.0969756 -0.0638213 0)
  (0.102773 -0.0565978 0)
  (0.109215 -0.0477092 0)
  (0.109385 -0.0364266 0)
  (0.0970292 -0.0239548 0)
  (0.0870977 -0.0170716 0)
  (0.082479 -0.0131265 0)
  (0.0803727 -0.010531 0)
  (0.0789241 -0.00872246 0)
  (0.0778377 -0.00730212 0)
  (0.0778448 -0.00546504 0)
  (0.0812208 0.00011761 0)
  (0.0797764 0.0237869 0)
  (0.0662835 0.0438963 0)
  (0.0489037 0.0659938 0)
  (-0.0121212 0.100705 0)
  (0.465894 0.356604 0)
  (-0.190147 0.166695 0)
  (-0.0844723 0.112854 0)
  (-0.108194 0.0544056 0)
  (-0.107418 -0.0140348 0)
  (-0.0822977 -0.0880601 0)
  (-0.0475186 -0.147359 0)
  (-0.0136239 -0.176558 0)
  (0.018076 -0.176567 0)
  (0.0424904 -0.153897 0)
  (0.0625157 -0.117959 0)
  (0.0780091 -0.0769216 0)
  (0.0892277 -0.0358022 0)
  (0.0979819 0.00336029 0)
  (0.106681 0.0390309 0)
  (0.119392 0.0682267 0)
  (0.140121 0.106637 0)
  (0.178973 0.082234 0)
  (0.168982 0.0154316 0)
  (0.154249 -0.0297406 0)
  (0.141153 -0.0524655 0)
  (0.129447 -0.0579891 0)
  (0.119316 -0.0530721 0)
  (0.110002 -0.0421262 0)
  (0.108333 -0.0247096 0)
  (0.117389 -0.0151624 0)
  (0.122834 -0.00969511 0)
  (0.122134 -0.00606117 0)
  (0.117844 -0.00320952 0)
  (0.111358 -0.000683304 0)
  (0.10256 0.00189847 0)
  (0.0903749 0.00510636 0)
  (0.0709962 0.00982766 0)
  (0.0570439 0.0353172 0)
  (0.0492204 0.059169 0)
  (0.044771 0.086519 0)
  (-0.027973 0.132951 0)
  (0.588022 0.41258 0)
  (-0.224307 0.19571 0)
  (-0.043359 0.128751 0)
  (-0.0598893 0.0606391 0)
  (-0.0417274 -0.0259029 0)
  (-0.00675798 -0.118079 0)
  (0.0246592 -0.181387 0)
  (0.0464372 -0.204479 0)
  (0.0626514 -0.198644 0)
  (0.0739193 -0.171312 0)
  (0.081634 -0.131168 0)
  (0.0866801 -0.0864746 0)
  (0.0902634 -0.0431773 0)
  (0.0947285 -0.00435711 0)
  (0.101961 0.0287761 0)
  (0.114873 0.0523962 0)
  (0.136156 0.0617824 0)
  (0.153384 0.0218116 0)
  (0.153575 -0.0137557 0)
  (0.14574 -0.0343698 0)
  (0.13354 -0.0444285 0)
  (0.119573 -0.0462184 0)
  (0.106075 -0.0413561 0)
  (0.0945403 -0.0307441 0)
  (0.0884536 -0.0136029 0)
  (0.0873529 -0.00255195 0)
  (0.0853217 0.00331242 0)
  (0.0814641 0.00680482 0)
  (0.0766689 0.00955396 0)
  (0.0714255 0.0123087 0)
  (0.0655841 0.0156674 0)
  (0.0588513 0.0203738 0)
  (0.0502537 0.0276242 0)
  (0.0432058 0.0447768 0)
  (0.0405717 0.067186 0)
  (0.0531045 0.0962201 0)
  (0.024047 0.141163 0)
  (0.0630336 0.0778407 0)
  (-0.0476423 -0.0327925 0)
  (-0.243563 -0.0495242 0)
  (0.68166 0.457035 0)
  (-0.260484 0.21246 0)
  (-0.00975517 0.122772 0)
  (-0.00458132 0.0483257 0)
  (0.0452127 -0.0629564 0)
  (0.0797288 -0.149541 0)
  (0.100489 -0.201067 0)
  (0.108861 -0.217328 0)
  (0.108595 -0.20532 0)
  (0.102931 -0.173622 0)
  (0.0946894 -0.130712 0)
  (0.0861548 -0.0848592 0)
  (0.079303 -0.0423535 0)
  (0.0761825 -0.0066012 0)
  (0.0780959 0.0207993 0)
  (0.0867261 0.0368621 0)
  (0.101894 0.0379208 0)
  (0.113382 0.0167267 0)
  (0.114959 -0.00442868 0)
  (0.108394 -0.0201228 0)
  (0.0972548 -0.0292626 0)
  (0.0843235 -0.0317094 0)
  (0.0714547 -0.0283365 0)
  (0.0601133 -0.020217 0)
  (0.0521466 -0.00873052 0)
  (0.0473988 6.49633e-05 0)
  (0.0438053 0.0054489 0)
  (0.0406094 0.00888478 0)
  (0.0375993 0.0117342 0)
  (0.0348891 0.0147873 0)
  (0.0325223 0.0186754 0)
  (0.0306687 0.0240872 0)
  (0.0292306 0.0318682 0)
  (0.0301777 0.0451216 0)
  (0.0349129 0.0643594 0)
  (0.0548886 0.0906832 0)
  (0.0563231 0.121364 0)
  (0.0886866 0.0863369 0)
  (0.105149 0.0503354 0)
  (-0.113787 0.00221994 0)
  (0.756257 0.496412 0)
  (-0.276633 0.191661 0)
  (0.0360768 0.0515267 0)
  (0.0962732 -0.0261836 0)
  (0.149132 -0.11282 0)
  (0.175252 -0.177585 0)
  (0.180778 -0.210818 0)
  (0.16973 -0.2135 0)
  (0.147486 -0.192728 0)
  (0.120169 -0.156961 0)
  (0.0925994 -0.113319 0)
  (0.0684638 -0.0692872 0)
  (0.0502087 -0.0308182 0)
  (0.0391396 -0.00115161 0)
  (0.0371609 0.0183445 0)
  (0.0432741 0.027712 0)
  (0.0540424 0.0265433 0)
  (0.061799 0.0138048 0)
  (0.0627097 -0.000850809 0)
  (0.0577451 -0.0122715 0)
  (0.0486004 -0.0187116 0)
  (0.0375632 -0.0200364 0)
  (0.0262847 -0.0170199 0)
  (0.0162293 -0.01072 0)
  (0.00883606 -0.00258167 0)
  (0.00397557 0.0041666 0)
  (0.00170835 0.00839416 0)
  (0.000321197 0.0111194 0)
  (-0.000431155 0.0134064 0)
  (-0.000466887 0.0158778 0)
  (0.00046049 0.0190376 0)
  (0.00280117 0.023366 0)
  (0.00681776 0.0294078 0)
  (0.0140219 0.038849 0)
  (0.0246896 0.0529045 0)
  (0.0472511 0.0730608 0)
  (0.0663985 0.0920619 0)
  (0.0971144 0.0696418 0)
  (0.137725 0.0497209 0)
  (-0.0588346 0.0887365 0)
  (0.867699 0.484314 0)
  (-0.0197631 0.16307 0)
  (0.140666 -0.0474144 0)
  (0.258827 -0.124574 0)
  (0.291996 -0.165263 0)
  (0.286063 -0.19032 0)
  (0.258449 -0.196527 0)
  (0.215407 -0.183173 0)
  (0.163475 -0.154668 0)
  (0.110736 -0.117753 0)
  (0.0630535 -0.0772768 0)
  (0.0255437 -0.0397591 0)
  (0.000204863 -0.0104086 0)
  (-0.0125964 0.00788768 0)
  (-0.0130484 0.0172113 0)
  (-0.00776338 0.0208754 0)
  (0.000158262 0.0187292 0)
  (0.00543759 0.010503 0)
  (0.00555816 0.0011246 0)
  (0.00182602 -0.00615475 0)
  (-0.00563963 -0.00991066 0)
  (-0.01456 -0.0101013 0)
  (-0.0234341 -0.00744933 0)
  (-0.0309405 -0.00287997 0)
  (-0.0363968 0.00231642 0)
  (-0.0387017 0.00640107 0)
  (-0.0393085 0.00912764 0)
  (-0.039006 0.011033 0)
  (-0.0379546 0.0125628 0)
  (-0.0360166 0.0139907 0)
  (-0.0328577 0.0154921 0)
  (-0.0280285 0.0171951 0)
  (-0.0212141 0.0192736 0)
  (-0.0118965 0.0224189 0)
  (0.000548318 0.0279223 0)
  (0.0240807 0.0379517 0)
  (0.0503915 0.0416469 0)
  (0.0770226 0.0160603 0)
  (0.146947 0.0430851 0)
  (-0.385593 0.182194 0)
  (1.0253 0.421919 0)
  (0.486883 0.274684 0)
  (0.508187 0.158144 0)
  (0.512848 0.0339185 0)
  (0.459988 -0.0556186 0)
  (0.379613 -0.105495 0)
  (0.29302 -0.121378 0)
  (0.206428 -0.112224 0)
  (0.123482 -0.0876317 0)
  (0.0507997 -0.0570218 0)
  (-0.0088415 -0.0255086 0)
  (-0.0442134 -0.00454036 0)
  (-0.0610801 0.00649059 0)
  (-0.0659107 0.012015 0)
  (-0.0646178 0.0147291 0)
  (-0.0603064 0.0153517 0)
  (-0.0552128 0.013372 0)
  (-0.0521655 0.00876121 0)
  (-0.052516 0.0035 0)
  (-0.0555116 -0.000591446 0)
  (-0.0606679 -0.0026123 0)
  (-0.0667754 -0.00269096 0)
  (-0.0726389 -0.00132007 0)
  (-0.0771801 0.000823444 0)
  (-0.0794875 0.00299034 0)
  (-0.0801262 0.00467846 0)
  (-0.0798614 0.0058767 0)
  (-0.0792332 0.00677587 0)
  (-0.078589 0.00759961 0)
  (-0.0782332 0.00860076 0)
  (-0.078594 0.0100997 0)
  (-0.0804545 0.0125928 0)
  (-0.0851808 0.0169801 0)
  (-0.0945694 0.0247062 0)
  (-0.110296 0.0372355 0)
  (-0.133221 0.0547475 0)
  (-0.168942 0.0739362 0)
  (-0.221698 0.0911352 0)
  (-0.29714 0.104421 0)
  (-0.555888 0.106776 0)
  (-0.0258509 -0.0533327 0)
  (0.131802 -0.0913598 0)
  (0.167654 -0.104742 0)
  (0.124524 -0.0881213 0)
  (0.0699572 -0.0623873 0)
  (0.0119599 -0.0343105 0)
  (-0.0445004 -0.00931284 0)
  (-0.083022 0.00436665 0)
  (-0.105689 0.0110272 0)
  (-0.115244 0.0130642 0)
  (-0.118027 0.0138058 0)
  (-0.117356 0.0143702 0)
  (-0.11481 0.0148936 0)
  (-0.111478 0.0151422 0)
  (-0.108489 0.0146412 0)
  (-0.107136 0.0133354 0)
  (-0.107999 0.0120465 0)
  (-0.110657 0.011698 0)
  (-0.114238 0.0127468 0)
  (-0.117823 0.0150081 0)
  (-0.120617 0.0180224 0)
  (-0.122253 0.021382 0)
  (-0.122678 0.0247832 0)
  (-0.122166 0.0279996 0)
  (-0.121076 0.0308331 0)
  (-0.119749 0.033067 0)
  (-0.118501 0.03453 0)
  (-0.117624 0.0352428 0)
  (-0.117346 0.0355922 0)
  (-0.117782 0.0364625 0)
  (-0.118894 0.039291 0)
  (-0.120406 0.0459893 0)
  (-0.121622 0.0583319 0)
  (-0.121364 0.076003 0)
  (-0.118283 0.0924549 0)
  (-0.105977 0.0891582 0)
  (-0.0810341 0.0284629 0)
  (-0.206516 -0.174976 0)
  (0.135493 0.125685 0)
  (-0.00649997 0.0178804 0)
  (-0.0395797 -0.0273884 0)
  (-0.0869243 -0.0263505 0)
  (-0.126581 -0.0171676 0)
  (-0.15313 -0.0104732 0)
  (-0.16686 -0.00835765 0)
  (-0.171397 -0.00975293 0)
  (-0.171856 -0.0121891 0)
  (-0.169837 -0.0151356 0)
  (-0.166862 -0.0176902 0)
  (-0.163429 -0.0196526 0)
  (-0.159724 -0.0213887 0)
  (-0.156009 -0.0235433 0)
  (-0.152762 -0.0268321 0)
  (-0.150587 -0.0316448 0)
  (-0.149786 -0.0377354 0)
  (-0.150173 -0.0444703 0)
  (-0.151247 -0.0512035 0)
  (-0.152475 -0.0575402 0)
  (-0.153482 -0.0632857 0)
  (-0.154091 -0.0683416 0)
  (-0.154239 -0.0726243 0)
  (-0.153913 -0.0759913 0)
  (-0.153082 -0.0781313 0)
  (-0.151687 -0.0785454 0)
  (-0.149634 -0.0766345 0)
  (-0.146797 -0.071834 0)
  (-0.142968 -0.0637312 0)
  (-0.137712 -0.0520888 0)
  (-0.130153 -0.0367195 0)
  (-0.118843 -0.0173136 0)
  (-0.101995 0.00619928 0)
  (-0.0783223 0.0316786 0)
  (-0.0488851 0.0510776 0)
  (-0.0117679 0.0449064 0)
  (0.119845 -0.0389507 0)
  (-0.152821 -0.100272 0)
  (-0.0330299 -0.297194 0)
  (-0.385292 -0.11273 0)
  (-0.300479 0.0577615 0)
  (-0.293748 0.037393 0)
  (-0.268764 0.0437872 0)
  (-0.267362 0.052819 0)
  (-0.265476 0.0618825 0)
  (-0.259434 0.070108 0)
  (-0.250673 0.0770619 0)
  (-0.241335 0.0826307 0)
  (-0.232856 0.0874568 0)
  (-0.225672 0.0918271 0)
  (-0.219643 0.0961314 0)
  (-0.214226 0.10076 0)
  (-0.208908 0.106154 0)
  (-0.203422 0.112748 0)
  (-0.197848 0.120838 0)
  (-0.192506 0.130455 0)
  (-0.1877 0.141286 0)
  (-0.18353 0.152745 0)
  (-0.179898 0.164194 0)
  (-0.176594 0.175162 0)
  (-0.173383 0.185416 0)
  (-0.170047 0.194873 0)
  (-0.16641 0.203439 0)
  (-0.162354 0.210879 0)
  (-0.157814 0.216758 0)
  (-0.152733 0.220511 0)
  (-0.147017 0.22161 0)
  (-0.140483 0.219739 0)
  (-0.132769 0.214941 0)
  (-0.123116 0.207684 0)
  (-0.110067 0.198905 0)
  (-0.0915737 0.190105 0)
  (-0.066404 0.183501 0)
  (-0.0360031 0.181516 0)
  (0.00544561 0.183048 0)
  (0.0408419 0.183379 0)
  (0.14294 0.197157 0)
  (-0.296682 0.186427 0)
)
;

boundaryField
{
  floor
  {
    type noSlip;
  }
  ceiling
  {
    type noSlip;
  }
  sWall
  {
    type noSlip;
  }
  nWall
  {
    type noSlip;
  }
  sideWalls
  {
    type empty;
  }
  glass1
  {
    type noSlip;
  }
  glass2
  {
    type noSlip;
  }
  sun
  {
    type noSlip;
  }
  heatsource1
  {
    type noSlip;
  }
  heatsource2
  {
    type noSlip;
  }
  Table_master
  {
    type noSlip;
  }
  Table_slave
  {
    type noSlip;
  }
  inlet
  {
    type fixedValue;
    value uniform (0.0382683 -0.092388 0);
  }
  outlet
  {
    type zeroGradient;
  }
} 	// ************************************************************************* //

