/*--------------------------------*- C++ -*----------------------------------*\
  =========                 |
  \\      /  F ield         | OpenFOAM: The Open Source CFD Toolbox
   \\    /   O peration     | Website:  https://openfoam.org
    \\  /    A nd           | Version:  6
     \\/     M anipulation  |
\*---------------------------------------------------------------------------*/
FoamFile
{
    version     2.0;
    format      ascii;
    class       volScalarField;
    location    "120";
    object      alphat;
}
// * * * * * * * * * * * * * * * * * * * * * * * * * * * * * * * * * * * * * //

dimensions      [1 -1 -1 0 0 0 0];

internalField   nonuniform List<scalar> 
459
(
0.00146559
0.00181968
0.00204789
0.0019652
0.00187846
0.00178601
0.00170007
0.00162145
0.00154994
0.00148461
0.00142095
0.00135498
0.00128212
0.00119489
0.00109084
0.000703201
0.000903405
0.00103344
0.00106016
0.00104462
0.00100714
0.000948183
0.000888086
0.000833537
0.000785363
0.000743019
0.000705681
0.000672324
0.000642308
0.000614443
0.000586869
0.000557042
0.00051322
0.000469432
0.0018124
0.00614309
0.00636787
0.00568098
0.00568107
0.00544151
0.00516077
0.00493476
0.00468982
0.00435728
0.00395199
0.00347106
0.0029116
0.00228251
0.00165642
0.00107561
0.000942093
0.00095626
0.00347871
0.00350749
0.00396084
0.00423749
0.00405119
0.00293238
0.00242475
0.00209466
0.0018556
0.00167369
0.0015319
0.00142183
0.00131865
0.00120094
0.00108424
0.0010078
0.000846597
0.000539901
0.00209191
0.00772099
0.00678967
0.00541293
0.00598608
0.00607791
0.00599493
0.00598394
0.00592787
0.00569659
0.00527467
0.00468167
0.00395688
0.00315653
0.00236946
0.00167071
0.000964578
0.000968293
0.00309296
0.00392693
0.00484854
0.00542108
0.00492697
0.00126885
0.00111232
0.000985976
0.000883825
0.000800461
0.000731734
0.00067477
0.000629557
0.000598361
0.000692051
0.000877621
0.00100253
0.000598754
0.00234365
0.00856527
0.00638993
0.00476068
0.00603848
0.00642964
0.00641042
0.00651957
0.00654597
0.00634424
0.00592854
0.00533754
0.004619
0.00383107
0.00303483
0.00228519
0.00149958
0.00100513
0.00178926
0.00307541
0.0046663
0.00599205
0.00672564
0.00604809
0.00141386
0.00129061
0.00119241
0.00110592
0.00102392
0.000942137
0.000857505
0.000767045
0.00066216
0.000669848
0.000843332
0.00125133
0.000689455
0.00256291
0.00883615
0.00563684
0.00429574
0.00626005
0.00697977
0.00697727
0.00714567
0.00705128
0.00677452
0.00638104
0.00587447
0.00527507
0.00463339
0.00399908
0.0034602
0.00310762
0.00354704
0.00480386
0.00623341
0.00746706
0.00832667
0.00874291
0.00851721
0.00694251
0.00601612
0.00517976
0.00441435
0.00368797
0.00298331
0.00230032
0.00165831
0.00104515
0.000809254
0.000927478
0.00138048
0.0010616
0.00077915
0.000708758
0.000593077
0.00272833
0.00867422
0.00477111
0.00394071
0.00641991
0.00746259
0.00747209
0.00769543
0.00759628
0.00733828
0.00705037
0.00672297
0.0063433
0.00598763
0.005719
0.00568402
0.00603291
0.00713141
0.00836152
0.00933812
0.00999192
0.0103153
0.0103291
0.00999694
0.00917941
0.00810457
0.00695015
0.00580097
0.00468141
0.00357047
0.00253854
0.0017408
0.00121616
0.00110414
0.00123282
0.00151048
0.00137297
0.00108202
0.000895153
0.000565049
0.00278527
0.00802673
0.00386045
0.00352368
0.00647932
0.00783051
0.00777794
0.00800212
0.00800718
0.00788451
0.00777924
0.00769413
0.00763246
0.00763585
0.00778634
0.0081905
0.00891607
0.00992435
0.0107001
0.0111634
0.0113305
0.0112333
0.0109066
0.0103221
0.00941861
0.00829979
0.00707173
0.00581517
0.00458894
0.00344972
0.00249902
0.00186062
0.00156957
0.00156218
0.00160598
0.00155605
0.00141742
0.00108231
0.000929113
0.0005241
0.00267763
0.00652802
0.00312649
0.00314145
0.0062414
0.00805874
0.00802741
0.00805021
0.00796213
0.00794231
0.0080174
0.00815806
0.00836325
0.00865879
0.00908286
0.00966854
0.010376
0.0110383
0.0114046
0.0114663
0.0112541
0.0107985
0.0101403
0.00934856
0.00843281
0.00741094
0.00631907
0.00521558
0.00417356
0.00327665
0.00261502
0.00225206
0.00216107
0.00220318
0.0021643
0.00195592
0.00163219
0.00129817
0.00125346
0.000582584
0.0025055
0.0024012
0.00191676
0.00286079
0.00595876
0.00812389
0.00821058
0.00795283
0.0078198
0.00788647
0.00806279
0.00830192
0.00859586
0.00895084
0.00936946
0.00983055
0.0102581
0.0105192
0.0105077
0.010203
0.00965424
0.00895785
0.00819949
0.00742198
0.00664408
0.00587066
0.00511558
0.00441748
0.00383357
0.00342454
0.00323618
0.00327157
0.00345453
0.00361845
0.0035783
0.00325713
0.00271912
0.0022476
0.00234491
0.00082094
0.000754035
0.00343782
0.00688414
0.00821378
0.00820485
0.00814136
0.00823804
0.00841464
0.00860737
0.00879655
0.00898026
0.00915792
0.00932038
0.00944123
0.0094729
0.00936229
0.00909241
0.0086943
0.00821995
0.00771853
0.00722375
0.00675331
0.00631544
0.00591792
0.00557571
0.00531264
0.00515654
0.00513148
0.00524692
0.00548038
0.00575835
0.00595913
0.00595659
0.00567072
0.00511295
0.00447959
0.00416781
0.00110818
0.00276086
0.00859054
0.00904173
0.00847073
0.00830225
0.00843804
0.00868441
0.00891871
0.00910111
0.00922954
0.009312
0.00935595
0.00936519
0.00933858
0.00926942
0.00914881
0.00897328
0.00875136
0.00850062
0.00823813
0.00797598
0.00772336
0.00749003
0.00728819
0.00713238
0.00703919
0.00702599
0.00710805
0.00729177
0.00756234
0.00786891
0.00811995
0.00820054
0.00800868
0.00751919
0.00682937
0.00581571
0.00148966
0.00177097
0.00190452
0.00210707
0.0022122
0.00219327
0.00216053
0.00214554
0.00214529
0.00214876
0.00215204
0.00215448
0.00215639
0.00215824
0.00216017
0.00216172
0.00216165
0.00215818
0.00214988
0.0021368
0.00212029
0.00210213
0.0020839
0.00206684
0.00205191
0.00203996
0.00203185
0.00202858
0.00203124
0.00204082
0.0020578
0.00208145
0.00210872
0.00213357
0.00214777
0.00214435
0.00212228
0.00208698
0.00203935
0.0019366
0.00153173
)
;

boundaryField
{
    floor
    {
        type            compressible::alphatWallFunction;
        Prt             0.85;
        value           nonuniform List<scalar> 
29
(
0.000155342
0.000100018
0.000128974
0.000147359
0.000151113
0.00014894
0.000143678
0.000135348
0.000126795
0.000118973
0.000112013
0.000105854
0.000100388
9.54754e-05
9.10292e-05
8.6879e-05
8.27494e-05
7.82552e-05
7.15964e-05
6.48721e-05
6.48713e-05
7.56635e-05
8.45404e-05
9.80139e-05
0.000155341
0.000100016
0.000136472
0.000138174
0.000143349
)
;
    }
    ceiling
    {
        type            compressible::alphatWallFunction;
        Prt             0.85;
        value           nonuniform List<scalar> 
43
(
0.000247543
0.000265106
0.000291492
0.000305087
0.000302655
0.000298434
0.000296501
0.000296469
0.000296917
0.000297342
0.000297657
0.000297904
0.000298143
0.000298393
0.000298594
0.000298585
0.000298136
0.000297063
0.00029537
0.000293232
0.000290878
0.000288513
0.000286297
0.000284357
0.000282802
0.000281747
0.00028132
0.000281665
0.00028291
0.000285116
0.000288185
0.00029172
0.000294936
0.000296771
0.000296326
0.000293467
0.000288891
0.000282703
0.00026929
0.000215676
0.000342451
0.000329149
0.000374891
)
;
    }
    sWall
    {
        type            compressible::alphatWallFunction;
        Prt             0.85;
        value           uniform 0.000247173;
    }
    nWall
    {
        type            compressible::alphatWallFunction;
        Prt             0.85;
        value           nonuniform List<scalar> 6(8.34312e-05 7.92175e-05 7.30294e-05 0.000157668 0.000209744 0.000215398);
    }
    sideWalls
    {
        type            empty;
    }
    glass1
    {
        type            compressible::alphatWallFunction;
        Prt             0.85;
        value           nonuniform List<scalar> 9(0.000205215 0.000251251 0.000287653 0.000319992 0.000347855 0.000368706 0.000375845 0.000362346 0.000340632);
    }
    glass2
    {
        type            compressible::alphatWallFunction;
        Prt             0.85;
        value           nonuniform List<scalar> 2(8.19637e-05 0.000117094);
    }
    sun
    {
        type            compressible::alphatWallFunction;
        Prt             0.85;
        value           nonuniform List<scalar> 
14
(
0.000206682
0.000253855
0.000283693
0.000272905
0.000261554
0.000249395
0.000238029
0.000227577
0.00021802
0.000209246
0.000200655
0.000191705
0.000181764
0.000169775
)
;
    }
    heatsource1
    {
        type            compressible::alphatWallFunction;
        Prt             0.85;
        value           nonuniform List<scalar> 3(0.000110878 0.000100606 8.34448e-05);
    }
    heatsource2
    {
        type            compressible::alphatWallFunction;
        Prt             0.85;
        value           nonuniform List<scalar> 4(0.000153034 0.000134245 0.000134244 0.000137429);
    }
    Table_master
    {
        type            compressible::alphatWallFunction;
        Prt             0.85;
        value           nonuniform List<scalar> 9(0.000179776 0.000158162 0.000140461 0.000125956 0.000113971 0.000103979 9.56114e-05 8.89088e-05 8.42503e-05);
    }
    Table_slave
    {
        type            compressible::alphatWallFunction;
        Prt             0.85;
        value           nonuniform List<scalar> 9(0.000199532 0.000182761 0.00016927 0.000157281 0.000145815 0.000134272 0.000122202 0.000109142 9.37636e-05);
    }
    inlet
    {
        type            fixedValue;
        value           uniform 1.94e-05;
    }
    outlet
    {
        type            zeroGradient;
    }
}


// ************************************************************************* //
