/*--------------------------------*- C++ -*----------------------------------*\
  =========                 |
  \\      /  F ield         | OpenFOAM: The Open Source CFD Toolbox
   \\    /   O peration     | Website:  https://openfoam.org
    \\  /    A nd           | Version:  6
     \\/     M anipulation  |
\*---------------------------------------------------------------------------*/
FoamFile
{
    version     2.0;
    format      ascii;
    class       volScalarField;
    location    "900";
    object      epsilon;
}
// * * * * * * * * * * * * * * * * * * * * * * * * * * * * * * * * * * * * * //

dimensions      [0 2 -3 0 0 0 0];

internalField   nonuniform List<scalar> 
459
(
0.000102403
0.000112695
7.35228e-05
7.53803e-05
7.95543e-05
8.39098e-05
8.86303e-05
9.40602e-05
9.95682e-05
0.000105206
0.000110883
0.000116335
0.000121159
0.000124729
0.000125197
1.23488e-05
1.03573e-05
6.46722e-06
4.08301e-06
3.31663e-06
3.19384e-06
3.38326e-06
3.89547e-06
4.49942e-06
5.06469e-06
5.43236e-06
5.44048e-06
5.50297e-06
6.05811e-06
7.48896e-06
1.03369e-05
1.41429e-05
2.79482e-05
2.1469e-05
0.000556814
0.00112405
0.000139505
6.57166e-05
5.91448e-05
5.91536e-05
6.04495e-05
6.26251e-05
6.53905e-05
6.9032e-05
7.4026e-05
8.09407e-05
9.03971e-05
0.000102971
0.000121241
0.000170354
3.71859e-05
2.94154e-05
2.92156e-05
1.40056e-05
8.92072e-06
7.79597e-06
7.7316e-06
7.97409e-06
9.58311e-06
1.14054e-05
1.30477e-05
1.45095e-05
1.62021e-05
1.86746e-05
2.28792e-05
2.94279e-05
3.6696e-05
5.25646e-05
0.000128376
6.76576e-05
0.00154183
0.00397274
0.000535863
0.000144151
9.72913e-05
8.76209e-05
8.40799e-05
8.25455e-05
8.22998e-05
8.33612e-05
8.62029e-05
9.13252e-05
9.91187e-05
0.000109633
0.000123141
0.00014528
0.00020341
6.48351e-05
3.97095e-05
1.81595e-05
1.35783e-05
1.24615e-05
1.18444e-05
8.87399e-06
1.0606e-05
1.29236e-05
1.58762e-05
1.99138e-05
2.58987e-05
3.54914e-05
5.25953e-05
8.71007e-05
6.98721e-05
0.000110578
0.000293012
0.000138174
0.00319314
0.00886365
0.0017191
0.00044751
0.000235389
0.000177547
0.000150395
0.000133566
0.000122827
0.000116302
0.00011369
0.000115063
0.000120248
0.000128275
0.000136999
0.000143757
0.00014984
0.000174386
5.51965e-05
3.57595e-05
2.82711e-05
2.95915e-05
3.43381e-05
4.2915e-05
5.86139e-05
5.82501e-05
5.86691e-05
5.98625e-05
6.22783e-05
6.65846e-05
7.40363e-05
8.75407e-05
0.000115086
7.67474e-05
0.000121681
0.000283588
0.000137894
0.0054462
0.0149097
0.00420677
0.00140095
0.000706669
0.000456224
0.000331049
0.00025657
0.000208841
0.00017906
0.000161413
0.000153664
0.000153998
0.000160001
0.000167698
0.000170505
0.000159657
0.000127283
8.40905e-05
5.92553e-05
5.04551e-05
4.82807e-05
4.85967e-05
4.94081e-05
4.98445e-05
4.91954e-05
4.87424e-05
4.86327e-05
4.90062e-05
5.00527e-05
5.20336e-05
5.53227e-05
6.01572e-05
6.50806e-05
7.54319e-05
9.13938e-05
0.000109276
7.71853e-05
8.52192e-05
0.000100416
0.00815023
0.0197775
0.00848398
0.00378283
0.00206388
0.00125573
0.000815777
0.000562243
0.000405938
0.000305342
0.0002449
0.000212129
0.000198316
0.00019735
0.000203678
0.000208762
0.000201163
0.000173684
0.000138276
0.000111554
9.6024e-05
8.73801e-05
8.29683e-05
8.07489e-05
7.92152e-05
7.78171e-05
7.67492e-05
7.60438e-05
7.5741e-05
7.59405e-05
7.67773e-05
7.84326e-05
8.10544e-05
8.41716e-05
8.62854e-05
8.54654e-05
8.24086e-05
8.73125e-05
0.00011561
0.000186098
0.0105594
0.0203734
0.0138246
0.00849836
0.0050498
0.00302259
0.00186838
0.00120084
0.000801688
0.000558442
0.000407011
0.000314337
0.000264471
0.000243144
0.000241465
0.000248725
0.000248962
0.000233092
0.00020684
0.000181649
0.000162595
0.000149472
0.000141266
0.000136413
0.00013336
0.000131259
0.000129831
0.000128884
0.000128357
0.00012837
0.00012916
0.00013103
0.000134141
0.00013774
0.000139229
0.00013545
0.000128123
0.000132801
0.000180012
0.00031009
0.0102202
0.0202247
0.0214799
0.0157387
0.00993501
0.00591827
0.00353968
0.00216873
0.00137321
0.000906201
0.000628574
0.000462871
0.000364263
0.000311324
0.000292727
0.000295087
0.000302898
0.000303414
0.000293399
0.000278266
0.000263322
0.000251068
0.000242416
0.000236982
0.000233818
0.000232187
0.00023161
0.000231539
0.000231723
0.00023233
0.000233772
0.000236509
0.000240726
0.000245474
0.000247499
0.000241421
0.000225771
0.000218713
0.000277188
0.00049341
0.00863427
0.0125518
0.0577918
0.0378615
0.0197393
0.0101713
0.00545394
0.00309521
0.00187277
0.00121156
0.00083993
0.000626499
0.000505127
0.000441283
0.000414001
0.000411536
0.000424458
0.000441438
0.000453118
0.000458052
0.000458329
0.00045672
0.000455408
0.000455266
0.000456478
0.000459013
0.000462562
0.000465972
0.00046879
0.000471463
0.00047478
0.00047942
0.000485448
0.000491423
0.000493221
0.000483698
0.00045607
0.000421147
0.00045375
0.000795432
0.142644
0.0982776
0.0213255
0.00813962
0.00445424
0.00276954
0.0018812
0.00138695
0.00110696
0.000951371
0.000871792
0.000840474
0.000840589
0.000861502
0.000893841
0.000930085
0.000965301
0.000995514
0.00101935
0.00103841
0.00105485
0.00106926
0.00108277
0.00109642
0.00111033
0.0011213
0.00112877
0.00113434
0.00113986
0.00114657
0.0011545
0.0011616
0.00116238
0.00114636
0.0010979
0.00100981
0.000991779
0.00137712
0.0877405
0.0401258
0.0142534
0.00676192
0.00410606
0.00301404
0.00250139
0.00224597
0.002132
0.00210601
0.00213645
0.00220259
0.00229032
0.00238869
0.00248753
0.00257723
0.0026515
0.00270953
0.00275412
0.00278893
0.00281771
0.00284434
0.00287137
0.00290053
0.00293164
0.00295577
0.00297145
0.00298261
0.00299339
0.00300589
0.00301925
0.00302845
0.00302259
0.00298445
0.00289927
0.00278784
0.00291592
0.00258291
0.00113113
0.00256271
0.0267498
0.0149752
0.00686104
0.00341934
0.00261604
0.00225295
0.00203666
0.00189458
0.00180038
0.00174125
0.00170836
0.00169484
0.00169537
0.00170577
0.00172227
0.00174117
0.00175915
0.00177375
0.00178393
0.00179001
0.00179284
0.00179333
0.00179243
0.00179072
0.00178835
0.00178784
0.00178607
0.00178119
0.00177328
0.00176261
0.00174869
0.00172948
0.00170076
0.00165561
0.00158489
0.00148075
0.00135249
0.00092802
)
;

boundaryField
{
    floor
    {
        Cmu             0.09;
        kappa           0.41;
        E               9.8;
        type            epsilonWallFunction;
        value           nonuniform List<scalar> 
29
(
0.000125197
1.23488e-05
1.03573e-05
6.46722e-06
4.08301e-06
3.31663e-06
3.19384e-06
3.38326e-06
3.89547e-06
4.49942e-06
5.06469e-06
5.43236e-06
5.44048e-06
5.50297e-06
6.05811e-06
7.48896e-06
1.03369e-05
1.41429e-05
2.79482e-05
2.1469e-05
2.1469e-05
6.76576e-05
0.000138174
0.000137894
0.000125197
1.23488e-05
2.94154e-05
6.48351e-05
0.000174386
)
;
    }
    ceiling
    {
        Cmu             0.09;
        kappa           0.41;
        E               9.8;
        type            epsilonWallFunction;
        value           nonuniform List<scalar> 
43
(
0.00113113
0.00256271
0.0267498
0.0149752
0.00686104
0.00341934
0.00261604
0.00225295
0.00203666
0.00189458
0.00180038
0.00174125
0.00170836
0.00169484
0.00169537
0.00170577
0.00172227
0.00174117
0.00175915
0.00177375
0.00178393
0.00179001
0.00179284
0.00179333
0.00179243
0.00179072
0.00178835
0.00178784
0.00178607
0.00178119
0.00177328
0.00176261
0.00174869
0.00172948
0.00170076
0.00165561
0.00158489
0.00148075
0.00135249
0.00092802
0.00863427
0.0125518
0.0877405
)
;
    }
    sWall
    {
        Cmu             0.09;
        kappa           0.41;
        E               9.8;
        type            epsilonWallFunction;
        value           uniform 0.00113113;
    }
    nWall
    {
        Cmu             0.09;
        kappa           0.41;
        E               9.8;
        type            epsilonWallFunction;
        value           nonuniform List<scalar> 6(0.000100416 0.000186098 0.00031009 0.00137712 0.00258291 0.00092802);
    }
    sideWalls
    {
        type            empty;
    }
    glass1
    {
        Cmu             0.09;
        kappa           0.41;
        E               9.8;
        type            epsilonWallFunction;
        value           nonuniform List<scalar> 9(0.000102403 0.000556814 0.00154183 0.00319314 0.0054462 0.00815023 0.0105594 0.0102202 0.00863427);
    }
    glass2
    {
        Cmu             0.09;
        kappa           0.41;
        E               9.8;
        type            epsilonWallFunction;
        value           nonuniform List<scalar> 2(0.00049341 0.000795432);
    }
    sun
    {
        Cmu             0.09;
        kappa           0.41;
        E               9.8;
        type            epsilonWallFunction;
        value           nonuniform List<scalar> 
14
(
0.000102403
0.000112695
7.35228e-05
7.53803e-05
7.95543e-05
8.39098e-05
8.86303e-05
9.40602e-05
9.95682e-05
0.000105206
0.000110883
0.000116335
0.000121159
0.000124729
)
;
    }
    heatsource1
    {
        Cmu             0.09;
        kappa           0.41;
        E               9.8;
        type            epsilonWallFunction;
        value           nonuniform List<scalar> 3(7.71853e-05 8.52192e-05 0.000100416);
    }
    heatsource2
    {
        Cmu             0.09;
        kappa           0.41;
        E               9.8;
        type            epsilonWallFunction;
        value           nonuniform List<scalar> 4(0.000170354 3.71859e-05 3.71859e-05 0.00020341);
    }
    Table_master
    {
        Cmu             0.09;
        kappa           0.41;
        E               9.8;
        type            epsilonWallFunction;
        value           nonuniform List<scalar> 9(8.87399e-06 1.0606e-05 1.29236e-05 1.58762e-05 1.99138e-05 2.58987e-05 3.54914e-05 5.25953e-05 8.71007e-05);
    }
    Table_slave
    {
        Cmu             0.09;
        kappa           0.41;
        E               9.8;
        type            epsilonWallFunction;
        value           nonuniform List<scalar> 9(5.86139e-05 5.82501e-05 5.86691e-05 5.98625e-05 6.22783e-05 6.65846e-05 7.40363e-05 8.75407e-05 0.000115086);
    }
    inlet
    {
        type            turbulentMixingLengthDissipationRateInlet;
        mixingLength    0.01;
        phi             phi;
        k               k;
        value           uniform 3.77337e-06;
    }
    outlet
    {
        type            zeroGradient;
    }
}


// ************************************************************************* //
