// -*- C++ -*-
// File generated by PyFoam - sorry for the ugliness

FoamFile
{
 version 2.0;
 format ascii;
 class volScalarField;
 location "900";
 object T;
}

dimensions [ 0 0 0 1 0 0 0 ];

internalField nonuniform List<scalar> 459
(
  307.194
  306.999
  306.994
  306.998
  307
  307.001
  307.002
  307.002
  307.002
  307
  306.997
  306.993
  306.986
  306.977
  306.964
  306.072
  306.043
  306.012
  305.991
  305.99
  306.001
  306.015
  306.026
  306.034
  306.041
  306.046
  306.047
  306.05
  306.062
  306.09
  306.14
  306.184
  306.264
  306.353
  307.359
  307.097
  307.08
  307.083
  307.088
  307.091
  307.092
  307.091
  307.088
  307.083
  307.075
  307.062
  307.045
  307.02
  306.988
  306.956
  306.842
  306.192
  306.222
  306.221
  306.224
  306.233
  306.241
  306.245
  306.249
  306.256
  306.269
  306.29
  306.321
  306.355
  306.396
  306.45
  306.507
  306.481
  306.461
  306.542
  307.511
  307.197
  307.162
  307.162
  307.167
  307.171
  307.173
  307.172
  307.17
  307.164
  307.154
  307.137
  307.112
  307.076
  307.026
  306.968
  306.914
  306.488
  306.494
  306.509
  306.525
  306.528
  306.513
  306.452
  306.479
  306.51
  306.542
  306.576
  306.613
  306.658
  306.713
  306.781
  306.846
  306.822
  306.762
  306.758
  307.654
  307.318
  307.277
  307.268
  307.267
  307.267
  307.265
  307.263
  307.259
  307.253
  307.243
  307.226
  307.199
  307.159
  307.101
  307.022
  306.921
  306.82
  306.759
  306.835
  306.894
  306.943
  306.977
  306.999
  307.016
  307.018
  307.018
  307.019
  307.02
  307.021
  307.022
  307.021
  307.018
  307.006
  307.003
  306.994
  306.958
  307.792
  307.458
  307.432
  307.425
  307.412
  307.399
  307.385
  307.373
  307.361
  307.351
  307.34
  307.324
  307.302
  307.269
  307.225
  307.172
  307.116
  307.065
  307.031
  307.033
  307.045
  307.059
  307.068
  307.072
  307.073
  307.072
  307.071
  307.071
  307.071
  307.071
  307.073
  307.074
  307.076
  307.076
  307.08
  307.085
  307.095
  307.11
  307.119
  307.128
  307.923
  307.612
  307.622
  307.633
  307.602
  307.571
  307.541
  307.513
  307.488
  307.465
  307.445
  307.426
  307.404
  307.375
  307.337
  307.293
  307.246
  307.204
  307.173
  307.156
  307.147
  307.142
  307.138
  307.135
  307.13
  307.126
  307.123
  307.12
  307.118
  307.116
  307.115
  307.115
  307.115
  307.114
  307.114
  307.114
  307.117
  307.123
  307.133
  307.143
  308.051
  307.783
  307.84
  307.828
  307.788
  307.743
  307.701
  307.662
  307.626
  307.593
  307.563
  307.534
  307.506
  307.477
  307.443
  307.402
  307.361
  307.321
  307.288
  307.262
  307.243
  307.228
  307.217
  307.207
  307.198
  307.191
  307.184
  307.178
  307.172
  307.167
  307.163
  307.159
  307.155
  307.15
  307.145
  307.139
  307.135
  307.137
  307.143
  307.153
  308.21
  308.027
  307.995
  307.953
  307.907
  307.859
  307.814
  307.771
  307.731
  307.695
  307.663
  307.633
  307.602
  307.57
  307.537
  307.501
  307.464
  307.428
  307.394
  307.365
  307.341
  307.32
  307.303
  307.289
  307.276
  307.264
  307.253
  307.243
  307.234
  307.225
  307.217
  307.209
  307.201
  307.192
  307.181
  307.17
  307.16
  307.154
  307.154
  307.161
  308.426
  308.339
  308.031
  307.952
  307.904
  307.867
  307.833
  307.801
  307.769
  307.74
  307.712
  307.686
  307.661
  307.636
  307.608
  307.579
  307.548
  307.517
  307.487
  307.459
  307.433
  307.411
  307.39
  307.372
  307.355
  307.339
  307.325
  307.311
  307.298
  307.285
  307.272
  307.26
  307.248
  307.235
  307.221
  307.206
  307.19
  307.176
  307.168
  307.167
  307.107
  307.634
  307.738
  307.763
  307.764
  307.756
  307.744
  307.728
  307.712
  307.695
  307.678
  307.66
  307.641
  307.621
  307.599
  307.576
  307.553
  307.529
  307.506
  307.483
  307.462
  307.442
  307.423
  307.405
  307.387
  307.37
  307.353
  307.337
  307.321
  307.305
  307.289
  307.272
  307.255
  307.236
  307.217
  307.198
  307.182
  307.172
  307.218
  307.499
  307.564
  307.618
  307.661
  307.683
  307.692
  307.692
  307.687
  307.679
  307.67
  307.659
  307.646
  307.632
  307.617
  307.601
  307.583
  307.565
  307.546
  307.526
  307.506
  307.487
  307.467
  307.448
  307.429
  307.41
  307.391
  307.372
  307.354
  307.335
  307.316
  307.297
  307.277
  307.255
  307.233
  307.21
  307.187
  307.174
  309.965
  309.605
  307.468
  307.466
  307.483
  307.521
  307.574
  307.609
  307.629
  307.638
  307.642
  307.641
  307.638
  307.632
  307.625
  307.616
  307.607
  307.595
  307.583
  307.569
  307.555
  307.539
  307.522
  307.505
  307.487
  307.469
  307.45
  307.431
  307.411
  307.391
  307.371
  307.35
  307.328
  307.306
  307.283
  307.258
  307.23
  307.197
  307.155
  307.09
)
;

boundaryField
{
  floor
  {
    type wallHeatTransfer;
    Tinf uniform 305.2;
    alphaWall uniform 0.24;
    value nonuniform List<scalar> 29
(
  306.708
  305.862
  305.833
  305.791
  305.756
  305.747
  305.753
  305.765
  305.779
  305.791
  305.801
  305.808
  305.809
  305.811
  305.824
  305.854
  305.906
  305.954
  306.048
  306.105
  306.105
  306.318
  306.537
  306.709
  306.708
  305.862
  305.993
  306.271
  306.603
)
;
  }
  ceiling
  {
    type wallHeatTransfer;
    Tinf uniform 303.2;
    alphaWall uniform 0.24;
    value nonuniform List<scalar> 43
(
  309.394
  309.17
  307.317
  307.288
  307.261
  307.25
  307.28
  307.301
  307.31
  307.313
  307.312
  307.308
  307.303
  307.298
  307.291
  307.284
  307.275
  307.266
  307.256
  307.244
  307.231
  307.216
  307.201
  307.185
  307.169
  307.151
  307.134
  307.116
  307.098
  307.079
  307.06
  307.04
  307.02
  306.998
  306.975
  306.95
  306.92
  306.885
  306.838
  306.747
  308.172
  308.114
  307.116
)
;
  }
  sWall
  {
    type wallHeatTransfer;
    Tinf uniform 315.2;
    alphaWall uniform 0.36;
    value uniform 310.603;
  }
  nWall
  {
    type wallHeatTransfer;
    Tinf uniform 307.2;
    alphaWall uniform 0.36;
    value nonuniform List<scalar> 6
(
  307.143
  307.154
  307.161
  307.175
  307.176
  307.104
)
;
  }
  sideWalls
  {
    type empty;
  }
  glass1
  {
    type wallHeatTransfer;
    Tinf uniform 315.2;
    alphaWall uniform 4.3;
    value nonuniform List<scalar> 9
(
  313.326
  312.618
  312.152
  311.823
  311.599
  311.45
  311.381
  311.483
  311.682
)
;
  }
  glass2
  {
    type wallHeatTransfer;
    Tinf uniform 307.2;
    alphaWall uniform 4.3;
    value nonuniform List<scalar> 2
(
  307.187
  307.188
)
;
  }
  sun
  {
    type wallHeatTransfer;
    Tinf uniform 305.2;
    alphaWall uniform 0.24;
    value nonuniform List<scalar> 14
(
  306.89
  306.731
  306.699
  306.704
  306.709
  306.714
  306.718
  306.723
  306.726
  306.728
  306.729
  306.728
  306.725
  306.719
)
;
  }
  heatsource1
  {
    type fixedGradient;
    gradient uniform 0;
  }
  heatsource2
  {
    type fixedGradient;
    gradient uniform 0;
  }
  Table_master
  {
    type zeroGradient;
  }
  Table_slave
  {
    type zeroGradient;
  }
  inlet
  {
    type fixedValue;
    value uniform 299.15;
  }
  outlet
  {
    type zeroGradient;
  }
} 	// ************************************************************************* //

