/*--------------------------------*- C++ -*----------------------------------*\
  =========                 |
  \\      /  F ield         | OpenFOAM: The Open Source CFD Toolbox
   \\    /   O peration     | Website:  https://openfoam.org
    \\  /    A nd           | Version:  6
     \\/     M anipulation  |
\*---------------------------------------------------------------------------*/
FoamFile
{
    version     2.0;
    format      ascii;
    class       surfaceScalarField;
    location    "460";
    object      phi;
}
// * * * * * * * * * * * * * * * * * * * * * * * * * * * * * * * * * * * * * //

dimensions      [1 0 -1 0 0 0 0];

internalField   nonuniform List<scalar> 
852
(
-0.00200653
0.00202843
-0.00286446
0.000857926
-0.00346256
0.00059809
-0.00384742
0.000384854
-0.00398928
0.000141861
-0.00385451
-0.00013478
-0.0034143
-0.000440214
-0.00268586
-0.000728447
-0.00175037
-0.000935502
-0.000742748
-0.00100763
0.000163354
-0.000906113
0.000737122
-0.000573778
0.000980691
-0.000243579
0.000811082
0.000169599
0.000809265
-6.43116e-05
6.1601e-05
-3.84536e-06
-6.04867e-05
0.000375936
-0.000379799
0.000815284
-0.000439366
0.00119858
-0.000383317
0.00148618
-0.000287616
0.00164269
-0.000156533
0.00170569
-6.30168e-05
0.00173322
-2.75498e-05
0.00174573
-1.25309e-05
0.00174705
-1.33825e-06
0.00173773
9.29886e-06
0.00171394
2.37666e-05
0.00166204
5.18872e-05
0.00154871
0.000113303
0.00131596
0.000232724
0.00091254
0.000403401
0.000274521
0.000637996
0.00027086
-0.00150059
0.00359007
-0.00228365
0.00164098
-0.00288171
0.00119614
-0.0032716
0.000774737
-0.00342843
0.000298692
-0.00331879
-0.000244426
-0.00292379
-0.000835218
-0.00228033
-0.00137192
-0.00149071
-0.00172512
-0.000689997
-0.00180836
3.8969e-06
-0.00160002
0.000542461
-0.00111235
0.000882185
-0.000583313
0.00109451
-4.27418e-05
0.00142608
0.000477689
0.000773935
0.000652083
0.000773873
-8.63379e-05
0.000141721
0.000454514
-0.000601355
0.00082136
-0.000746662
0.00113578
-0.000753799
0.00140277
-0.000650333
0.00159939
-0.000484256
0.00164421
-0.000201363
0.00165296
-7.17875e-05
0.00166183
-3.64428e-05
0.00166912
-1.98452e-05
0.00167352
-5.75073e-06
0.00167513
7.66648e-06
0.00167297
2.59052e-05
0.0016624
6.24296e-05
0.00160896
0.000166729
0.00139971
0.000441946
0.00104414
0.000758944
0.000600471
0.00108164
0.000861357
-0.00109956
0.00478544
-0.00174807
0.00228949
-0.00228372
0.00173178
-0.00263855
0.00112957
-0.0027946
0.000454734
-0.00269838
-0.000340657
-0.00232506
-0.00120853
-0.00174179
-0.0019552
-0.00106614
-0.00240078
-0.000416814
-0.00245768
0.000121196
-0.00213804
0.000565689
-0.00155686
0.000886802
-0.000904439
0.00110263
-0.000258583
0.00122169
0.00035862
0.000980333
0.000893426
0.00175419
0.000637058
-0.000504794
0.000969457
-0.000933768
0.00124677
-0.00102399
0.00142693
-0.000933978
0.00156986
-0.00079328
0.00175676
-0.000671179
0.00155554
0.00148388
0.00144757
0.00142786
0.00142225
0.00143004
0.00145608
0.00151864
0.00168551
0.00145857
0.000668858
0.00119054
0.00102695
0.000793548
0.00147861
0.00163901
-0.000797162
0.00570953
-0.00127739
0.00276971
-0.00165478
0.00210917
-0.0019133
0.00138808
-0.00203276
0.000574196
-0.0019102
-0.000463221
-0.00153321
-0.00158553
-0.00101772
-0.00247069
-0.000478321
-0.00294018
1.50714e-06
-0.00293752
0.00039501
-0.00253155
0.000723375
-0.00188524
0.000980439
-0.00116152
0.00118207
-0.000460224
0.00136915
0.000171523
0.00160849
0.000654077
0.00245383
0.000908838
0.00221253
0.000232074
0.00213187
-0.000424149
0.00190972
-0.000711628
0.00172966
-0.000843948
0.00162246
-0.000826796
0.00155317
-0.000724013
0.00143203
-0.000550052
0.00168602
-0.000254172
0.00182654
-0.000140698
0.00193029
-0.000103927
0.00201344
-8.33281e-05
0.00207152
-5.82582e-05
0.0020877
-1.6359e-05
0.002034
5.35166e-05
0.00186963
0.000164192
0.001526
0.000343441
0.00146865
0.000726181
0.00132938
0.0011662
0.00111133
0.00169664
0.0027294
-0.00057397
0.00643807
-0.000889078
0.00308481
-0.00100317
0.00222326
-0.00108427
0.00146917
-0.00110378
0.000593709
-0.000882143
-0.000684867
-0.000500061
-0.00196761
-9.4383e-05
-0.00287636
0.000256043
-0.00329061
0.000526397
-0.00320788
0.000740081
-0.00274525
0.000913001
-0.00205817
0.00105396
-0.00130249
0.00119248
-0.000598762
0.00137891
-1.49266e-05
0.00164702
0.00038596
0.00202919
0.000526659
0.00210942
0.000151828
0.00195426
-0.000269006
0.00176653
-0.000523913
0.00156858
-0.000646013
0.00140093
-0.000659171
0.00127084
-0.00059394
0.0011897
-0.000468943
0.00124194
-0.000306434
0.00130907
-0.000207859
0.00137373
-0.00016861
0.00143954
-0.000149168
0.00150388
-0.00012263
0.00155639
-6.89031e-05
0.00157824
3.16383e-05
0.00155213
0.000190268
0.0014856
0.000409949
0.00148529
0.000726456
0.00158337
0.00106809
0.00198358
0.00129641
0.00304661
0.00166634
0.00191662
0.00112976
0.00108446
0.000831928
0.00113017
-0.000488341
0.00710522
-0.000641673
0.00323813
-0.000378567
0.00196015
-0.000179871
0.00127047
4.81878e-05
0.000365643
0.000411601
-0.00104828
0.000745762
-0.00230177
0.000971992
-0.00310259
0.00108198
-0.0034006
0.00111214
-0.00323805
0.00109246
-0.00272558
0.00105213
-0.00201786
0.00101668
-0.00126706
0.00102082
-0.000602923
0.00110037
-9.44899e-05
0.00126175
0.000224558
0.00147853
0.000309866
0.00153035
9.99901e-05
0.00142653
-0.000165197
0.00126366
-0.000361062
0.00108203
-0.000464411
0.000912281
-0.000489443
0.000774955
-0.00045664
0.000690454
-0.00038447
0.000681226
-0.000297234
0.000716946
-0.00024361
0.000773787
-0.000225482
0.000843895
-0.000219308
0.000924718
-0.000203485
0.00101442
-0.000158641
0.00110632
-6.0297e-05
0.00118856
0.000108002
0.00126477
0.000333703
0.00138577
0.00060542
0.00158088
0.000872957
0.00182707
0.00105018
0.00213622
0.00135717
0.00189443
0.00137152
0.00116513
0.0015612
0.0023414
-0.00051496
0.00782101
-0.000329843
0.00305301
0.000446144
0.00118415
0.00097542
0.000741187
0.00148711
-0.000146052
0.00191924
-0.00148042
0.00212968
-0.00251221
0.00212199
-0.00309489
0.00194398
-0.00322259
0.00166442
-0.0029585
0.00134525
-0.00240642
0.00104144
-0.00171408
0.000792061
-0.0010177
0.000639821
-0.000450706
0.00060197
-5.66582e-05
0.00066835
0.000158159
0.000778331
0.000199867
0.000801697
7.66053e-05
0.000727353
-9.08735e-05
0.000591923
-0.000225656
0.000431246
-0.00030376
0.00027452
-0.000332745
0.000145483
-0.000327632
6.42038e-05
-0.000303222
4.28282e-05
-0.000275891
6.58104e-05
-0.000266625
0.000113216
-0.000272922
0.000175308
-0.000281435
0.000251731
-0.000279942
0.000349775
-0.000256721
0.000482723
-0.000193281
0.00064722
-5.65303e-05
0.000826138
0.000154751
0.00103196
0.000399568
0.00127226
0.00063262
0.00150063
0.000821782
0.00177984
0.00107794
0.00194907
0.00120226
0.0017336
0.00177664
0.00412281
0.00156083
0.00648567
0.00209287
0.00252096
0.00240548
0.000871536
0.00296371
0.000182953
0.00358458
-0.000766929
0.00381582
-0.00171166
0.00368467
-0.00238106
0.00326648
-0.00267669
0.00266465
-0.00262077
0.001988
-0.00228186
0.00132022
-0.00173866
0.000744177
-0.00113807
0.000301767
-0.00057532
3.91985e-05
-0.000188165
-5.73014e-05
3.98171e-05
-3.90888e-05
0.000139924
1.51946e-05
0.000145561
2.00395e-05
7.17364e-05
-4.51198e-05
-2.57402e-05
-0.000162516
-0.000108287
-0.000302125
-0.000164181
-0.000436435
-0.000198467
-0.000544976
-0.000219124
-0.000615096
-0.000233136
-0.000643363
-0.000247659
-0.000641999
-0.000268024
-0.00062494
-0.000290016
-0.000600441
-0.00030597
-0.000570074
-0.000310345
-0.000526392
-0.000300439
-0.000448332
-0.000271375
-0.000294882
-0.000210016
-6.63897e-05
-7.37759e-05
0.000201864
0.00013128
0.000479541
0.000354909
0.000723669
0.000577622
0.000994531
0.000807046
0.00122703
0.000969733
0.000781842
0.0022218
0.00510186
0.00671894
0.00922448
0.00822412
0.00187189
0.00768694
0.000720135
0.00708507
-0.000165056
0.00622154
-0.000848114
0.00514866
-0.00130816
0.00396941
-0.00149744
0.00278816
-0.00143954
0.00169727
-0.00119098
0.000736457
-0.000777885
-4.63328e-06
-0.000397012
-0.00047472
-0.000105265
-0.000704877
4.19629e-05
-0.000780284
0.000115197
-0.000779579
0.000139193
-0.000762663
0.000128617
-0.000777059
8.61029e-05
-0.000835013
3.2183e-05
-0.000927471
-1.5862e-05
-0.00103627
-5.54178e-05
-0.00114164
-9.31342e-05
-0.00123153
-0.000129265
-0.00130225
-0.000162457
-0.0013547
-0.000195238
-0.0013961
-0.000226667
-0.00143518
-0.000250972
-0.00148158
-0.000259602
-0.0015478
-0.000244159
-0.00164627
-0.000202
-0.00178952
-0.00012816
-0.00198273
-1.68428e-05
-0.00222159
0.000165052
-0.00252084
0.000430496
-0.0029617
0.000795745
-0.00366519
0.00128108
-0.00476007
0.0019019
-0.00628157
0.0024912
-0.00639916
0.00233937
-0.00108395
0.00593167
0.00236474
0.00517076
0.00148107
0.00465008
0.000355652
0.00398454
-0.000182572
0.00307721
-0.000400847
0.00204613
-0.000466382
0.00100986
-0.000403297
5.5535e-05
-0.000236694
-0.000690666
-3.17279e-05
-0.00114876
6.10404e-05
-0.00137126
0.000117203
-0.00146293
0.000133598
-0.00148458
0.000136815
-0.00148047
0.000135056
-0.00147642
0.000124533
-0.00149207
0.000101716
-0.00153147
7.15513e-05
-0.0015874
4.00271e-05
-0.00165257
9.72432e-06
-0.00172494
-2.08015e-05
-0.00180318
-5.10643e-05
-0.00188875
-7.69216e-05
-0.00198153
-0.000102503
-0.00208172
-0.000126508
-0.00218855
-0.000144179
-0.00230087
-0.000147314
-0.00242117
-0.000123894
-0.00254992
-7.32847e-05
-0.00268808
9.96998e-06
-0.00282975
0.00012479
-0.00295576
0.000291036
-0.00306533
0.000540033
-0.00315426
0.000884645
-0.00320752
0.00133431
-0.00319014
0.00188448
-0.00297472
0.00227575
-0.00143031
0.000794921
-0.00246383
0.000104198
0.00225399
0.000500857
0.0010844
0.000348784
0.0005077
3.08673e-05
0.000135307
-0.000381644
1.16146e-05
-0.000870605
2.25353e-05
-0.00134441
7.04689e-05
-0.00170565
0.000124499
-0.00189705
0.000159629
-0.00199653
0.000160491
-0.00202807
0.0001487
-0.00202462
0.000130118
-0.00200303
0.000115189
-0.00197307
0.000105064
-0.00194415
9.55686e-05
-0.00192504
8.2575e-05
-0.00191962
6.60896e-05
-0.0019277
4.8067e-05
-0.00194782
2.98087e-05
-0.00198303
1.43748e-05
-0.00203557
1.43467e-06
-0.00210453
-7.99845e-06
-0.00219392
-1.31479e-05
-0.00230674
-1.37261e-05
-0.00244168
-9.27028e-06
-0.00258954
5.09079e-07
-0.00273128
1.7813e-05
-0.00284873
4.41315e-05
-0.0029205
8.17046e-05
-0.00294291
0.000147177
-0.00289192
0.000240013
-0.00272907
0.000377152
-0.00241904
0.000574577
-0.00190299
0.000818233
-0.00100318
0.000984646
0.000454135
0.000818404
0.00145186
-0.000202831
-0.000958998
-0.00578718
-0.0070304
-0.00479078
-0.00372287
-0.00323487
-0.00312244
-0.00313592
-0.00314014
-0.00309816
-0.00300401
-0.0028765
-0.00274948
-0.00263506
-0.00253968
-0.00245944
-0.0023894
-0.0023289
-0.00228141
-0.00225045
-0.00223756
-0.00224297
-0.00226387
-0.00229777
-0.00234118
-0.0023899
-0.0024395
-0.00248513
-0.00252168
-0.00254172
-0.00253632
-0.00249421
-0.00238734
-0.00218815
-0.00185207
-0.00131855
-0.000541176
0.000402783
0.00118001
0.000935193
)
;

boundaryField
{
    floor
    {
        type            calculated;
        value           nonuniform List<scalar> 
29
(
0
0
0
0
0
0
0
0
0
0
0
0
0
0
0
0
0
0
0
0
3.63395e-06
9.94952e-06
1.58678e-05
2.09066e-05
1.80614e-06
2.68588e-06
6.1984e-06
9.4419e-06
9.21609e-06
)
;
    }
    ceiling
    {
        type            calculated;
        value           nonuniform List<scalar> 
43
(
1.59059e-05
1.49329e-05
1.43372e-05
1.64487e-05
1.96533e-05
2.28311e-05
2.50496e-05
2.67155e-05
2.8448e-05
3.03067e-05
3.20852e-05
3.34279e-05
3.4251e-05
3.46954e-05
3.49057e-05
3.49901e-05
3.5024e-05
3.50518e-05
3.50888e-05
3.51341e-05
3.5185e-05
3.52383e-05
3.53008e-05
3.53736e-05
3.55324e-05
3.58366e-05
3.63316e-05
3.70195e-05
3.78196e-05
3.86997e-05
3.956e-05
4.0276e-05
4.07895e-05
4.10418e-05
4.10257e-05
4.08254e-05
4.06557e-05
4.115e-05
4.19502e-05
4.36808e-05
1.86983e-05
1.54202e-05
6.55957e-06
)
;
    }
    sWall
    {
        type            calculated;
        value           uniform -9.99635e-05;
    }
    nWall
    {
        type            calculated;
        value           nonuniform List<scalar> 6(-4.59436e-05 -4.61226e-05 -4.78398e-05 -5.04613e-05 -5.30064e-05 -6.75185e-05);
    }
    sideWalls
    {
        type            empty;
        value           nonuniform 0();
    }
    glass1
    {
        type            calculated;
        value           nonuniform List<scalar> 9(-2.19118e-05 -6.10511e-05 -9.58212e-05 -0.000126929 -0.000154571 -0.000178813 -0.000200837 -0.000225499 -0.000251977);
    }
    glass2
    {
        type            calculated;
        value           nonuniform List<scalar> 2(-0.000197241 -0.000213378);
    }
    sun
    {
        type            calculated;
        value           uniform 0;
    }
    heatsource1
    {
        type            calculated;
        value           nonuniform List<scalar> 3(2.04719e-07 2.05207e-07 2.05519e-07);
    }
    heatsource2
    {
        type            calculated;
        value           nonuniform List<scalar> 4(5.14219e-08 5.15267e-08 0 0);
    }
    Table_master
    {
        type            calculated;
        value           nonuniform List<scalar> 9(-1.53928e-07 -1.54056e-07 -1.5409e-07 -1.54109e-07 -1.54121e-07 -1.54123e-07 -1.54117e-07 -1.54099e-07 -1.54046e-07);
    }
    Table_slave
    {
        type            calculated;
        value           nonuniform List<scalar> 9(1.53806e-07 1.53814e-07 1.53772e-07 1.53735e-07 1.53708e-07 1.53697e-07 1.53695e-07 1.53715e-07 1.53777e-07);
    }
    inlet
    {
        type            calculated;
        value           uniform -0.0064245;
    }
    outlet
    {
        type            calculated;
        value           nonuniform List<scalar> 2(0.00587121 0.00122826);
    }
}


// ************************************************************************* //
