/*--------------------------------*- C++ -*----------------------------------*\
  =========                 |
  \\      /  F ield         | OpenFOAM: The Open Source CFD Toolbox
   \\    /   O peration     | Website:  https://openfoam.org
    \\  /    A nd           | Version:  6
     \\/     M anipulation  |
\*---------------------------------------------------------------------------*/
FoamFile
{
    version     2.0;
    format      ascii;
    class       volScalarField;
    location    "600";
    object      alphat;
}
// * * * * * * * * * * * * * * * * * * * * * * * * * * * * * * * * * * * * * //

dimensions      [1 -1 -1 0 0 0 0];

internalField   nonuniform List<scalar> 
459
(
0.000804217
0.000834217
0.000778631
0.000807856
0.000839081
0.000868706
0.000896915
0.00092445
0.000952415
0.00098097
0.0010056
0.0010251
0.00103868
0.00104583
0.0010422
0.000336235
0.000378395
0.000371389
0.000298251
0.000254243
0.000233155
0.000226454
0.000246749
0.000271311
0.000296326
0.000317099
0.00032687
0.000323229
0.000321784
0.000326954
0.000341525
0.000357635
0.000336212
0.000305774
0.00133425
0.00244314
0.00190953
0.0024751
0.00271847
0.00295756
0.00319828
0.00342246
0.00360356
0.00372546
0.00378569
0.00374444
0.00353514
0.0030468
0.00216126
0.00112744
0.000711496
0.000489995
0.00109624
0.00120387
0.00100994
0.000710465
0.000508439
0.000446985
0.000562848
0.000727668
0.000889425
0.00101752
0.00108683
0.00110899
0.00113389
0.0012332
0.00149326
0.00126957
0.000898146
0.000429653
0.00181395
0.00401366
0.00204405
0.00351178
0.00408855
0.00438951
0.00464151
0.00485463
0.0050218
0.00513705
0.00520476
0.0051832
0.0049973
0.00452549
0.00363345
0.00237857
0.00118482
0.000770974
0.00208135
0.00179444
0.00135461
0.000967104
0.000642954
0.000337748
0.000361509
0.000393214
0.000425765
0.000460657
0.000501112
0.000552284
0.000624426
0.000739378
0.00241247
0.00257836
0.00218616
0.00064499
0.00227872
0.00605277
0.00234414
0.00361726
0.00474394
0.00509113
0.00531028
0.00549149
0.00564813
0.0057804
0.00592253
0.00606009
0.00613061
0.00600789
0.00548188
0.00431573
0.00255033
0.0011598
0.0027916
0.00312274
0.00260289
0.00201256
0.00152965
0.00108933
0.00074369
0.000739795
0.000740989
0.00074693
0.000759301
0.000780464
0.000813801
0.000865374
0.000951203
0.00305867
0.00326529
0.0028405
0.000883525
0.00271911
0.00832705
0.00333209
0.00324685
0.00477385
0.00524767
0.00544626
0.00558391
0.00570144
0.00582209
0.00602961
0.00634383
0.0067422
0.00716471
0.007494
0.00759197
0.00736078
0.00681746
0.00648066
0.00594763
0.00546092
0.00508943
0.00477414
0.00450138
0.00426557
0.00411972
0.00398544
0.00385664
0.00373965
0.00364995
0.00360791
0.00362906
0.00371658
0.0038894
0.0038251
0.00367168
0.00318849
0.00128841
0.00111241
0.000958559
0.00313889
0.0104436
0.00542606
0.00336085
0.00411507
0.00478703
0.00513267
0.00532568
0.00541678
0.00546411
0.00566805
0.00601828
0.00652607
0.00718444
0.00788446
0.00845985
0.00873079
0.00860533
0.00821333
0.00773263
0.0072997
0.00694614
0.00665832
0.00641951
0.00620654
0.0060065
0.00580659
0.00559309
0.00535408
0.00509216
0.00483365
0.00461389
0.00444049
0.00428015
0.00409158
0.00386133
0.00352556
0.00292387
0.00212483
0.00100509
0.00351951
0.011976
0.00862543
0.00530322
0.00392346
0.00395925
0.00446431
0.00491958
0.00510021
0.00515154
0.00530559
0.00554752
0.00592819
0.00653462
0.00730257
0.00807666
0.00864286
0.00886287
0.0087709
0.00850757
0.00819868
0.00790331
0.00763893
0.00740713
0.00720199
0.007021
0.00686278
0.0067126
0.00653648
0.00629071
0.00595601
0.00556906
0.00518468
0.00481483
0.00443539
0.00401319
0.00350084
0.00286271
0.00215416
0.00102042
0.0035864
0.0115562
0.00979857
0.00832409
0.00638997
0.00522424
0.00490992
0.00502184
0.00512717
0.00514882
0.00518714
0.00528166
0.00546992
0.0058086
0.00633738
0.00701708
0.00769099
0.00817613
0.00840054
0.00841433
0.00830498
0.00813762
0.00794932
0.00776181
0.00758857
0.00744399
0.00734493
0.00730096
0.00730083
0.0072963
0.00720504
0.00697017
0.00660414
0.00614159
0.00560102
0.00498791
0.00434438
0.00368182
0.00312882
0.00162484
0.00346122
0.00407476
0.00623736
0.00683622
0.00657538
0.00604643
0.00560658
0.00533127
0.00516116
0.00507129
0.00504909
0.0050846
0.00518252
0.00536087
0.00564593
0.00605212
0.00654226
0.00701939
0.00738899
0.00761488
0.00771213
0.00771438
0.00765498
0.00756198
0.00745753
0.00736281
0.00730047
0.00729358
0.00736221
0.00751085
0.007702
0.00787802
0.00799748
0.00805289
0.00810362
0.00815762
0.00790841
0.00711387
0.00652388
0.00180129
0.0111661
0.01275
0.00887671
0.00738316
0.00653748
0.00599559
0.00563298
0.00538242
0.00522722
0.00515936
0.00517057
0.00525371
0.00540537
0.00562567
0.00590781
0.00622235
0.00652355
0.0067735
0.00695338
0.00706277
0.00711367
0.00712377
0.00711086
0.00709073
0.00707781
0.00708668
0.00713312
0.00722908
0.00737507
0.00758475
0.00784417
0.00809844
0.0082527
0.0081533
0.00774238
0.00698655
0.00574268
0.00180561
0.00509342
0.0116658
0.00902069
0.0075849
0.00670713
0.00612351
0.00574386
0.00552874
0.00541911
0.0054064
0.00549114
0.00566127
0.00589284
0.00615486
0.00641479
0.00663036
0.00677356
0.00686014
0.0069123
0.00694805
0.00697796
0.00700611
0.00703228
0.00705424
0.00706938
0.00707576
0.00707307
0.00706365
0.00705363
0.00705587
0.00708804
0.0071443
0.00708143
0.00684521
0.00636555
0.00557892
0.00479629
0.001847
0.00200303
0.00265814
0.00389331
0.00338243
0.00315859
0.00288363
0.00259004
0.00233534
0.00212193
0.00194414
0.00180736
0.00170577
0.00163368
0.001588
0.00156556
0.00156167
0.00157004
0.00158588
0.00160363
0.00161639
0.00162259
0.00162343
0.00162091
0.00161685
0.00161246
0.00160839
0.00160481
0.00160155
0.00159831
0.00159475
0.00159053
0.00158429
0.00157406
0.00155666
0.00153839
0.00151553
0.00147858
0.00141378
0.0013747
0.00145673
)
;

boundaryField
{
    floor
    {
        type            compressible::alphatWallFunction;
        Prt             0.85;
        value           nonuniform List<scalar> 
29
(
0.00014834
4.35869e-05
5.03292e-05
4.92179e-05
3.74189e-05
3.01364e-05
2.65881e-05
2.54513e-05
2.888e-05
3.29788e-05
3.71021e-05
4.04913e-05
4.20757e-05
4.14863e-05
4.12523e-05
4.20902e-05
4.44425e-05
4.703e-05
4.35913e-05
3.86541e-05
3.86535e-05
5.84141e-05
9.11701e-05
0.000125886
0.000148339
4.35863e-05
6.77426e-05
0.000109634
0.000164708
)
;
    }
    ceiling
    {
        type            compressible::alphatWallFunction;
        Prt             0.85;
        value           nonuniform List<scalar> 
43
(
0.000277873
0.000361832
0.000514622
0.000452133
0.000424462
0.000390174
0.00035318
0.000320727
0.000293243
0.000270117
0.00025217
0.000238744
0.000229162
0.000223065
0.000220064
0.000219541
0.000220661
0.000222777
0.000225148
0.00022685
0.000227677
0.000227788
0.000227451
0.000226908
0.000226322
0.000225777
0.000225297
0.000224862
0.000224427
0.00022395
0.000223384
0.000222549
0.000221179
0.000218849
0.000216398
0.000213329
0.000208356
0.000199604
0.000194304
0.000205409
0.000461915
0.000536707
0.000658381
)
;
    }
    sWall
    {
        type            compressible::alphatWallFunction;
        Prt             0.85;
        value           uniform 0.000276897;
    }
    nWall
    {
        type            compressible::alphatWallFunction;
        Prt             0.85;
        value           nonuniform List<scalar> 6(0.000136408 0.000142975 0.00014513 0.000251608 0.00025705 0.000205117);
    }
    sideWalls
    {
        type            empty;
    }
    glass1
    {
        type            compressible::alphatWallFunction;
        Prt             0.85;
        value           nonuniform List<scalar> 9(0.00011171 0.000184887 0.000248421 0.000308349 0.000364013 0.000416247 0.00046302 0.000471296 0.000456181);
    }
    glass2
    {
        type            compressible::alphatWallFunction;
        Prt             0.85;
        value           nonuniform List<scalar> 2(0.000226993 0.000250321);
    }
    sun
    {
        type            compressible::alphatWallFunction;
        Prt             0.85;
        value           nonuniform List<scalar> 
14
(
0.000114508
0.00011882
0.000110789
0.00011502
0.00011952
0.000123771
0.000127803
0.000131724
0.000135692
0.00013973
0.000143201
0.000145943
0.000147849
0.000148849
)
;
    }
    heatsource1
    {
        type            compressible::alphatWallFunction;
        Prt             0.85;
        value           nonuniform List<scalar> 3(0.000182433 0.000158159 0.000136573);
    }
    heatsource2
    {
        type            compressible::alphatWallFunction;
        Prt             0.85;
        value           nonuniform List<scalar> 4(0.000160244 0.000101006 0.000101005 0.00016819);
    }
    Table_master
    {
        type            compressible::alphatWallFunction;
        Prt             0.85;
        value           nonuniform List<scalar> 9(4.38989e-05 4.77101e-05 5.27453e-05 5.78604e-05 6.32881e-05 6.95162e-05 7.73046e-05 8.8135e-05 0.000105084);
    }
    Table_slave
    {
        type            compressible::alphatWallFunction;
        Prt             0.85;
        value           nonuniform List<scalar> 9(0.000105714 0.000105146 0.00010532 0.000106187 0.000107989 0.000111064 0.000115887 0.000123302 0.000135529);
    }
    inlet
    {
        type            fixedValue;
        value           uniform 1.94e-05;
    }
    outlet
    {
        type            zeroGradient;
    }
}


// ************************************************************************* //
