/*--------------------------------*- C++ -*----------------------------------*\
  =========                 |
  \\      /  F ield         | OpenFOAM: The Open Source CFD Toolbox
   \\    /   O peration     | Website:  https://openfoam.org
    \\  /    A nd           | Version:  6
     \\/     M anipulation  |
\*---------------------------------------------------------------------------*/
FoamFile
{
    version     2.0;
    format      ascii;
    class       surfaceScalarField;
    location    "1300";
    object      phi;
}
// * * * * * * * * * * * * * * * * * * * * * * * * * * * * * * * * * * * * * //

dimensions      [1 0 -1 0 0 0 0];

internalField   nonuniform List<scalar> 
852
(
-0.00293602
0.00299227
-0.00397349
0.00103747
-0.00476212
0.000788634
-0.00537934
0.000617223
-0.005796
0.000416655
-0.00598948
0.000193483
-0.00593794
-5.15445e-05
-0.00562368
-0.000314254
-0.00505866
-0.000565023
-0.00429433
-0.000764331
-0.00341107
-0.000883258
-0.00249764
-0.000913428
-0.0016289
-0.000868741
-0.000826951
-0.000801953
-0.000825512
-0.000674125
0.000676812
-0.000342087
-0.000332038
0.000266427
-0.000608514
0.000739286
-0.000472859
0.0010526
-0.000313317
0.00124699
-0.000194388
0.00135236
-0.000105367
0.0014045
-5.21425e-05
0.00143383
-2.93238e-05
0.00145175
-1.79247e-05
0.00146169
-9.93568e-06
0.00146458
-2.89749e-06
0.00145855
6.03286e-06
0.00143512
2.34266e-05
0.00137188
6.32411e-05
0.00123104
0.000140839
0.000998009
0.000233035
0.000706519
0.000291491
0.00071013
-0.00209444
0.00523818
-0.0030989
0.00204193
-0.0039044
0.00159413
-0.00450835
0.00122117
-0.00491509
0.00082339
-0.00511108
0.000389474
-0.00507109
-9.1534e-05
-0.00478042
-0.000604923
-0.00426201
-0.00108343
-0.00357688
-0.00144946
-0.00280703
-0.0016531
-0.00203308
-0.00168739
-0.00132738
-0.00157444
-0.000778516
-0.00135082
-0.000575083
-0.00102894
-7.90135e-05
-0.000496121
-7.90647e-05
0.000381726
0.000302733
0.000805646
-0.000755957
0.00105371
-0.000856577
0.00126217
-0.000681318
0.001417
-0.000468152
0.0015073
-0.00028469
0.00152115
-0.00011921
0.00152491
-5.59098e-05
0.00152942
-3.38336e-05
0.00153316
-2.16613e-05
0.00153568
-1.2453e-05
0.00153694
-4.16181e-06
0.00153604
6.93095e-06
0.00152938
3.0087e-05
0.00148811
0.000104512
0.00131286
0.000316095
0.00101005
0.00053584
0.000628322
0.000673219
0.00134775
-0.00146582
0.00693566
-0.00232856
0.00290467
-0.00303681
0.00230239
-0.00354798
0.00173234
-0.00389795
0.00117336
-0.00406886
0.000560379
-0.00401608
-0.000144318
-0.00371714
-0.000903856
-0.00321651
-0.00158406
-0.00258977
-0.00207621
-0.00191861
-0.00232426
-0.00126739
-0.00233861
-0.00068703
-0.0021548
-0.000229363
-0.00180849
7.54472e-05
-0.00133375
0.000276948
-0.000697622
0.000197883
0.00148316
-0.00117241
0.0016971
-0.000969898
0.00167664
-0.000836114
0.00167745
-0.000682134
0.0016993
-0.000489995
0.00171055
-0.00029594
0.00159149
0.00153573
0.00150205
0.00148055
0.00146825
0.00146424
0.00147132
0.00150156
0.00160623
0.00132524
0.000597082
0.000983817
0.000877262
0.000549656
0.00110738
0.00191159
-0.0010238
0.00825939
-0.00170545
0.00358632
-0.00216648
0.00276342
-0.0024936
0.00205946
-0.00271736
0.00139712
-0.00280589
0.000648908
-0.00268452
-0.000265684
-0.00234015
-0.00124823
-0.00185578
-0.00206843
-0.00131475
-0.00261724
-0.000784338
-0.00285467
-0.000300429
-0.00282252
0.000119077
-0.0025743
0.000468918
-0.00215833
0.000775974
-0.00164081
0.00114467
-0.00106631
0.00190334
-0.000560795
0.00244022
-0.000529609
0.00203776
-0.000769955
0.00191151
-0.000843641
0.00180268
-0.000727286
0.00171024
-0.000589696
0.00166054
-0.000440291
0.0016415
-0.000276903
0.00175577
-0.000114427
0.00182881
-7.31898e-05
0.00188835
-5.96942e-05
0.00193458
-4.63773e-05
0.00195348
-1.90567e-05
0.00192389
2.94332e-05
0.001821
0.000102744
0.00161229
0.00020855
0.00124354
0.000368598
0.00111258
0.000728045
0.000825705
0.00116414
0.000387897
0.00154519
0.0023181
-0.000717976
0.00933526
-0.00123442
0.00410276
-0.00132097
0.00284997
-0.00137248
0.00211097
-0.00139364
0.00141829
-0.00130535
0.000560614
-0.00102659
-0.000544443
-0.000618547
-0.00165627
-0.000186834
-0.00250015
0.000201954
-0.00300602
0.000520777
-0.00317349
0.000766855
-0.00306859
0.000952979
-0.00276043
0.00110743
-0.00231277
0.00126072
-0.0017941
0.0014644
-0.00126999
0.00174863
-0.000845028
0.0018866
-0.000667578
0.00178946
-0.000672811
0.00161539
-0.000669572
0.00146951
-0.000581406
0.00135082
-0.000471007
0.00127003
-0.000359506
0.00124022
-0.000247088
0.00128236
-0.000156573
0.00133071
-0.000121539
0.00138401
-0.000112987
0.00143878
-0.000101155
0.00148451
-6.47808e-05
0.00150157
1.2375e-05
0.00146938
0.000134933
0.00137596
0.000301964
0.00122195
0.000522612
0.00108747
0.000862522
0.000943058
0.00130855
0.000623283
0.00186496
0.000549939
0.00239144
-0.000971014
0.00152075
-0.00143325
0.000462032
-0.00138627
-0.000626788
0.0103688
-0.000980448
0.00445642
-0.000553353
0.00242287
-0.000187652
0.00174527
9.38151e-05
0.00113682
0.000482457
0.000171973
0.00097996
-0.00104195
0.00140056
-0.00207687
0.00168677
-0.00278636
0.00183415
-0.00315341
0.001872
-0.00321134
0.00182878
-0.00302537
0.00173463
-0.00266627
0.00162564
-0.00220378
0.00153487
-0.00170333
0.00148801
-0.00122314
0.00147924
-0.000836254
0.00142501
-0.000613351
0.00128133
-0.000529132
0.00109164
-0.000479887
0.000925079
-0.000414842
0.000798422
-0.00034435
0.000717585
-0.000278669
0.000690053
-0.000219556
0.00071276
-0.000179281
0.000761468
-0.000170247
0.000825399
-0.000176918
0.000899905
-0.000175661
0.000979419
-0.000144295
0.00105214
-6.03433e-05
0.00110041
8.66591e-05
0.00111971
0.00028267
0.00111793
0.000524385
0.00114246
0.000837995
0.00124083
0.00121019
0.00142621
0.00167958
0.00186804
0.00194961
0.00212786
0.00126094
0.00173991
0.000849983
0.000410195
-0.000681505
0.0115014
-0.000560564
0.00433548
0.000575582
0.00128673
0.00137107
0.000949784
0.00205549
0.000452398
0.00275593
-0.000528468
0.00330005
-0.00158606
0.00358731
-0.00236413
0.00362225
-0.0028213
0.00345025
-0.00298141
0.00313332
-0.00289441
0.00273261
-0.00262466
0.00230133
-0.00223499
0.00188619
-0.00178864
0.00152264
-0.00133978
0.00122686
-0.000927358
0.000997403
-0.000606793
0.000799169
-0.000415118
0.000599478
-0.000329441
0.000409573
-0.000289982
0.000254483
-0.000259751
0.000143975
-0.000233842
7.9145e-05
-0.000213839
6.02299e-05
-0.00020064
8.0542e-05
-0.000199593
0.000125153
-0.000214858
0.00018475
-0.000236514
0.00025832
-0.000249231
0.000349965
-0.00023594
0.000464623
-0.000175001
0.000590289
-3.90068e-05
0.00071621
0.000156749
0.000852977
0.000387618
0.00103856
0.000652412
0.00132114
0.000927608
0.00176196
0.00123875
0.00242755
0.00128402
0.00296755
0.000720938
0.00299255
0.000824983
0.00346403
0.00259508
0.00941097
0.00329975
0.00363081
0.0037022
0.000884275
0.00439138
0.000260604
0.00520579
-0.000362009
0.00583527
-0.00115794
0.00605695
-0.00180775
0.00589939
-0.00220657
0.00543927
-0.00236119
0.00476878
-0.00231091
0.00398325
-0.00210889
0.00316677
-0.00180817
0.00238081
-0.00144903
0.00167437
-0.00108221
0.00108026
-0.000745675
0.000604951
-0.000452048
0.000253786
-0.000255628
-1.66909e-06
-0.000159663
-0.000198058
-0.000133052
-0.000352082
-0.000135958
-0.000468409
-0.000143425
-0.000549315
-0.000152936
-0.000598418
-0.000164737
-0.000619371
-0.000179687
-0.000618847
-0.000200117
-0.000606885
-0.00022682
-0.00058925
-0.000254149
-0.000565022
-0.00027346
-0.000525925
-0.000275036
-0.000453274
-0.000247653
-0.000318038
-0.000174243
-0.000135598
-2.56906e-05
7.91684e-05
0.000172852
0.000349572
0.000382009
0.00068729
0.000589889
0.00113301
0.000793034
0.00162386
0.000793175
0.00183318
0.000511621
0.0010896
0.00156855
0.00480321
0.00996453
0.0135873
0.0124563
0.00201526
0.0117491
0.000967809
0.0110934
0.000293745
0.0102134
-0.000278031
0.00906854
-0.000662835
0.00776325
-0.000901283
0.00639179
-0.000989727
0.00502773
-0.000946848
0.00373811
-0.000819265
0.00257564
-0.000645699
0.0015612
-0.000434599
0.000719295
-0.0002403
5.6812e-05
-8.31922e-05
-0.000410353
1.51168e-05
-0.000699277
3.32951e-05
-0.000878409
1.94696e-05
-0.00100527
-6.18942e-06
-0.00110706
-3.41649e-05
-0.00119005
-6.04347e-05
-0.00125695
-8.60454e-05
-0.00131145
-0.000110234
-0.00135786
-0.000133277
-0.00140274
-0.000155233
-0.00145443
-0.000175129
-0.00152051
-0.000188069
-0.00160817
-0.000185799
-0.00172607
-0.000157145
-0.00188466
-8.90601e-05
-0.00208977
3.08662e-05
-0.00232817
0.000212715
-0.00262589
0.000470566
-0.00306486
0.000820979
-0.00373707
0.0012621
-0.00470925
0.00176522
-0.00609742
0.00218135
-0.00778353
0.00219773
-0.00731035
0.00109538
-0.00223107
0.00467916
0.00351333
0.00379404
0.00185293
0.00417693
-8.91368e-05
0.00418362
-0.000284724
0.00377993
-0.000259145
0.00314936
-0.000270712
0.00239839
-0.000238759
0.00159493
-0.000143385
0.000781233
-5.56961e-06
9.26025e-06
0.000126273
-0.000630581
0.000205242
-0.00108325
0.000212365
-0.0013709
0.000204458
-0.00153489
0.000179115
-0.00163766
0.000136058
-0.00171123
9.304e-05
-0.00177246
5.50462e-05
-0.0018302
2.35773e-05
-0.0018893
-1.33868e-06
-0.00195158
-2.37643e-05
-0.00201778
-4.40354e-05
-0.00208972
-6.13399e-05
-0.00217064
-7.43092e-05
-0.00226304
-8.27268e-05
-0.00236789
-8.32211e-05
-0.00248407
-6.96191e-05
-0.00260752
-3.36982e-05
-0.0027305
3.39235e-05
-0.00284088
0.000141243
-0.00293531
0.00030715
-0.00302154
0.000556795
-0.00310499
0.000904426
-0.0031814
0.00133851
-0.00320539
0.0017892
-0.0031243
0.00210025
-0.00275846
0.00183189
-0.00149627
-0.000166807
-0.0036553
-0.000540283
0.00411832
0.000296515
0.00101613
-8.0247e-05
0.000287625
-0.000451982
8.70105e-05
-0.000780512
6.93844e-05
-0.0011402
8.89753e-05
-0.00150647
0.000127515
-0.00182643
0.000176572
-0.00205334
0.000221339
-0.00218052
0.000253453
-0.00223812
0.000262849
-0.00226369
0.000237929
-0.00226234
0.000203112
-0.00225052
0.000167289
-0.00224706
0.000132605
-0.00225684
0.000102814
-0.0022797
7.79042e-05
-0.00231343
5.73142e-05
-0.00235507
4.02965e-05
-0.00240584
2.70112e-05
-0.0024647
1.48241e-05
-0.00252947
3.43213e-06
-0.00259747
-6.31105e-06
-0.00266655
-1.36528e-05
-0.00273281
-1.69584e-05
-0.00278931
-1.31235e-05
-0.00282509
2.08228e-06
-0.00282981
3.86504e-05
-0.00279345
0.000104876
-0.00269437
0.000208071
-0.00250121
0.00036364
-0.00218722
0.000590438
-0.00173337
0.000884661
-0.00111159
0.00116742
-0.000150778
0.00113944
0.00114542
0.00053569
0.00158219
-0.000603579
-0.00199417
-0.00723194
-0.0101331
-0.00597194
-0.00493585
-0.00463705
-0.00454311
-0.00446942
-0.00437812
-0.00424989
-0.00407397
-0.00385451
-0.00360407
-0.00334537
-0.00311262
-0.00291559
-0.00275509
-0.00262985
-0.00253482
-0.00246503
-0.00241608
-0.00238432
-0.00236598
-0.0023599
-0.00236525
-0.00238031
-0.00240263
-0.00242815
-0.00244967
-0.00245578
-0.00242508
-0.00232788
-0.00212722
-0.0017707
-0.00118711
-0.000309041
0.000851998
0.00198502
0.00251406
0.00190344
)
;

boundaryField
{
    floor
    {
        type            calculated;
        value           nonuniform List<scalar> 
29
(
0
0
0
0
0
0
0
0
0
0
0
0
0
0
0
0
0
0
0
0
-3.61171e-06
-9.30121e-06
-1.41841e-05
-1.86058e-05
-1.4397e-06
-2.68678e-06
-7.64783e-06
-8.01302e-06
-7.27034e-06
)
;
    }
    ceiling
    {
        type            calculated;
        value           nonuniform List<scalar> 
43
(
-4.54246e-05
-4.41044e-05
-4.27952e-05
-1.99598e-05
-1.11816e-05
-6.92715e-06
-4.30435e-06
-2.32331e-06
-7.15198e-07
6.5158e-07
1.87409e-06
3.02219e-06
4.14126e-06
5.1835e-06
6.07768e-06
6.79666e-06
7.35655e-06
7.787e-06
8.11496e-06
8.36104e-06
8.54199e-06
8.66861e-06
8.74688e-06
8.77506e-06
8.74907e-06
8.6751e-06
8.5569e-06
8.3957e-06
8.19248e-06
7.94815e-06
7.68196e-06
7.40441e-06
7.1227e-06
6.84634e-06
6.59482e-06
6.38344e-06
6.41589e-06
6.65255e-06
7.04174e-06
8.26751e-06
1.10899e-05
8.04025e-06
-6.47101e-05
)
;
    }
    sWall
    {
        type            calculated;
        value           uniform -0.000274912;
    }
    nWall
    {
        type            calculated;
        value           nonuniform List<scalar> 6(-4.71827e-05 -5.65611e-05 -6.12855e-05 -7.20448e-05 -7.89337e-05 -9.89983e-05);
    }
    sideWalls
    {
        type            empty;
        value           nonuniform 0();
    }
    glass1
    {
        type            calculated;
        value           nonuniform List<scalar> 9(-5.6256e-05 -0.000151475 -0.000231657 -0.000299928 -0.000357896 -0.000406788 -0.000451045 -0.000504666 -0.000564653);
    }
    glass2
    {
        type            calculated;
        value           nonuniform List<scalar> 2(-0.000249582 -0.000276071);
    }
    sun
    {
        type            calculated;
        value           uniform 0;
    }
    heatsource1
    {
        type            calculated;
        value           nonuniform List<scalar> 3(2.03962e-07 2.03918e-07 2.03935e-07);
    }
    heatsource2
    {
        type            calculated;
        value           nonuniform List<scalar> 4(5.10987e-08 5.12208e-08 0 0);
    }
    Table_master
    {
        type            calculated;
        value           nonuniform List<scalar> 9(-1.5297e-07 -1.53051e-07 -1.5308e-07 -1.531e-07 -1.53114e-07 -1.53123e-07 -1.53127e-07 -1.53121e-07 -1.53088e-07);
    }
    Table_slave
    {
        type            calculated;
        value           nonuniform List<scalar> 9(1.52849e-07 1.52874e-07 1.52856e-07 1.52842e-07 1.52837e-07 1.5284e-07 1.52856e-07 1.52898e-07 1.52978e-07);
    }
    inlet
    {
        type            calculated;
        value           uniform -0.00617723;
    }
    outlet
    {
        type            calculated;
        value           nonuniform List<scalar> 2(0.00755228 0.00294522);
    }
}


// ************************************************************************* //
