// -*- C++ -*-
// File generated by PyFoam - sorry for the ugliness

FoamFile
{
 version 2.0;
 format ascii;
 class volScalarField;
 location "240";
 object T;
}

dimensions [ 0 0 0 1 0 0 0 ];

internalField nonuniform List<scalar> 459
(
  301.383
  301.343
  301.338
  301.335
  301.345
  301.445
  301.502
  301.54
  301.565
  301.58
  301.591
  301.601
  301.609
  301.617
  301.622
  302.155
  302.104
  302.07
  302.074
  302.094
  302.113
  302.13
  302.144
  302.159
  302.173
  302.188
  302.202
  302.216
  302.231
  302.246
  302.262
  302.281
  302.306
  302.355
  301.393
  301.334
  301.317
  301.309
  301.328
  301.459
  301.569
  301.643
  301.687
  301.709
  301.718
  301.717
  301.709
  301.691
  301.666
  301.676
  301.692
  302.151
  302.064
  302.028
  302.045
  302.079
  302.111
  302.133
  302.153
  302.172
  302.192
  302.211
  302.231
  302.25
  302.269
  302.286
  302.301
  302.315
  302.332
  302.374
  301.402
  301.326
  301.298
  301.281
  301.301
  301.464
  301.633
  301.751
  301.815
  301.841
  301.843
  301.829
  301.804
  301.77
  301.732
  301.716
  301.713
  302.077
  301.949
  301.971
  302.023
  302.082
  302.131
  302.146
  302.165
  302.185
  302.207
  302.23
  302.253
  302.277
  302.301
  302.32
  302.336
  302.346
  302.356
  302.387
  301.411
  301.321
  301.284
  301.256
  301.274
  301.46
  301.691
  301.861
  301.949
  301.977
  301.968
  301.936
  301.893
  301.845
  301.795
  301.761
  301.74
  301.751
  301.798
  301.86
  301.949
  302.046
  302.133
  302.2
  302.252
  302.291
  302.327
  302.362
  302.396
  302.43
  302.465
  302.502
  302.538
  302.459
  302.414
  302.394
  302.404
  301.421
  301.323
  301.282
  301.235
  301.25
  301.449
  301.739
  301.966
  302.078
  302.103
  302.078
  302.027
  301.97
  301.913
  301.859
  301.82
  301.796
  301.811
  301.864
  301.954
  302.061
  302.167
  302.259
  302.331
  302.389
  302.435
  302.472
  302.503
  302.531
  302.556
  302.58
  302.602
  302.615
  302.549
  302.48
  302.441
  302.428
  302.443
  302.469
  302.513
  301.433
  301.333
  301.293
  301.219
  301.226
  301.436
  301.778
  302.064
  302.196
  302.212
  302.168
  302.107
  302.046
  301.99
  301.94
  301.908
  301.9
  301.943
  302.03
  302.137
  302.247
  302.346
  302.427
  302.487
  302.535
  302.57
  302.595
  302.618
  302.639
  302.658
  302.674
  302.683
  302.676
  302.619
  302.55
  302.512
  302.479
  302.483
  302.501
  302.534
  301.45
  301.353
  301.301
  301.201
  301.203
  301.429
  301.821
  302.165
  302.303
  302.305
  302.26
  302.207
  302.155
  302.107
  302.071
  302.061
  302.087
  302.163
  302.264
  302.367
  302.462
  302.541
  302.601
  302.646
  302.674
  302.69
  302.705
  302.719
  302.731
  302.741
  302.745
  302.74
  302.721
  302.68
  302.631
  302.59
  302.53
  302.527
  302.538
  302.557
  301.477
  301.406
  301.301
  301.161
  301.178
  301.445
  301.895
  302.29
  302.413
  302.417
  302.385
  302.349
  302.317
  302.292
  302.28
  302.295
  302.348
  302.434
  302.524
  302.604
  302.673
  302.725
  302.759
  302.778
  302.787
  302.793
  302.8
  302.805
  302.809
  302.807
  302.799
  302.781
  302.75
  302.707
  302.661
  302.622
  302.595
  302.599
  302.609
  302.626
  301.515
  301.481
  301.204
  301.053
  301.155
  301.529
  302.066
  302.456
  302.557
  302.565
  302.554
  302.542
  302.534
  302.533
  302.545
  302.576
  302.629
  302.697
  302.761
  302.812
  302.848
  302.87
  302.881
  302.885
  302.886
  302.885
  302.885
  302.882
  302.876
  302.866
  302.848
  302.822
  302.787
  302.747
  302.708
  302.678
  302.669
  302.693
  302.755
  302.875
  300.377
  300.76
  301.231
  301.86
  302.471
  302.659
  302.715
  302.734
  302.742
  302.749
  302.757
  302.77
  302.79
  302.82
  302.857
  302.896
  302.93
  302.954
  302.968
  302.974
  302.975
  302.972
  302.968
  302.962
  302.955
  302.946
  302.935
  302.919
  302.899
  302.873
  302.843
  302.807
  302.77
  302.737
  302.72
  302.734
  302.787
  302.867
  302.179
  302.247
  302.415
  302.592
  302.736
  302.82
  302.859
  302.881
  302.897
  302.91
  302.923
  302.938
  302.956
  302.976
  302.996
  303.015
  303.03
  303.038
  303.041
  303.04
  303.036
  303.029
  303.022
  303.013
  303.003
  302.991
  302.977
  302.959
  302.939
  302.915
  302.889
  302.86
  302.83
  302.8
  302.777
  302.78
  302.812
  302.85
  302.702
  302.69
  302.68
  302.762
  302.827
  302.881
  302.928
  302.963
  302.986
  303.003
  303.016
  303.028
  303.039
  303.049
  303.059
  303.068
  303.075
  303.08
  303.082
  303.081
  303.078
  303.073
  303.066
  303.058
  303.049
  303.038
  303.027
  303.013
  302.997
  302.979
  302.958
  302.936
  302.911
  302.887
  302.864
  302.845
  302.832
  302.835
  302.875
  302.923
)
;

boundaryField
{
  floor
  {
    type wallHeatTransfer;
    Tinf uniform 299.755;
    alphaWall uniform 0.24;
    value nonuniform List<scalar> 29
(
  301.374
  301.72
  301.744
  301.741
  301.754
  301.767
  301.776
  301.775
  301.771
  301.767
  301.763
  301.76
  301.757
  301.755
  301.753
  301.751
  301.749
  301.747
  301.739
  301.742
  301.742
  301.8
  301.842
  301.896
  301.374
  301.72
  301.797
  301.747
  301.467
)
;
  }
  ceiling
  {
    type wallHeatTransfer;
    Tinf uniform 299.755;
    alphaWall uniform 0.24;
    value nonuniform List<scalar> 43
(
  302.46
  302.461
  302.466
  302.549
  302.601
  302.642
  302.677
  302.705
  302.725
  302.74
  302.752
  302.763
  302.774
  302.783
  302.793
  302.801
  302.808
  302.812
  302.813
  302.81
  302.806
  302.8
  302.792
  302.784
  302.775
  302.766
  302.755
  302.743
  302.73
  302.714
  302.696
  302.674
  302.651
  302.625
  302.597
  302.57
  302.545
  302.538
  302.58
  302.614
  301.381
  301.354
  302.036
)
;
  }
  sWall
  {
    type wallHeatTransfer;
    Tinf uniform 303.161;
    alphaWall uniform 0.36;
    value uniform 302.756;
  }
  nWall
  {
    type wallHeatTransfer;
    Tinf uniform 303.145;
    alphaWall uniform 0.36;
    value nonuniform List<scalar> 6
(
  302.683
  302.692
  302.703
  302.907
  302.887
  302.954
)
;
  }
  sideWalls
  {
    type empty;
  }
  glass1
  {
    type wallHeatTransfer;
    Tinf uniform 303.161;
    alphaWall uniform 4.3;
    value nonuniform List<scalar> 9
(
  302.663
  302.6
  302.552
  302.51
  302.475
  302.451
  302.448
  302.467
  302.499
)
;
  }
  glass2
  {
    type wallHeatTransfer;
    Tinf uniform 303.145;
    alphaWall uniform 4.3;
    value nonuniform List<scalar> 2
(
  303.03
  303.064
)
;
  }
  sun
  {
    type wallHeatTransfer;
    Tinf uniform 299.755;
    alphaWall uniform 0.24;
    value nonuniform List<scalar> 14
(
  301.18
  301.166
  301.171
  301.18
  301.196
  301.288
  301.336
  301.365
  301.381
  301.387
  301.39
  301.391
  301.39
  301.385
)
;
  }
  heatsource1
  {
    type fixedGradient;
    gradient uniform 0;
  }
  heatsource2
  {
    type fixedGradient;
    gradient uniform 0;
  }
  Table_master
  {
    type zeroGradient;
  }
  Table_slave
  {
    type zeroGradient;
  }
  inlet
  {
    type fixedValue;
    value uniform 300.15;
  }
  outlet
  {
    type zeroGradient;
  }
} 	// ************************************************************************* //

