/*--------------------------------*- C++ -*----------------------------------*\
  =========                 |
  \\      /  F ield         | OpenFOAM: The Open Source CFD Toolbox
   \\    /   O peration     | Website:  https://openfoam.org
    \\  /    A nd           | Version:  6
     \\/     M anipulation  |
\*---------------------------------------------------------------------------*/
FoamFile
{
    version     2.0;
    format      ascii;
    class       volScalarField;
    location    "80";
    object      nut;
}
// * * * * * * * * * * * * * * * * * * * * * * * * * * * * * * * * * * * * * //

dimensions      [0 2 -1 0 0 0 0];

internalField   nonuniform List<scalar> 
459
(
0.00204814
0.0023526
0.00231546
0.00217819
0.00202764
0.00188943
0.00176949
0.00166352
0.00156772
0.00147908
0.00139481
0.00131184
0.00122616
0.00113054
0.00102305
0.000693553
0.00090239
0.00100422
0.00101026
0.000996499
0.000974554
0.000932044
0.000884027
0.000839071
0.000798836
0.000763301
0.000732083
0.000704458
0.000679406
0.000656115
0.000632536
0.000605503
0.000563915
0.000500497
0.00239373
0.00731665
0.00646059
0.00573353
0.0052076
0.00484097
0.00453015
0.00424482
0.00396498
0.00367172
0.00334544
0.00296803
0.00252872
0.00202751
0.0015084
0.000997774
0.000872217
0.000982146
0.00320354
0.00282879
0.00303902
0.00330246
0.00332735
0.00253976
0.00218893
0.00194542
0.00175424
0.00159526
0.00146128
0.00135408
0.00127913
0.00118288
0.00107414
0.000992957
0.00081148
0.000526841
0.00251078
0.00904515
0.00701464
0.00585042
0.00530912
0.00512941
0.00506565
0.00499415
0.00485691
0.00462721
0.00429446
0.00385746
0.00332599
0.00272413
0.00210067
0.00151741
0.000889812
0.0009693
0.00278299
0.00299493
0.00355954
0.00406936
0.00399453
0.00116748
0.00105414
0.000955528
0.000870812
0.000796812
0.00073009
0.000668342
0.00061253
0.000576317
0.000663086
0.000824572
0.000849359
0.000548367
0.00248496
0.00883191
0.00639115
0.00505338
0.00485628
0.00516578
0.00540585
0.00547589
0.00539204
0.0051677
0.00482281
0.0043748
0.00384234
0.0032522
0.00263178
0.00201955
0.00133836
0.0009105
0.00160443
0.00243961
0.00354151
0.0045171
0.00514199
0.00490607
0.00123048
0.00112518
0.00104495
0.000980872
0.000926399
0.000878177
0.00083117
0.000780887
0.000722162
0.000669024
0.000750207
0.00093325
0.000592345
0.00244069
0.00746588
0.00552169
0.0047936
0.00528384
0.00575747
0.00592191
0.00593633
0.00582915
0.00559752
0.00526694
0.00485677
0.00437848
0.00386765
0.00334783
0.00287096
0.00248877
0.00266345
0.00354458
0.00462106
0.00556207
0.0062216
0.00655882
0.006485
0.00550893
0.00494961
0.00461663
0.00436799
0.00411693
0.0037673
0.00329774
0.00269578
0.0019803
0.00129199
0.000947064
0.00100526
0.000777052
0.000641473
0.00074318
0.00119473
0.00236108
0.00601726
0.00468446
0.00483049
0.00565717
0.00606171
0.00617347
0.00617174
0.0061078
0.00598297
0.00578812
0.00552943
0.00519366
0.00485674
0.0045642
0.00441912
0.00453661
0.00528841
0.0061804
0.00689655
0.00737488
0.0075991
0.00758523
0.00735945
0.00696022
0.0066219
0.00631884
0.00596762
0.00551057
0.00493655
0.00423783
0.00341873
0.0025154
0.00167452
0.00113958
0.00104503
0.000934855
0.000979417
0.00133024
0.00152105
0.00224754
0.00484263
0.00409761
0.00468865
0.0053647
0.0056145
0.00563931
0.00565001
0.00568609
0.00574477
0.0058139
0.00587147
0.00589957
0.00589834
0.00596211
0.00619136
0.0066668
0.00739247
0.00791186
0.00822103
0.00831551
0.00820565
0.00792983
0.00755858
0.00719141
0.00688247
0.00654385
0.00611886
0.00560212
0.00499632
0.00431225
0.00356477
0.00277551
0.00201436
0.00137423
0.00114908
0.00103018
0.00122485
0.00217006
0.00203249
0.00209777
0.00369946
0.00363728
0.00493786
0.00526597
0.00533012
0.00531153
0.00535662
0.00544734
0.00556777
0.00571615
0.00589466
0.00611178
0.00638032
0.00673178
0.00719697
0.00771875
0.0081809
0.00844862
0.00849974
0.00833748
0.007991
0.00753404
0.00705161
0.00662006
0.00625023
0.00588113
0.00549025
0.00505114
0.00456198
0.00402731
0.00345334
0.00285319
0.00226358
0.00171736
0.0013859
0.00118085
0.0014
0.00427074
0.00286319
0.00184983
0.0018853
0.00292938
0.00592334
0.00598773
0.00581708
0.00575573
0.00581699
0.00593209
0.00607489
0.00623948
0.00642869
0.0066515
0.00691847
0.00723926
0.00760359
0.00795223
0.00818984
0.00824715
0.00811373
0.00781798
0.00741796
0.0069898
0.00659334
0.00626257
0.00598041
0.00572023
0.00544645
0.00513689
0.0047779
0.00435977
0.00387845
0.00334187
0.00277791
0.002235
0.00181537
0.00165121
0.00238134
0.00677734
0.00335959
0.00170634
0.00664274
0.00705777
0.00683963
0.00670907
0.00671169
0.00683066
0.00702177
0.00723176
0.00744511
0.00766095
0.00787766
0.00808597
0.00826348
0.00837385
0.00838252
0.00828659
0.00811621
0.00791322
0.00771266
0.00753447
0.00737838
0.00724602
0.00711871
0.00698682
0.00683797
0.00665797
0.00643038
0.00613637
0.00575706
0.00527922
0.00470504
0.00407032
0.00349488
0.00331356
0.00441001
0.0078824
0.00296551
0.00269611
0.00851435
0.00869217
0.00823615
0.00793634
0.00777783
0.00783991
0.00807544
0.00831889
0.00853326
0.00871971
0.0088828
0.00902186
0.00912974
0.00919391
0.00920053
0.00914192
0.00903522
0.00891293
0.00879283
0.0086838
0.00858558
0.00849876
0.00841904
0.00834037
0.00825465
0.00814992
0.00800795
0.00780295
0.00750322
0.00707917
0.00652154
0.00587131
0.0052593
0.0049496
0.00537001
0.00616922
0.00253762
0.00109649
0.000902266
0.00126417
0.00194634
0.00213583
0.00213527
0.00208902
0.00203792
0.002027
0.00204634
0.00206544
0.00208089
0.00209392
0.00210522
0.00211465
0.00212143
0.00212454
0.00212346
0.00211937
0.00211345
0.00210578
0.00209779
0.00209039
0.0020843
0.00207913
0.00207453
0.00206997
0.00206441
0.00205633
0.00204384
0.00202506
0.00199909
0.00196774
0.0019382
0.00192678
0.00195935
0.00205879
0.00222458
0.002347
0.00212135
)
;

boundaryField
{
    floor
    {
        type            nutkWallFunction;
        Cmu             0.09;
        kappa           0.41;
        E               9.8;
        value           nonuniform List<scalar> 
29
(
0.000123432
8.39381e-05
0.00010918
0.000121227
0.000121935
0.000120314
0.000117727
0.000112696
0.000106981
0.000101597
9.67515e-05
9.24483e-05
8.86488e-05
8.52707e-05
8.21935e-05
7.93199e-05
7.63971e-05
7.30281e-05
6.78067e-05
5.97464e-05
5.97464e-05
6.31001e-05
6.58279e-05
7.136e-05
0.000123432
8.39381e-05
0.000118625
0.000117127
0.000110131
)
;
    }
    ceiling
    {
        type            nutkWallFunction;
        Cmu             0.09;
        kappa           0.41;
        E               9.8;
        value           nonuniform List<scalar> 
43
(
0.000132059
0.000109168
0.00015144
0.000227717
0.000248328
0.000248251
0.000243221
0.000237652
0.000236461
0.000238566
0.000240643
0.000242323
0.000243738
0.000244965
0.000245988
0.000246723
0.000247061
0.000246945
0.000246504
0.000245862
0.000245032
0.000244166
0.000243364
0.000242703
0.000242143
0.000241644
0.000241151
0.000240549
0.000239674
0.000238321
0.000236283
0.00023346
0.000230044
0.000226818
0.000225567
0.000229126
0.000239959
0.000257903
0.000271066
0.000246742
0.000216963
0.000220842
0.000308161
)
;
    }
    sWall
    {
        type            nutkWallFunction;
        Cmu             0.09;
        kappa           0.41;
        E               9.8;
        value           uniform 0.000132053;
    }
    nWall
    {
        type            nutkWallFunction;
        Cmu             0.09;
        kappa           0.41;
        E               9.8;
        value           nonuniform List<scalar> 6(0.00014344 0.000180583 0.00023711 0.000336562 0.00029142 0.000246737);
    }
    sideWalls
    {
        type            empty;
    }
    glass1
    {
        type            nutkWallFunction;
        Cmu             0.09;
        kappa           0.41;
        E               9.8;
        value           nonuniform List<scalar> 9(0.000238531 0.000275756 0.000288232 0.000285483 0.000280766 0.000272259 0.000260076 0.000243904 0.000216861);
    }
    glass2
    {
        type            nutkWallFunction;
        Cmu             0.09;
        kappa           0.41;
        E               9.8;
        value           nonuniform List<scalar> 2(0.000325632 0.000377304);
    }
    sun
    {
        type            nutkWallFunction;
        Cmu             0.09;
        kappa           0.41;
        E               9.8;
        value           nonuniform List<scalar> 
14
(
0.000238664
0.000271515
0.000267537
0.000252763
0.000236446
0.00022135
0.000208155
0.000196416
0.000185733
0.000175785
0.000166265
0.000156831
0.000147018
0.000135974
)
;
    }
    heatsource1
    {
        type            nutkWallFunction;
        Cmu             0.09;
        kappa           0.41;
        E               9.8;
        value           nonuniform List<scalar> 3(7.74819e-05 9.00038e-05 0.000143457);
    }
    heatsource2
    {
        type            nutkWallFunction;
        Cmu             0.09;
        kappa           0.41;
        E               9.8;
        value           nonuniform List<scalar> 4(0.000120467 0.000105573 0.000105573 0.000107674);
    }
    Table_master
    {
        type            nutkWallFunction;
        Cmu             0.09;
        kappa           0.41;
        E               9.8;
        value           nonuniform List<scalar> 9(0.000140266 0.000127083 0.000115479 0.000105398 9.64955e-05 8.83819e-05 8.07924e-05 7.38624e-05 6.9333e-05);
    }
    Table_slave
    {
        type            nutkWallFunction;
        Cmu             0.09;
        kappa           0.41;
        E               9.8;
        value           nonuniform List<scalar> 9(0.00014752 0.000135349 0.000125992 0.000118461 0.000112013 0.000106268 0.000100632 9.45598e-05 8.74092e-05);
    }
    inlet
    {
        type            calculated;
        value           uniform 6.7082e-05;
    }
    outlet
    {
        type            calculated;
        value           nonuniform List<scalar> 2(0.00109649 0.000902266);
    }
}


// ************************************************************************* //
