/*--------------------------------*- C++ -*----------------------------------*\
  =========                 |
  \\      /  F ield         | OpenFOAM: The Open Source CFD Toolbox
   \\    /   O peration     | Website:  https://openfoam.org
    \\  /    A nd           | Version:  6
     \\/     M anipulation  |
\*---------------------------------------------------------------------------*/
FoamFile
{
    version     2.0;
    format      ascii;
    class       volScalarField;
    location    "500";
    object      alphat;
}
// * * * * * * * * * * * * * * * * * * * * * * * * * * * * * * * * * * * * * //

dimensions      [1 -1 -1 0 0 0 0];

internalField   nonuniform List<scalar> 
459
(
0.00102195
0.00109455
0.00110203
0.00114591
0.00118449
0.00121876
0.0012503
0.00128088
0.00130938
0.00132741
0.00132982
0.00131198
0.00127284
0.00121838
0.00116072
0.000459151
0.00054767
0.000576875
0.000555906
0.000530816
0.000505296
0.000480023
0.000456749
0.000435868
0.000417228
0.000400564
0.000385648
0.000372187
0.000359813
0.000348065
0.00033626
0.000323269
0.00031601
0.000294209
0.00144609
0.00286223
0.00257882
0.00296967
0.00329459
0.00363337
0.00395973
0.00423234
0.00443258
0.00460685
0.00471553
0.00470899
0.00452596
0.00404923
0.00296255
0.00115514
0.000773663
0.000565441
0.000856109
0.0010255
0.00113232
0.00117176
0.00115743
0.00103688
0.000949143
0.00087925
0.000821649
0.000773225
0.000730424
0.00069026
0.000650806
0.000611669
0.000579291
0.000547451
0.000668997
0.000393985
0.00181359
0.00392852
0.00295515
0.00388501
0.00419473
0.00440954
0.00456846
0.00469811
0.00482226
0.00496426
0.00508644
0.00515147
0.00513625
0.00502919
0.00478747
0.00410802
0.00108972
0.000944256
0.00113771
0.00126508
0.0013696
0.00144124
0.00141934
0.000626651
0.000574822
0.000531143
0.000494379
0.000463312
0.000436892
0.00041431
0.000395034
0.000378761
0.000403989
0.000454504
0.000754919
0.000463196
0.00218344
0.00536775
0.00281022
0.00408223
0.0043746
0.00442553
0.00442259
0.0044483
0.00454023
0.00468419
0.00482314
0.0049177
0.00495769
0.00495178
0.00491058
0.00473983
0.00393041
0.00120645
0.00138474
0.00156871
0.00172797
0.00186765
0.00199128
0.00197609
0.00069695
0.000666798
0.000648388
0.000634997
0.000620906
0.00060379
0.000585532
0.000563918
0.000535567
0.000498871
0.000489421
0.000888372
0.000517703
0.00256843
0.00735254
0.00312337
0.00380209
0.00431347
0.00428793
0.00417762
0.00415091
0.00426771
0.00446225
0.0046273
0.00472994
0.00477038
0.00474533
0.00464132
0.00442795
0.00402105
0.00333597
0.002963
0.00278022
0.00272078
0.00275335
0.00284229
0.00292695
0.00280447
0.00279517
0.00280839
0.00280047
0.0027466
0.00260611
0.00235923
0.00202993
0.00164516
0.00123303
0.000893408
0.000887072
0.00065524
0.000689997
0.000829417
0.000921551
0.00297799
0.00956808
0.00484028
0.00342225
0.00396399
0.00412059
0.00405837
0.00397856
0.00416034
0.00440649
0.00457576
0.00466545
0.00468623
0.00463376
0.00447908
0.00418379
0.00376081
0.00334922
0.00314758
0.0031107
0.00314191
0.00320259
0.00327659
0.00336287
0.00344004
0.00351212
0.00355478
0.00355524
0.00350883
0.00341009
0.00320278
0.00288141
0.0024475
0.00192774
0.00143847
0.00102983
0.000836744
0.000768579
0.0011525
0.000955127
0.00338837
0.0113324
0.00803816
0.00475822
0.0038261
0.0037176
0.00396849
0.00413176
0.00434434
0.0045168
0.00463343
0.00468433
0.00467513
0.00459825
0.0044093
0.00406336
0.00358801
0.00319911
0.0031277
0.0032129
0.00324585
0.00324599
0.00328158
0.00336139
0.00345959
0.00354471
0.00359569
0.00360866
0.00358733
0.00353934
0.00345854
0.00321533
0.00282487
0.00233928
0.00187715
0.00143613
0.00116821
0.00110555
0.00117473
0.00103413
0.00348972
0.0108972
0.00917296
0.00765033
0.00624989
0.00534033
0.00507493
0.00488548
0.00477892
0.00476573
0.00477004
0.00474411
0.00468392
0.00457135
0.00433938
0.00393431
0.00340106
0.00308358
0.00312107
0.0030711
0.00300509
0.00299557
0.00303976
0.00311246
0.00319077
0.00325527
0.00329763
0.00332095
0.00333556
0.00335589
0.00339245
0.00338127
0.00308675
0.00271299
0.00238876
0.00222729
0.0023407
0.00286854
0.00381812
0.00169121
0.00342063
0.0041402
0.00467604
0.00490559
0.00494117
0.00482817
0.00473285
0.00471739
0.00480415
0.00486873
0.00484305
0.00475006
0.00463736
0.0044753
0.0041539
0.00363154
0.00309512
0.00289075
0.00274478
0.0026233
0.00257963
0.00259253
0.00263212
0.00267796
0.00271692
0.00273989
0.00274205
0.00272166
0.00267805
0.00261057
0.00251966
0.00241415
0.00231878
0.00225972
0.00226398
0.00232251
0.00236421
0.00231457
0.00218314
0.00158727
0.0023179
0.00412722
0.00478462
0.00507287
0.00529522
0.00549557
0.00550078
0.00523506
0.00489308
0.00460755
0.00441308
0.00413505
0.00355974
0.00288964
0.00250911
0.00227213
0.00210341
0.00203916
0.00203592
0.00205955
0.00209195
0.00212355
0.00214901
0.00216561
0.00217297
0.00217275
0.00216849
0.00216567
0.00217152
0.00219476
0.00222604
0.00227074
0.00232526
0.00236253
0.00233532
0.00222134
0.00202835
0.00131397
0.00256515
0.00492214
0.00558376
0.00566104
0.00566354
0.00566963
0.00514517
0.00436438
0.0039147
0.00369611
0.00352813
0.00290948
0.00217259
0.00178295
0.00155953
0.00143401
0.00138631
0.00139056
0.0014193
0.0014606
0.00150945
0.00156379
0.001623
0.00168716
0.00175657
0.00183117
0.00190981
0.00198931
0.00207249
0.00216554
0.00226901
0.00238024
0.00248689
0.00257085
0.00258423
0.00265896
0.00262374
0.00133292
0.00221657
0.00234415
0.00244409
0.00258187
0.00244161
0.00228357
0.00208938
0.00179145
0.00151107
0.00115173
0.00093685
0.00081923
0.00071802
0.000621666
0.00054661
0.000510766
0.000507783
0.000520299
0.000540027
0.000562628
0.000587239
0.000613508
0.000641302
0.00067062
0.000701556
0.000734295
0.000769138
0.000806562
0.000847346
0.000892796
0.000943724
0.000999544
0.00106126
0.00113009
0.00120685
0.00130191
0.00133686
0.00130904
0.00122836
0.00114242
)
;

boundaryField
{
    floor
    {
        type            compressible::alphatWallFunction;
        Prt             0.85;
        value           nonuniform List<scalar> 
29
(
0.000164729
6.2955e-05
7.65006e-05
8.09047e-05
7.77426e-05
7.39399e-05
7.00494e-05
6.61724e-05
6.25793e-05
5.93358e-05
5.64237e-05
5.38061e-05
5.14512e-05
4.9316e-05
4.73442e-05
4.5464e-05
4.35663e-05
4.14675e-05
4.029e-05
3.67321e-05
3.67315e-05
5.27676e-05
6.35761e-05
7.19436e-05
0.000164728
6.29542e-05
7.91977e-05
0.000134416
0.000171039
)
;
    }
    ceiling
    {
        type            compressible::alphatWallFunction;
        Prt             0.85;
        value           nonuniform List<scalar> 
43
(
0.00030509
0.000321474
0.000334245
0.000351861
0.000334066
0.000313861
0.000288804
0.000249893
0.000212619
0.000163655
0.000133473
0.000116643
0.000101944
8.77144e-05
7.64429e-05
7.09909e-05
7.05355e-05
7.2447e-05
7.54475e-05
7.88682e-05
8.25736e-05
8.65074e-05
9.06471e-05
9.49899e-05
9.95473e-05
0.000104344
0.00010942
0.000114842
0.000120717
0.000127224
0.000134469
0.000142358
0.000151021
0.000160614
0.000171233
0.000184277
0.000189047
0.000185252
0.000174196
0.000162329
0.000456813
0.0005445
0.000349541
)
;
    }
    sWall
    {
        type            compressible::alphatWallFunction;
        Prt             0.85;
        value           uniform 0.000303875;
    }
    nWall
    {
        type            compressible::alphatWallFunction;
        Prt             0.85;
        value           nonuniform List<scalar> 6(0.000130995 0.000135755 0.000146881 0.000185592 0.000188175 0.000161999);
    }
    sideWalls
    {
        type            empty;
    }
    glass1
    {
        type            compressible::alphatWallFunction;
        Prt             0.85;
        value           nonuniform List<scalar> 9(0.000141606 0.000199086 0.000247494 0.000295232 0.000344084 0.000395268 0.000445865 0.000458392 0.000450155);
    }
    glass2
    {
        type            compressible::alphatWallFunction;
        Prt             0.85;
        value           nonuniform List<scalar> 2(0.000234876 0.000221159);
    }
    sun
    {
        type            compressible::alphatWallFunction;
        Prt             0.85;
        value           nonuniform List<scalar> 
14
(
0.000145402
0.000155541
0.000156583
0.000162678
0.000168017
0.00017274
0.000177075
0.000181266
0.000185161
0.000187621
0.00018795
0.000185517
0.000180165
0.000172689
)
;
    }
    heatsource1
    {
        type            compressible::alphatWallFunction;
        Prt             0.85;
        value           nonuniform List<scalar> 3(9.78467e-05 0.000118137 0.000131319);
    }
    heatsource2
    {
        type            compressible::alphatWallFunction;
        Prt             0.85;
        value           nonuniform List<scalar> 4(0.00016408 0.000110078 0.000110077 0.000154989);
    }
    Table_master
    {
        type            compressible::alphatWallFunction;
        Prt             0.85;
        value           nonuniform List<scalar> 9(8.84592e-05 8.06999e-05 7.40933e-05 6.848e-05 6.36953e-05 5.95943e-05 5.60639e-05 5.30307e-05 5.04553e-05);
    }
    Table_slave
    {
        type            compressible::alphatWallFunction;
        Prt             0.85;
        value           nonuniform List<scalar> 9(9.88628e-05 9.44189e-05 9.16939e-05 8.97057e-05 8.76079e-05 8.50515e-05 8.23148e-05 7.90612e-05 7.47696e-05);
    }
    inlet
    {
        type            fixedValue;
        value           uniform 1.94e-05;
    }
    outlet
    {
        type            zeroGradient;
    }
}


// ************************************************************************* //
