// -*- C++ -*-
// File generated by PyFoam - sorry for the ugliness

FoamFile
{
 version 2.0;
 format ascii;
 class volVectorField;
 location "1200";
 object U;
}

dimensions [ 0 1 -1 0 0 0 0 ];

internalField nonuniform List<vector> 459
(
  (0.0330744 0.0854178 0)
  (-0.166033 0.0256367 0)
  (-0.190556 0.0178353 0)
  (-0.221142 0.0123363 0)
  (-0.243472 0.00632489 0)
  (-0.256712 2.10359e-05 0)
  (-0.259533 -0.00663128 0)
  (-0.250714 -0.0136365 0)
  (-0.230907 -0.0205299 0)
  (-0.201547 -0.0262616 0)
  (-0.165607 -0.0299879 0)
  (-0.126502 -0.0314386 0)
  (-0.0874798 -0.0311401 0)
  (-0.0533074 -0.0307486 0)
  (-0.0376857 -0.032008 0)
  (-0.00252638 0.00738286 0)
  (-0.0222451 -0.0175347 0)
  (0.00152271 -0.0262287 0)
  (0.0223788 -0.0194351 0)
  (0.0380822 -0.0130522 0)
  (0.0496727 -0.00833183 0)
  (0.0565111 -0.00499394 0)
  (0.0599183 -0.00325134 0)
  (0.0614658 -0.00249808 0)
  (0.0622762 -0.00213443 0)
  (0.0627868 -0.0019 0)
  (0.063053 -0.00170889 0)
  (0.0630095 -0.00147244 0)
  (0.0624459 -0.00101796 0)
  (0.0607917 3.82411e-05 0)
  (0.0568402 0.00223929 0)
  (0.0492669 0.00463246 0)
  (0.0414167 0.00671096 0)
  (-0.0104079 0.0203883 0)
  (0.205407 0.174519 0)
  (-0.154269 0.067085 0)
  (-0.152538 0.0521126 0)
  (-0.18377 0.0406636 0)
  (-0.205573 0.0278568 0)
  (-0.218774 0.0136854 0)
  (-0.222032 -0.00211105 0)
  (-0.213924 -0.0191019 0)
  (-0.195628 -0.0351819 0)
  (-0.168953 -0.0478476 0)
  (-0.137098 -0.055309 0)
  (-0.103478 -0.0570926 0)
  (-0.0713174 -0.0538766 0)
  (-0.0443718 -0.0472494 0)
  (-0.0272559 -0.0383906 0)
  (-0.0136747 -0.0188332 0)
  (-0.0071792 0.0132288 0)
  (0.060203 0.0312184 0)
  (0.0316308 -0.0198907 0)
  (0.0386352 -0.0305708 0)
  (0.0494039 -0.0258863 0)
  (0.0578339 -0.0178013 0)
  (0.0634009 -0.0104208 0)
  (0.0655923 -0.00428874 0)
  (0.0659003 -0.000894086 0)
  (0.0658101 0.000558888 0)
  (0.0658895 0.00123446 0)
  (0.0660513 0.00165968 0)
  (0.0661668 0.00202917 0)
  (0.0661936 0.00251151 0)
  (0.0660786 0.0034465 0)
  (0.0652879 0.00574277 0)
  (0.0613941 0.0120772 0)
  (0.0516088 0.0174818 0)
  (0.0452339 0.0213446 0)
  (-0.0438605 0.0440415 0)
  (0.363286 0.260772 0)
  (-0.17001 0.106387 0)
  (-0.113947 0.0838603 0)
  (-0.143732 0.0634956 0)
  (-0.162695 0.0424858 0)
  (-0.174524 0.0195656 0)
  (-0.177064 -0.00604558 0)
  (-0.168059 -0.0331793 0)
  (-0.149753 -0.0580842 0)
  (-0.124714 -0.0767028 0)
  (-0.0964254 -0.086635 0)
  (-0.0678567 -0.087756 0)
  (-0.0413026 -0.0812217 0)
  (-0.0189715 -0.0685977 0)
  (-0.00270053 -0.0509307 0)
  (0.0097608 -0.025308 0)
  (0.0165064 0.00903067 0)
  (0.105548 -0.0393861 0)
  (0.0728892 -0.0432363 0)
  (0.068964 -0.0394534 0)
  (0.0711622 -0.03159 0)
  (0.0727203 -0.0224403 0)
  (0.0735578 -0.0147721 0)
  (0.0718488 -0.0120301 0)
  (0.0678591 -0.00860973 0)
  (0.065108 -0.00675721 0)
  (0.0638677 -0.00570291 0)
  (0.0633284 -0.00503588 0)
  (0.0630686 -0.00457107 0)
  (0.0631227 -0.00411725 0)
  (0.0639633 -0.00331228 0)
  (0.0668045 -0.000177864 0)
  (0.0647598 0.0170701 0)
  (0.0514718 0.0293008 0)
  (0.0508656 0.0379751 0)
  (-0.0733197 0.0691642 0)
  (0.505313 0.329944 0)
  (-0.203375 0.141033 0)
  (-0.0737441 0.110409 0)
  (-0.101277 0.0823879 0)
  (-0.114408 0.0554481 0)
  (-0.122276 0.0254859 0)
  (-0.121148 -0.00959217 0)
  (-0.108826 -0.0472438 0)
  (-0.0897049 -0.0801956 0)
  (-0.0670534 -0.103205 0)
  (-0.0440882 -0.114067 0)
  (-0.022614 -0.113783 0)
  (-0.00341124 -0.104153 0)
  (0.0129774 -0.0869183 0)
  (0.0263939 -0.0649897 0)
  (0.0407371 -0.0390008 0)
  (0.0628353 -0.0123924 0)
  (0.0933716 1.03272e-05 0)
  (0.101028 -0.0330267 0)
  (0.0874708 -0.0383174 0)
  (0.0789299 -0.0341009 0)
  (0.0747919 -0.0278207 0)
  (0.072099 -0.0204332 0)
  (0.0708319 -0.0118685 0)
  (0.0725985 -0.00697384 0)
  (0.0767468 -0.00551194 0)
  (0.0801819 -0.00469156 0)
  (0.0825149 -0.0040514 0)
  (0.0839407 -0.00322401 0)
  (0.0838975 -0.00195534 0)
  (0.0813248 -2.67565e-05 0)
  (0.0749844 0.00284815 0)
  (0.062081 0.00720165 0)
  (0.0511214 0.0274907 0)
  (0.0404549 0.0443103 0)
  (0.053752 0.057866 0)
  (-0.103743 0.0920046 0)
  (0.627286 0.383434 0)
  (-0.244128 0.169258 0)
  (-0.0347167 0.12507 0)
  (-0.057205 0.0925701 0)
  (-0.0619662 0.0623233 0)
  (-0.0627335 0.0274805 0)
  (-0.0518597 -0.016226 0)
  (-0.0339715 -0.0631468 0)
  (-0.0150578 -0.100691 0)
  (0.00263651 -0.12448 0)
  (0.0171336 -0.133206 0)
  (0.0285029 -0.129906 0)
  (0.0372729 -0.117628 0)
  (0.0441576 -0.09891 0)
  (0.0502913 -0.0764227 0)
  (0.0576454 -0.0528187 0)
  (0.0688124 -0.0335459 0)
  (0.0792709 -0.0289198 0)
  (0.0808492 -0.0347506 0)
  (0.0743167 -0.0335353 0)
  (0.0663216 -0.0285847 0)
  (0.0602313 -0.0230245 0)
  (0.0559523 -0.0172906 0)
  (0.0536958 -0.0114081 0)
  (0.053831 -0.00627169 0)
  (0.0560025 -0.00391867 0)
  (0.0584176 -0.00307107 0)
  (0.0607623 -0.002355 0)
  (0.0629349 -0.000835748 0)
  (0.064556 0.00203685 0)
  (0.0644525 0.00637972 0)
  (0.0620394 0.0123555 0)
  (0.0566243 0.0206135 0)
  (0.0500541 0.0360559 0)
  (0.041037 0.0545897 0)
  (0.0619968 0.0750893 0)
  (-0.0171117 0.104292 0)
  (0.0453864 0.0339937 0)
  (-0.0612888 -0.0344049 0)
  (-0.268926 -0.0566796 0)
  (0.71497 0.427965 0)
  (-0.283424 0.188073 0)
  (-0.00565576 0.119917 0)
  (-0.011788 0.0916746 0)
  (-0.00497831 0.0623401 0)
  (0.00521292 0.0208031 0)
  (0.0338471 -0.0334981 0)
  (0.0549157 -0.0817242 0)
  (0.0697466 -0.116129 0)
  (0.0782951 -0.135314 0)
  (0.0813324 -0.140475 0)
  (0.0803461 -0.134327 0)
  (0.0767079 -0.119907 0)
  (0.0718239 -0.100203 0)
  (0.0671704 -0.0781157 0)
  (0.0641077 -0.0563386 0)
  (0.0635244 -0.0385961 0)
  (0.0630557 -0.029468 0)
  (0.0590256 -0.0271348 0)
  (0.0514224 -0.0249777 0)
  (0.0432031 -0.021366 0)
  (0.0366316 -0.017392 0)
  (0.0321307 -0.0135286 0)
  (0.0298689 -0.00984644 0)
  (0.0298225 -0.00700612 0)
  (0.0315161 -0.0060696 0)
  (0.0340226 -0.00605143 0)
  (0.0370019 -0.00576094 0)
  (0.0402923 -0.00423571 0)
  (0.0436752 -0.00062182 0)
  (0.0466643 0.00535861 0)
  (0.0482291 0.0133923 0)
  (0.0485769 0.023686 0)
  (0.0491204 0.0380112 0)
  (0.0484274 0.0559645 0)
  (0.0703978 0.0788164 0)
  (0.0522631 0.0973539 0)
  (0.0914623 0.0683259 0)
  (0.114479 0.04457 0)
  (-0.128258 -0.00737529 0)
  (0.76784 0.468571 0)
  (-0.302 0.173459 0)
  (0.0220407 0.0677597 0)
  (0.0494736 0.0629917 0)
  (0.0701304 0.0440566 0)
  (0.102932 -0.00347834 0)
  (0.134698 -0.0571498 0)
  (0.153041 -0.0982218 0)
  (0.159087 -0.12403 0)
  (0.154912 -0.135542 0)
  (0.143144 -0.134901 0)
  (0.126643 -0.124951 0)
  (0.107952 -0.108594 0)
  (0.0892241 -0.0887526 0)
  (0.0722122 -0.0680159 0)
  (0.0580221 -0.0484535 0)
  (0.0471635 -0.0327203 0)
  (0.0385236 -0.0231933 0)
  (0.0301146 -0.0189076 0)
  (0.0215763 -0.016547 0)
  (0.0139156 -0.0142659 0)
  (0.0081024 -0.0121265 0)
  (0.00433371 -0.0102958 0)
  (0.00260513 -0.00879732 0)
  (0.00274995 -0.00799714 0)
  (0.00426375 -0.00827453 0)
  (0.00653341 -0.0089917 0)
  (0.00934403 -0.00929408 0)
  (0.0127474 -0.00833012 0)
  (0.016874 -0.00509965 0)
  (0.0226514 0.00137168 0)
  (0.0283914 0.0101758 0)
  (0.0338478 0.0205763 0)
  (0.0408434 0.0332313 0)
  (0.0486622 0.0478997 0)
  (0.0704454 0.0663171 0)
  (0.0840298 0.0746717 0)
  (0.115887 0.0526109 0)
  (0.155438 0.0439851 0)
  (-0.0363561 0.092583 0)
  (0.872636 0.469922 0)
  (-0.0643872 0.15211 0)
  (0.109955 -0.0138203 0)
  (0.181687 -0.0409562 0)
  (0.21216 -0.0526127 0)
  (0.243635 -0.075151 0)
  (0.261443 -0.0974665 0)
  (0.262262 -0.113367 0)
  (0.247672 -0.120881 0)
  (0.22175 -0.120056 0)
  (0.188994 -0.112118 0)
  (0.153443 -0.0988799 0)
  (0.118245 -0.0820994 0)
  (0.0857927 -0.0639652 0)
  (0.0576972 -0.0463997 0)
  (0.0345801 -0.0306103 0)
  (0.0172301 -0.0187478 0)
  (0.0047189 -0.0121192 0)
  (-0.00487586 -0.00954407 0)
  (-0.0122134 -0.00878546 0)
  (-0.0180363 -0.00838258 0)
  (-0.0222747 -0.00816926 0)
  (-0.0250361 -0.00816697 0)
  (-0.026469 -0.00841287 0)
  (-0.0268057 -0.00905695 0)
  (-0.0264553 -0.0101609 0)
  (-0.0258025 -0.0114114 0)
  (-0.0249549 -0.0123585 0)
  (-0.0237544 -0.0125059 0)
  (-0.0218068 -0.0112658 0)
  (-0.01814 -0.00789483 0)
  (-0.0094962 -0.00169864 0)
  (-0.00115775 0.00633872 0)
  (0.00938304 0.0145318 0)
  (0.0210881 0.0216073 0)
  (0.0408892 0.0289583 0)
  (0.0599468 0.022543 0)
  (0.0799917 -0.00463849 0)
  (0.138857 0.0390667 0)
  (-0.40546 0.202629 0)
  (1.01958 0.423011 0)
  (0.485037 0.279555 0)
  (0.499877 0.183062 0)
  (0.526261 0.111814 0)
  (0.507265 0.060533 0)
  (0.465386 0.0133796 0)
  (0.416647 -0.0259437 0)
  (0.363094 -0.0528834 0)
  (0.305022 -0.0666482 0)
  (0.245341 -0.0692445 0)
  (0.187518 -0.064045 0)
  (0.134152 -0.0542127 0)
  (0.0868121 -0.0416292 0)
  (0.0470569 -0.0285139 0)
  (0.0149669 -0.0166737 0)
  (-0.0104732 -0.00717914 0)
  (-0.0254443 -0.00292049 0)
  (-0.0346837 -0.00187753 0)
  (-0.0409034 -0.00238433 0)
  (-0.0457296 -0.00338598 0)
  (-0.0496774 -0.00440729 0)
  (-0.0528824 -0.00541378 0)
  (-0.0554553 -0.00642701 0)
  (-0.0575584 -0.00748074 0)
  (-0.0594357 -0.00862368 0)
  (-0.0614389 -0.00983683 0)
  (-0.0639197 -0.0109121 0)
  (-0.0671771 -0.0114823 0)
  (-0.0715293 -0.0110179 0)
  (-0.0774053 -0.00881306 0)
  (-0.0853506 -0.00404384 0)
  (-0.0953255 0.00384716 0)
  (-0.10548 0.0143388 0)
  (-0.120279 0.0276542 0)
  (-0.143505 0.0439216 0)
  (-0.177659 0.0620779 0)
  (-0.226093 0.0782579 0)
  (-0.281821 0.0898967 0)
  (-0.349819 0.0969344 0)
  (-0.609532 0.0999025 0)
  (-0.15097 0.00207003 0)
  (0.121451 0.00191965 0)
  (0.200662 -0.0313963 0)
  (0.18762 -0.0415759 0)
  (0.171543 -0.0397663 0)
  (0.149473 -0.0350118 0)
  (0.120037 -0.0289105 0)
  (0.0863066 -0.0216123 0)
  (0.0517898 -0.013586 0)
  (0.0169708 -0.00544042 0)
  (-0.016501 0.00215802 0)
  (-0.0389335 0.00649139 0)
  (-0.0544157 0.0088462 0)
  (-0.0636821 0.0093595 0)
  (-0.068798 0.00853297 0)
  (-0.0723472 0.00759206 0)
  (-0.0751519 0.00680698 0)
  (-0.0776414 0.00618629 0)
  (-0.080141 0.00564893 0)
  (-0.0827763 0.00495187 0)
  (-0.0855249 0.00416858 0)
  (-0.0884669 0.00331962 0)
  (-0.091727 0.00245911 0)
  (-0.0954476 0.00170498 0)
  (-0.0997063 0.00129592 0)
  (-0.1045 0.00154045 0)
  (-0.109754 0.00276586 0)
  (-0.115289 0.00527486 0)
  (-0.120489 0.00958431 0)
  (-0.124614 0.0165979 0)
  (-0.128029 0.0274417 0)
  (-0.130946 0.0425 0)
  (-0.134034 0.0609624 0)
  (-0.137729 0.079411 0)
  (-0.138987 0.088318 0)
  (-0.121515 0.0671764 0)
  (-0.0784919 -0.0231336 0)
  (-0.274188 -0.198477 0)
  (0.0152794 0.194675 0)
  (0.0412732 0.0704365 0)
  (0.000367285 0.00598827 0)
  (-0.0125409 -0.00210816 0)
  (-0.0258045 -0.000165604 0)
  (-0.0406605 0.000103779 0)
  (-0.0568992 0.00117685 0)
  (-0.0723898 0.00341374 0)
  (-0.0846397 0.00552857 0)
  (-0.0914236 0.00588677 0)
  (-0.095764 0.00398987 0)
  (-0.0975773 9.54495e-06 0)
  (-0.0978898 -0.00451186 0)
  (-0.0973481 -0.00936478 0)
  (-0.0968555 -0.0145369 0)
  (-0.096949 -0.0195586 0)
  (-0.0976601 -0.0241508 0)
  (-0.0988997 -0.0280663 0)
  (-0.10055 -0.0311276 0)
  (-0.10254 -0.0332498 0)
  (-0.104929 -0.0345846 0)
  (-0.107623 -0.0350889 0)
  (-0.110519 -0.0346997 0)
  (-0.113528 -0.0336003 0)
  (-0.116524 -0.0318037 0)
  (-0.119267 -0.029079 0)
  (-0.121383 -0.0250076 0)
  (-0.122396 -0.018975 0)
  (-0.121879 -0.0110614 0)
  (-0.118955 -0.000964624 0)
  (-0.112257 0.0120393 0)
  (-0.100504 0.0285947 0)
  (-0.0832561 0.0482129 0)
  (-0.0612765 0.0669658 0)
  (-0.0374464 0.0779118 0)
  (0.00242594 0.0619681 0)
  (0.143058 -0.008264 0)
  (-0.204998 -0.108545 0)
  (-0.043571 -0.319875 0)
  (-0.41321 -0.123182 0)
  (-0.301234 0.0644368 0)
  (-0.249695 -0.0172506 0)
  (-0.209859 -0.0227088 0)
  (-0.198558 -0.0117348 0)
  (-0.194077 -0.00208173 0)
  (-0.190601 0.00591385 0)
  (-0.186086 0.0134192 0)
  (-0.179626 0.0208852 0)
  (-0.171048 0.028394 0)
  (-0.160665 0.0358498 0)
  (-0.149609 0.0430862 0)
  (-0.139037 0.0500849 0)
  (-0.129742 0.0571112 0)
  (-0.122001 0.0641078 0)
  (-0.11586 0.0710141 0)
  (-0.111149 0.0776041 0)
  (-0.107628 0.0834799 0)
  (-0.105093 0.0882809 0)
  (-0.103361 0.0917794 0)
  (-0.102275 0.0938803 0)
  (-0.101747 0.094655 0)
  (-0.101735 0.0940502 0)
  (-0.102194 0.0920183 0)
  (-0.103045 0.0889483 0)
  (-0.10416 0.0851047 0)
  (-0.105324 0.0805791 0)
  (-0.106157 0.0754178 0)
  (-0.105985 0.0697147 0)
  (-0.103548 0.0647362 0)
  (-0.0970091 0.0613979 0)
  (-0.0840001 0.0605892 0)
  (-0.0627227 0.0632783 0)
  (-0.0336328 0.0699994 0)
  (0.0121179 0.0798288 0)
  (0.0551489 0.0807791 0)
  (0.0959735 0.0679904 0)
  (0.161035 0.0423049 0)
  (-0.232168 -0.00780449 0)
)
;

boundaryField
{
  floor
  {
    type noSlip;
  }
  ceiling
  {
    type noSlip;
  }
  sWall
  {
    type noSlip;
  }
  nWall
  {
    type noSlip;
  }
  sideWalls
  {
    type empty;
  }
  glass1
  {
    type noSlip;
  }
  glass2
  {
    type noSlip;
  }
  sun
  {
    type noSlip;
  }
  heatsource1
  {
    type noSlip;
  }
  heatsource2
  {
    type noSlip;
  }
  Table_master
  {
    type noSlip;
  }
  Table_slave
  {
    type noSlip;
  }
  inlet
  {
    type fixedValue;
    value uniform (0.277164 -0.114805 0);
  }
  outlet
  {
    type zeroGradient;
  }
} 	// ************************************************************************* //

