/*--------------------------------*- C++ -*----------------------------------*\
  =========                 |
  \\      /  F ield         | OpenFOAM: The Open Source CFD Toolbox
   \\    /   O peration     | Website:  https://openfoam.org
    \\  /    A nd           | Version:  6
     \\/     M anipulation  |
\*---------------------------------------------------------------------------*/
FoamFile
{
    version     2.0;
    format      ascii;
    class       volScalarField;
    location    "300";
    object      T;
}
// * * * * * * * * * * * * * * * * * * * * * * * * * * * * * * * * * * * * * //

dimensions      [0 0 0 1 0 0 0];

internalField   nonuniform List<scalar> 
459
(
309.035
308.953
308.969
308.979
308.98
308.975
308.964
308.949
308.931
308.915
308.902
308.889
308.876
308.852
308.801
308.066
308.08
308.06
308.007
307.93
307.832
307.744
307.684
307.646
307.629
307.629
307.644
307.682
307.767
307.908
308.116
308.403
308.697
308.678
309.205
309.175
309.23
309.248
309.242
309.226
309.216
309.205
309.194
309.185
309.18
309.18
309.182
309.186
309.189
309.192
308.716
308.716
308.868
308.875
308.856
308.809
308.652
308.417
308.313
308.304
308.349
308.421
308.507
308.604
308.685
308.757
308.832
308.914
309
309.112
309.531
309.535
309.598
309.631
309.546
309.453
309.421
309.409
309.409
309.415
309.428
309.449
309.479
309.518
309.568
309.629
309.687
309.388
309.562
309.642
309.713
309.777
309.808
308.925
308.824
308.959
309.101
309.234
309.342
309.409
309.448
309.449
309.446
309.391
309.393
309.524
313.052
311.933
311.201
310.638
310.217
309.871
309.643
309.607
309.616
309.642
309.677
309.724
309.783
309.853
309.932
310.013
310.078
310.094
310.11
310.187
310.295
310.421
310.554
310.683
310.795
310.86
310.924
310.984
311.03
311.052
311.025
310.908
310.63
310.189
310.049
309.993
310.056
313.808
313.327
312.364
311.478
310.771
310.247
309.905
309.806
309.824
309.872
309.931
310.002
310.082
310.171
310.266
310.359
310.439
310.494
310.537
310.612
310.707
310.808
310.906
310.994
311.07
311.141
311.213
311.285
311.353
311.409
311.443
311.435
311.357
311.173
311.026
310.949
310.886
312.09
312.607
312.763
313.879
313.718
313.009
312.052
311.157
310.486
310.108
310.005
310.048
310.124
310.209
310.3
310.396
310.495
310.594
310.687
310.767
310.833
310.892
310.961
311.035
311.109
311.181
311.25
311.316
311.383
311.455
311.529
311.605
311.679
311.746
311.801
311.836
311.849
311.848
311.872
311.92
312.391
312.677
312.895
313.883
313.785
313.285
312.367
311.328
310.584
310.261
310.244
310.332
310.45
310.564
310.673
310.779
310.881
310.978
311.067
311.144
311.209
311.266
311.323
311.379
311.433
311.486
311.538
311.592
311.65
311.713
311.781
311.854
311.929
312.005
312.079
312.147
312.208
312.259
312.306
312.361
312.566
312.756
312.991
313.882
313.829
313.386
312.382
311.257
310.643
310.49
310.61
310.799
310.978
311.12
311.233
311.329
311.413
311.491
311.56
311.62
311.669
311.712
311.75
311.785
311.818
311.85
311.884
311.92
311.962
312.009
312.063
312.124
312.19
312.26
312.332
312.407
312.48
312.549
312.604
312.657
312.758
312.884
313.086
313.887
313.888
313.902
312.193
311.224
310.889
311.027
311.364
311.719
311.935
312.06
312.129
312.169
312.195
312.214
312.231
312.246
312.258
312.266
312.273
312.279
312.284
312.289
312.297
312.31
312.328
312.353
312.386
312.426
312.475
312.53
312.592
312.659
312.731
312.807
312.882
312.953
313.023
313.078
313.228
316.532
312.799
311.799
311.789
312.415
312.906
313.146
313.261
313.3
313.29
313.25
313.195
313.135
313.077
313.024
312.976
312.932
312.892
312.855
312.822
312.792
312.767
312.748
312.736
312.732
312.737
312.751
312.775
312.809
312.851
312.902
312.96
313.024
313.089
313.146
313.183
313.183
313.187
316.251
314.551
314.108
314.25
314.455
314.605
314.665
314.651
314.583
314.478
314.352
314.218
314.084
313.957
313.838
313.728
313.627
313.533
313.447
313.369
313.297
313.234
313.179
313.132
313.096
313.07
313.056
313.052
313.06
313.079
313.109
313.147
313.193
313.241
313.281
313.291
313.249
313.194
319.357
318.968
317.894
317.571
317.285
317.059
316.868
316.695
316.525
316.35
316.164
315.967
315.76
315.547
315.333
315.124
314.922
314.729
314.546
314.376
314.217
314.07
313.936
313.815
313.707
313.612
313.53
313.462
313.407
313.366
313.339
313.325
313.324
313.335
313.356
313.384
313.407
313.392
313.314
313.235
)
;

boundaryField
{
    floor
    {
        type            wallHeatTransfer;
        Tinf            uniform 305.2;
        alphaWall       uniform 0.24;
        value           nonuniform List<scalar> 
29
(
308.276
307.616
307.681
307.655
307.594
307.514
307.415
307.326
307.267
307.231
307.213
307.209
307.212
307.232
307.291
307.396
307.561
307.797
308.048
308.055
308.055
308.525
308.971
309.525
308.276
307.616
308.267
308.937
309.635
)
;
    }
    ceiling
    {
        type            wallHeatTransfer;
        Tinf            uniform 303.2;
        alphaWall       uniform 0.24;
        value           nonuniform List<scalar> 
43
(
318.074
317.98
317.411
317.073
316.754
316.489
316.259
316.046
315.84
315.638
315.437
315.238
315.04
314.843
314.646
314.452
314.263
314.081
313.908
313.745
313.593
313.452
313.324
313.207
313.104
313.013
312.934
312.869
312.817
312.778
312.752
312.738
312.737
312.747
312.768
312.795
312.821
312.82
312.746
312.604
313.584
313.643
315.99
)
;
    }
    sWall
    {
        type            wallHeatTransfer;
        Tinf            uniform 315.2;
        alphaWall       uniform 0.36;
        value           uniform 318.88;
    }
    nWall
    {
        type            wallHeatTransfer;
        Tinf            uniform 307.2;
        alphaWall       uniform 0.36;
        value           nonuniform List<scalar> 6(312.176 312.403 312.571 312.756 312.709 312.683);
    }
    sideWalls
    {
        type            empty;
    }
    glass1
    {
        type            wallHeatTransfer;
        Tinf            uniform 315.2;
        alphaWall       uniform 4.3;
        value           nonuniform List<scalar> 9(313.471 313.136 313.203 314.185 314.478 314.469 314.429 314.385 314.338);
    }
    glass2
    {
        type            wallHeatTransfer;
        Tinf            uniform 307.2;
        alphaWall       uniform 4.3;
        value           nonuniform List<scalar> 2(310.527 310.656);
    }
    sun
    {
        type            wallHeatTransfer;
        Tinf            uniform 305.2;
        alphaWall       uniform 0.24;
        value           nonuniform List<scalar> 
14
(
308.56
308.52
308.525
308.53
308.52
308.506
308.489
308.467
308.443
308.422
308.405
308.389
308.371
308.339
)
;
    }
    heatsource1
    {
        type            fixedGradient;
        gradient        uniform 0;
    }
    heatsource2
    {
        type            fixedGradient;
        gradient        uniform 0;
    }
    Table_master
    {
        type            zeroGradient;
    }
    Table_slave
    {
        type            zeroGradient;
    }
    inlet
    {
        type            fixedValue;
        value           uniform 290.15;
    }
    outlet
    {
        type            zeroGradient;
    }
}


// ************************************************************************* //
