/*--------------------------------*- C++ -*----------------------------------*\
  =========                 |
  \\      /  F ield         | OpenFOAM: The Open Source CFD Toolbox
   \\    /   O peration     | Website:  https://openfoam.org
    \\  /    A nd           | Version:  6
     \\/     M anipulation  |
\*---------------------------------------------------------------------------*/
FoamFile
{
    version     2.0;
    format      ascii;
    class       surfaceScalarField;
    location    "800";
    object      phi;
}
// * * * * * * * * * * * * * * * * * * * * * * * * * * * * * * * * * * * * * //

dimensions      [1 0 -1 0 0 0 0];

internalField   nonuniform List<scalar> 
852
(
-0.00202284
0.00207154
-0.00202197
-6.35818e-07
-0.00180213
-0.000219592
-0.00164252
-0.000159381
-0.00151842
-0.000123857
-0.001414
-0.000104187
-0.00132369
-9.0087e-05
-0.00124377
-7.96931e-05
-0.00116912
-7.44213e-05
-0.0010912
-7.7694e-05
-0.000997197
-9.37828e-05
-0.000868956
-0.000128013
-0.000679511
-0.000189212
-0.0003917
-0.000287574
-0.000392234
-0.000107278
0.000109334
-9.71854e-05
-9.99079e-06
-5.4943e-05
-4.21244e-05
-7.9067e-07
-5.40207e-05
0.000119444
-0.000120083
0.000267392
-0.00014781
0.000364977
-9.74719e-05
0.000441914
-7.68308e-05
0.000500891
-5.88683e-05
0.000549086
-4.80817e-05
0.000593336
-4.41323e-05
0.000637686
-4.42312e-05
0.000653856
-1.60509e-05
0.00063793
1.60425e-05
0.000589839
4.82061e-05
0.00048496
0.000104992
0.000391927
9.31414e-05
0.000258979
0.00013305
0.000261306
-0.00143126
0.0036242
-0.00177532
0.000343691
-0.00176651
-0.00022813
-0.00171667
-0.000208965
-0.00165208
-0.000188188
-0.00158165
-0.000174366
-0.00151345
-0.000158034
-0.00145175
-0.000141143
-0.00139613
-0.000129793
-0.00134114
-0.000132434
-0.0012765
-0.000158171
-0.00118753
-0.000216732
-0.00105831
-0.000318177
-0.000877363
-0.000468255
-0.000618743
-0.000650582
9.89006e-05
-0.000717416
9.9106e-05
0.000362019
-0.000250057
0.00030339
4.88604e-05
0.000157497
0.000103966
4.37508e-05
5.99003e-05
-5.42538e-05
-2.18904e-05
-0.00017345
-2.84505e-05
-5.57817e-05
-0.000214988
-3.44383e-06
-0.000129031
1.49249e-05
-7.71108e-05
1.57281e-05
-4.87633e-05
1.34488e-06
-2.96278e-05
-3.31108e-05
-9.6553e-06
-7.7823e-05
2.87653e-05
-0.00012173
6.00436e-05
-0.000156312
8.28768e-05
-0.000209161
0.000157933
-0.000302332
0.000186406
-0.000394566
0.000225392
-0.000130202
-0.000978161
0.00477896
-0.00140235
0.000768169
-0.00154543
-8.47504e-05
-0.00160834
-0.000145769
-0.0016189
-0.000177356
-0.00159265
-0.000200353
-0.00155285
-0.000197569
-0.00151623
-0.000177499
-0.00149051
-0.000155246
-0.00147567
-0.00014702
-0.00146651
-0.000167074
-0.00145493
-0.000228051
-0.00143353
-0.00033931
-0.00140141
-0.000500101
-0.00136292
-0.000688785
-0.00120314
-0.000876909
-0.00110374
-0.0005534
0.000303885
-0.000617948
0.000113679
-0.000580667
6.69494e-05
-0.000554774
3.42548e-05
-0.000573076
-3.36316e-06
-0.000514178
-8.71294e-05
-0.000728846
-0.000857589
-0.000934438
-0.000982956
-0.00101235
-0.00102177
-0.000992756
-0.000932461
-0.000849325
-0.000534533
-0.000156737
-0.000250033
-9.8017e-05
0.000111495
-0.000136107
-2.19983e-05
-0.00059776
0.00559843
-0.00095238
0.0011231
-0.00109942
6.26231e-05
-0.00125585
1.09822e-05
-0.00139698
-3.59338e-05
-0.00145659
-0.000140457
-0.00146119
-0.0001927
-0.00145175
-0.000186669
-0.00145363
-0.000153093
-0.00147638
-0.00012401
-0.00152231
-0.00012088
-0.00159228
-0.000157806
-0.00169022
-0.000241106
-0.00182436
-0.000365684
-0.00199773
-0.000515128
-0.00221892
-0.000655424
-0.00266782
-0.000654532
-0.00238718
-0.000285045
-0.00204073
-4.22599e-05
-0.00197982
5.3097e-05
-0.00199863
8.60869e-05
-0.00205298
8.89389e-05
-0.0021164
6.03774e-05
-0.00221696
1.37369e-05
-0.00221839
1.59837e-06
-0.00219477
-2.34447e-05
-0.00214804
-4.65631e-05
-0.00208196
-6.59147e-05
-0.00199662
-8.51654e-05
-0.00188944
-0.000107004
-0.00175496
-0.000134299
-0.00158185
-0.00017293
-0.0013449
-0.00023677
-0.00114979
-0.000351531
-0.00080684
-0.000440659
-0.000450749
-0.000491892
-0.000484759
-0.000299647
0.00615905
-0.000495148
0.00131897
-0.000394544
-3.75276e-05
-0.000482535
9.93774e-05
-0.000804926
0.000286811
-0.00108981
0.000144733
-0.00120824
-7.39823e-05
-0.00123921
-0.000155421
-0.00126159
-0.000130437
-0.00130002
-8.53094e-05
-0.00136326
-5.73694e-05
-0.00145534
-6.54547e-05
-0.00157903
-0.000117144
-0.00173635
-0.000208079
-0.00192891
-0.000322274
-0.00216743
-0.000416609
-0.00241891
-0.000402736
-0.00244852
-0.000255122
-0.00238545
-0.00010501
-0.00231832
-1.37029e-05
-0.00226864
3.67507e-05
-0.00223378
5.44128e-05
-0.00221413
4.10755e-05
-0.00221122
1.11688e-05
-0.0021909
-1.83682e-05
-0.00216533
-4.86633e-05
-0.00213492
-7.66154e-05
-0.00209828
-0.000102194
-0.0020557
-0.000127378
-0.0020079
-0.000154431
-0.00195559
-0.000186228
-0.00190029
-0.000227853
-0.00185074
-0.000285925
-0.00184699
-0.00035489
-0.00187283
-0.000414413
-0.00191599
-0.00044833
-0.00197155
-0.000428783
-0.00162373
-0.000347606
-0.00111047
-0.000513036
-0.00111021
-0.000358408
0.00681257
-0.000156928
0.00111793
0.000467721
-0.000661596
0.00060942
-4.18293e-05
0.00019349
0.000703166
-0.0003561
0.000694691
-0.000726516
0.000296742
-0.000867516
-1.41398e-05
-0.000928054
-6.96185e-05
-0.000978539
-3.45435e-05
-0.00104117
5.54934e-06
-0.00112713
2.07821e-05
-0.00124251
-1.48288e-06
-0.0013888
-6.1494e-05
-0.00156676
-0.000144021
-0.00176906
-0.000214006
-0.00194754
-0.00022394
-0.00203551
-0.000166828
-0.00204757
-9.26217e-05
-0.00202491
-3.60188e-05
-0.00198708
-7.29072e-07
-0.00194512
1.2804e-05
-0.00190902
5.33373e-06
-0.00188132
-1.61713e-05
-0.00185618
-4.31393e-05
-0.00183207
-7.23956e-05
-0.00180694
-0.000101371
-0.00177903
-0.000129719
-0.00174764
-0.000158371
-0.00171276
-0.000188909
-0.0016748
-0.000223787
-0.00163539
-0.000266847
-0.0015993
-0.000321593
-0.00156855
-0.000385212
-0.00153268
-0.000449858
-0.00147402
-0.000506553
-0.00134802
-0.000554346
-0.00104688
-0.000648314
-0.000636075
-0.000923404
-0.00174735
-0.00074176
0.00788287
0.000554787
-0.000177925
0.00188858
-0.0019947
0.00183514
1.21929e-05
0.00119336
0.00134545
0.000555481
0.00133296
4.15971e-05
0.000810951
-0.000283992
0.000311754
-0.000441421
8.81071e-05
-0.000518861
4.3195e-05
-0.000574124
6.11097e-05
-0.000635422
8.23762e-05
-0.000719319
8.27185e-05
-0.000833134
5.26274e-05
-0.000973811
-3.03707e-06
-0.00112715
-6.03492e-05
-0.00126251
-8.82647e-05
-0.00134928
-7.97238e-05
-0.00138585
-5.57105e-05
-0.00138861
-3.29069e-05
-0.00137124
-1.77368e-05
-0.00134416
-1.39137e-05
-0.00131621
-2.22436e-05
-0.0012919
-4.01031e-05
-0.00127095
-6.37102e-05
-0.00125234
-9.06103e-05
-0.00123443
-0.000118887
-0.00121562
-0.00014812
-0.00119472
-0.000178865
-0.00117086
-0.000212348
-0.00114362
-0.000250598
-0.00111347
-0.000296566
-0.00108151
-0.000353117
-0.00104547
-0.000420805
-0.000997341
-0.000497541
-0.000921944
-0.000581497
-0.000791441
-0.000684393
-0.000570074
-0.00086922
-0.000241938
-0.00125108
-0.00199161
0.00380884
0.004451
0.00542288
-0.0017912
0.00464602
-0.00121681
0.00300129
0.00165779
0.00181066
0.00253666
0.00108903
0.00205498
0.00065657
0.00124371
0.000359379
0.000609215
0.000171222
0.00027655
6.68755e-05
0.000147844
1.71155e-05
0.000111181
-1.1218e-05
0.000111025
-4.22776e-05
0.000114097
-9.39227e-05
0.000104597
-0.00017551
7.88875e-05
-0.000277909
4.23939e-05
-0.000375815
9.98982e-06
-0.00044717
-8.01741e-06
-0.000487926
-1.45972e-05
-0.000504008
-1.64587e-05
-0.000502932
-1.84396e-05
-0.000492517
-2.39489e-05
-0.000479009
-3.53651e-05
-0.000466022
-5.26974e-05
-0.000454985
-7.43476e-05
-0.000446559
-9.86312e-05
-0.000440396
-0.000124638
-0.000435546
-0.000152551
-0.000430865
-0.000183122
-0.000425243
-0.00021754
-0.000417814
-0.000257589
-0.000408198
-0.00030574
-0.000396086
-0.00036478
-0.000379482
-0.000436957
-0.000352974
-0.000523591
-0.00030706
-0.000626949
-0.000230845
-0.00076014
-0.000123223
-0.00097637
2.57698e-05
-0.00139961
-0.00198394
0.00484241
0.00302994
0.00216989
-0.000353897
0.000696603
0.00313204
0.000414699
0.0028188
0.000502566
0.00196725
0.000654619
0.00109182
0.000719257
0.000544803
0.000728334
0.000267755
0.000733057
0.00014344
0.000754449
9.01288e-05
0.000781259
8.45671e-05
0.000802552
9.31627e-05
0.000808672
9.88398e-05
0.000793686
9.42419e-05
0.000757179
7.92727e-05
0.000707866
5.968e-05
0.000659337
4.08976e-05
0.000620522
2.4608e-05
0.000594067
1.039e-05
0.000578872
-2.84782e-06
0.000571216
-1.58923e-05
0.000566961
-3.07053e-05
0.000563712
-4.9038e-05
0.000559665
-6.98848e-05
0.000552753
-9.13e-05
0.000542029
-0.000113491
0.000527718
-0.000137812
0.000510548
-0.000165519
0.000491386
-0.000197941
0.000471045
-0.000236806
0.000450147
-0.000284396
0.000429275
-0.000343457
0.000409539
-0.000416765
0.000392953
-0.000506546
0.00038087
-0.000614402
0.000366611
-0.000745414
0.000316958
-0.000926245
0.000161453
-0.00124363
-0.00184756
-0.0051308
0.00231854
-0.00343865
0.00144054
-0.00131304
0.000693474
9.01111e-05
0.000564303
0.000854188
0.000327956
0.00124667
0.000152605
0.0014687
4.60713e-05
0.00161683
-4.31214e-06
0.00172967
-2.23201e-05
0.00181162
3.03156e-06
0.00186821
3.69858e-05
0.00190261
6.48677e-05
0.00191746
7.9809e-05
0.00191517
8.19893e-05
0.00189996
7.53153e-05
0.00187732
6.39537e-05
0.00185172
5.06369e-05
0.0018256
3.69378e-05
0.00179985
2.33265e-05
0.00177547
8.91959e-06
0.00175243
-7.23349e-06
0.00172937
-2.55527e-05
0.00170474
-4.48206e-05
0.00167615
-6.22704e-05
0.00164262
-7.95309e-05
0.00160411
-9.88664e-05
0.00156066
-0.000121624
0.00151225
-0.000149087
0.00145871
-0.000182826
0.0013996
-0.000224842
0.00133416
-0.000277566
0.00126143
-0.00034358
0.00118027
-0.000424936
0.00108801
-0.00052168
0.000972586
-0.000629528
0.000788989
-0.000742185
0.000437575
-0.000891756
-0.00141576
-0.00058329
0.00286979
0.00085655
1.30759e-06
0.00151126
3.92125e-05
0.00209956
-2.35728e-05
0.00258943
-0.000161473
0.0029228
-0.000180311
0.00310238
-0.000133026
0.00316938
-7.08309e-05
0.00315921
-1.16522e-05
0.00312409
3.86509e-05
0.00308697
7.46001e-05
0.00306009
9.22319e-05
0.00304396
9.64274e-05
0.00303416
9.22623e-05
0.00302602
8.39387e-05
0.00301633
7.41091e-05
0.00300343
6.40096e-05
0.00298674
5.40904e-05
0.00296621
4.43152e-05
0.00294139
3.41966e-05
0.00291061
2.40057e-05
0.0028717
1.38034e-05
0.00282455
2.78647e-06
0.00277072
-7.99704e-06
0.00271116
-1.95173e-05
0.00264529
-3.25492e-05
0.00257182
-4.77071e-05
0.00248897
-6.57967e-05
0.00239445
-8.78534e-05
0.00228529
-0.000115239
0.00215789
-0.000149723
0.0020083
-0.000193538
0.00183324
-0.000249431
0.00163286
-0.000320843
0.00141707
-0.000413292
0.00120997
-0.000534628
0.000964853
-0.000646179
-0.000457479
0.00454427
0.00289571
0.00571414
0.0056622
0.00564301
0.00555486
0.00532258
0.0050656
0.00485086
0.00469465
0.00459574
0.00454727
0.00453634
0.00454519
0.00456038
0.00457333
0.00457964
0.00457758
0.00456674
0.00454719
0.00451897
0.00448168
0.00443516
0.00437936
0.00431341
0.00423753
0.00415097
0.00405216
0.00393894
0.0038083
0.00365623
0.00347734
0.0032645
0.0030083
0.00269663
0.00231387
0.00183888
0.00124252
0.000533908
)
;

boundaryField
{
    floor
    {
        type            calculated;
        value           nonuniform List<scalar> 
29
(
0
0
0
0
0
0
0
0
0
0
0
0
0
0
0
0
0
0
0
0
-2.23618e-06
-2.91259e-06
3.38705e-06
1.23213e-05
7.73191e-07
-1.96115e-06
-2.36525e-06
-2.75544e-07
4.71853e-06
)
;
    }
    ceiling
    {
        type            calculated;
        value           nonuniform List<scalar> 
43
(
0.000140422
0.000111472
5.18184e-05
5.37307e-05
5.89389e-05
6.51204e-05
7.13547e-05
7.72328e-05
8.22782e-05
8.59562e-05
8.78454e-05
8.76951e-05
8.61058e-05
8.39541e-05
8.17998e-05
7.98653e-05
7.81795e-05
7.66995e-05
7.53739e-05
7.4163e-05
7.30416e-05
7.19963e-05
7.10152e-05
7.00893e-05
6.92171e-05
6.83541e-05
6.75131e-05
6.67176e-05
6.59773e-05
6.52939e-05
6.46654e-05
6.40895e-05
6.35652e-05
6.30941e-05
6.26842e-05
6.23546e-05
6.21459e-05
6.2168e-05
6.28863e-05
6.78682e-05
2.78427e-05
2.25727e-05
3.27433e-05
)
;
    }
    sWall
    {
        type            calculated;
        value           uniform -7.25241e-05;
    }
    nWall
    {
        type            calculated;
        value           nonuniform List<scalar> 6(-2.08419e-08 1.49528e-06 2.75803e-06 6.22603e-06 7.04238e-06 9.01375e-06);
    }
    sideWalls
    {
        type            empty;
        value           nonuniform 0();
    }
    glass1
    {
        type            calculated;
        value           nonuniform List<scalar> 9(-4.84713e-05 -0.000121177 -0.000176366 -0.000221464 -0.000260719 -0.00029484 -0.000328211 -0.000376612 -0.000418669);
    }
    glass2
    {
        type            calculated;
        value           nonuniform List<scalar> 2(1.85468e-05 2.55288e-05);
    }
    sun
    {
        type            calculated;
        value           uniform 0;
    }
    heatsource1
    {
        type            calculated;
        value           nonuniform List<scalar> 3(1.98789e-07 1.98907e-07 1.9912e-07);
    }
    heatsource2
    {
        type            calculated;
        value           nonuniform List<scalar> 4(5.02322e-08 5.04212e-08 0 0);
    }
    Table_master
    {
        type            calculated;
        value           nonuniform List<scalar> 9(-1.51842e-07 -1.5174e-07 -1.51646e-07 -1.51566e-07 -1.51492e-07 -1.51422e-07 -1.51348e-07 -1.51259e-07 -1.51131e-07);
    }
    Table_slave
    {
        type            calculated;
        value           nonuniform List<scalar> 9(1.49634e-07 1.49615e-07 1.49604e-07 1.49602e-07 1.49608e-07 1.4962e-07 1.49642e-07 1.49675e-07 1.4971e-07);
    }
    inlet
    {
        type            calculated;
        value           uniform 0.00245934;
    }
    outlet
    {
        type            calculated;
        value           nonuniform List<scalar> 2(-0.00461173 0.00153752);
    }
}


// ************************************************************************* //
