// -*- C++ -*-
// File generated by PyFoam - sorry for the ugliness

FoamFile
{
 version 2.0;
 format ascii;
 class volScalarField;
 location "680";
 object T;
}

dimensions [ 0 0 0 1 0 0 0 ];

internalField nonuniform List<scalar> 459
(
  300.338
  300.352
  300.358
  300.361
  300.365
  300.371
  300.385
  300.407
  300.419
  300.428
  300.432
  300.433
  300.433
  300.432
  300.423
  300.498
  300.532
  300.557
  300.571
  300.579
  300.585
  300.589
  300.592
  300.595
  300.598
  300.6
  300.603
  300.606
  300.608
  300.611
  300.613
  300.616
  300.618
  300.598
  300.349
  300.36
  300.363
  300.363
  300.362
  300.365
  300.385
  300.417
  300.442
  300.46
  300.47
  300.473
  300.472
  300.465
  300.45
  300.454
  300.459
  300.538
  300.549
  300.563
  300.579
  300.593
  300.605
  300.613
  300.621
  300.628
  300.635
  300.642
  300.65
  300.656
  300.662
  300.665
  300.664
  300.659
  300.65
  300.659
  300.353
  300.36
  300.36
  300.355
  300.349
  300.351
  300.376
  300.417
  300.455
  300.483
  300.499
  300.504
  300.502
  300.494
  300.48
  300.472
  300.468
  300.532
  300.54
  300.558
  300.58
  300.602
  300.618
  300.625
  300.632
  300.64
  300.648
  300.657
  300.667
  300.676
  300.685
  300.69
  300.691
  300.685
  300.674
  300.676
  300.355
  300.36
  300.356
  300.348
  300.338
  300.338
  300.367
  300.416
  300.469
  300.509
  300.531
  300.538
  300.535
  300.524
  300.507
  300.492
  300.481
  300.487
  300.505
  300.528
  300.562
  300.596
  300.626
  300.649
  300.667
  300.682
  300.697
  300.712
  300.726
  300.74
  300.755
  300.77
  300.785
  300.747
  300.72
  300.699
  300.692
  300.356
  300.359
  300.354
  300.345
  300.33
  300.33
  300.358
  300.416
  300.484
  300.538
  300.568
  300.576
  300.57
  300.555
  300.535
  300.518
  300.505
  300.511
  300.531
  300.564
  300.603
  300.642
  300.675
  300.701
  300.722
  300.741
  300.756
  300.769
  300.781
  300.792
  300.803
  300.812
  300.817
  300.788
  300.754
  300.73
  300.711
  300.717
  300.747
  300.845
  300.358
  300.358
  300.353
  300.34
  300.323
  300.323
  300.352
  300.419
  300.502
  300.571
  300.608
  300.618
  300.607
  300.588
  300.568
  300.551
  300.543
  300.557
  300.588
  300.628
  300.67
  300.708
  300.739
  300.762
  300.782
  300.796
  300.808
  300.818
  300.827
  300.835
  300.843
  300.847
  300.845
  300.821
  300.793
  300.778
  300.741
  300.734
  300.77
  300.834
  300.359
  300.358
  300.351
  300.33
  300.313
  300.315
  300.349
  300.427
  300.528
  300.612
  300.655
  300.663
  300.648
  300.628
  300.61
  300.601
  300.605
  300.631
  300.67
  300.711
  300.751
  300.784
  300.808
  300.827
  300.84
  300.847
  300.854
  300.861
  300.867
  300.872
  300.875
  300.875
  300.869
  300.853
  300.832
  300.809
  300.764
  300.751
  300.784
  300.831
  300.363
  300.357
  300.341
  300.309
  300.299
  300.308
  300.353
  300.448
  300.57
  300.666
  300.709
  300.712
  300.7
  300.686
  300.677
  300.679
  300.697
  300.732
  300.771
  300.805
  300.837
  300.861
  300.876
  300.884
  300.888
  300.892
  300.895
  300.898
  300.901
  300.902
  300.902
  300.898
  300.89
  300.877
  300.859
  300.833
  300.793
  300.77
  300.794
  300.835
  300.348
  300.348
  300.282
  300.273
  300.281
  300.308
  300.372
  300.497
  300.641
  300.741
  300.772
  300.775
  300.771
  300.769
  300.772
  300.785
  300.807
  300.838
  300.868
  300.892
  300.909
  300.919
  300.925
  300.927
  300.928
  300.928
  300.928
  300.928
  300.927
  300.924
  300.92
  300.914
  300.904
  300.892
  300.876
  300.855
  300.825
  300.798
  300.811
  300.843
  300.197
  300.249
  300.292
  300.349
  300.453
  300.637
  300.764
  300.816
  300.834
  300.842
  300.847
  300.853
  300.863
  300.877
  300.895
  300.914
  300.931
  300.943
  300.951
  300.955
  300.956
  300.955
  300.953
  300.951
  300.949
  300.945
  300.941
  300.936
  300.929
  300.92
  300.91
  300.897
  300.882
  300.866
  300.847
  300.83
  300.834
  300.844
  300.57
  300.578
  300.601
  300.631
  300.693
  300.776
  300.838
  300.868
  300.883
  300.893
  300.901
  300.91
  300.92
  300.931
  300.943
  300.954
  300.962
  300.967
  300.97
  300.971
  300.969
  300.967
  300.964
  300.961
  300.957
  300.952
  300.946
  300.938
  300.929
  300.919
  300.908
  300.895
  300.882
  300.87
  300.859
  300.85
  300.85
  300.852
  300.726
  300.722
  300.718
  300.739
  300.762
  300.79
  300.825
  300.861
  300.887
  300.902
  300.912
  300.92
  300.928
  300.936
  300.943
  300.951
  300.957
  300.962
  300.964
  300.965
  300.965
  300.963
  300.961
  300.958
  300.954
  300.949
  300.944
  300.938
  300.93
  300.921
  300.911
  300.899
  300.887
  300.875
  300.864
  300.856
  300.85
  300.847
  300.846
  300.845
)
;

boundaryField
{
  floor
  {
    type wallHeatTransfer;
    Tinf uniform 297.948;
    alphaWall uniform 0.24;
    value nonuniform List<scalar> 29
(
  299.967
  300.036
  300.108
  300.123
  300.127
  300.114
  300.098
  300.076
  300.052
  300.03
  300.009
  299.989
  299.971
  299.953
  299.936
  299.919
  299.901
  299.884
  299.874
  299.953
  299.953
  300.091
  300.155
  300.215
  299.967
  300.036
  300.174
  300.182
  300.036
)
;
  }
  ceiling
  {
    type wallHeatTransfer;
    Tinf uniform 297.948;
    alphaWall uniform 0.24;
    value nonuniform List<scalar> 43
(
  300.484
  300.492
  300.506
  300.536
  300.555
  300.575
  300.601
  300.628
  300.648
  300.66
  300.668
  300.676
  300.683
  300.691
  300.698
  300.705
  300.712
  300.716
  300.719
  300.72
  300.719
  300.717
  300.714
  300.711
  300.707
  300.703
  300.698
  300.693
  300.687
  300.68
  300.672
  300.662
  300.652
  300.641
  300.63
  300.621
  300.616
  300.615
  300.613
  300.586
  300.032
  300.083
  300.405
)
;
  }
  sWall
  {
    type wallHeatTransfer;
    Tinf uniform 300.167;
    alphaWall uniform 0.36;
    value uniform 300.656;
  }
  nWall
  {
    type wallHeatTransfer;
    Tinf uniform 299.15;
    alphaWall uniform 0.36;
    value nonuniform List<scalar> 6
(
  300.526
  300.576
  300.626
  300.673
  300.657
  300.627
)
;
  }
  sideWalls
  {
    type empty;
  }
  glass1
  {
    type wallHeatTransfer;
    Tinf uniform 300.167;
    alphaWall uniform 4.3;
    value nonuniform List<scalar> 9
(
  300.196
  300.199
  300.2
  300.201
  300.203
  300.206
  300.21
  300.216
  300.216
)
;
  }
  glass2
  {
    type wallHeatTransfer;
    Tinf uniform 299.15;
    alphaWall uniform 4.3;
    value nonuniform List<scalar> 2
(
  299.894
  299.937
)
;
  }
  sun
  {
    type wallHeatTransfer;
    Tinf uniform 297.948;
    alphaWall uniform 0.24;
    value nonuniform List<scalar> 14
(
  299.818
  299.887
  299.926
  299.954
  299.981
  300.006
  300.036
  300.059
  300.065
  300.062
  300.052
  300.037
  300.02
  299.999
)
;
  }
  heatsource1
  {
    type fixedGradient;
    gradient uniform 0;
  }
  heatsource2
  {
    type fixedGradient;
    gradient uniform 0;
  }
  Table_master
  {
    type zeroGradient;
  }
  Table_slave
  {
    type zeroGradient;
  }
  inlet
  {
    type fixedValue;
    value uniform 300.15;
  }
  outlet
  {
    type zeroGradient;
  }
} 	// ************************************************************************* //

