/*--------------------------------*- C++ -*----------------------------------*\
  =========                 |
  \\      /  F ield         | OpenFOAM: The Open Source CFD Toolbox
   \\    /   O peration     | Website:  https://openfoam.org
    \\  /    A nd           | Version:  6
     \\/     M anipulation  |
\*---------------------------------------------------------------------------*/
FoamFile
{
    version     2.0;
    format      ascii;
    class       volScalarField;
    location    "500";
    object      alphat;
}
// * * * * * * * * * * * * * * * * * * * * * * * * * * * * * * * * * * * * * //

dimensions      [1 -1 -1 0 0 0 0];

internalField   nonuniform List<scalar> 
459
(
0.00117867
0.00128034
0.00129717
0.00135634
0.0014105
0.0014603
0.00150791
0.00155605
0.00159586
0.00161918
0.00161992
0.00159319
0.00153808
0.00146185
0.00137868
0.000511806
0.000630416
0.000692563
0.000674588
0.000645125
0.000611947
0.000575633
0.000540989
0.000509617
0.000481576
0.000456539
0.000434212
0.000414221
0.000396041
0.000379085
0.000362515
0.000345049
0.000335183
0.000308236
0.00162958
0.00377843
0.00354426
0.00411284
0.00464782
0.00519361
0.00570372
0.00610303
0.00644376
0.00673495
0.00693009
0.00696624
0.00674448
0.00605774
0.00431871
0.00139653
0.000914881
0.000572206
0.00109413
0.0014464
0.00168035
0.00178883
0.00177689
0.00150302
0.00132899
0.00119866
0.00109547
0.00101128
0.00093947
0.000874746
0.000814256
0.000756511
0.000706613
0.000660401
0.000791073
0.000418353
0.00200948
0.00517286
0.00431542
0.00554053
0.0061009
0.00650731
0.0068167
0.0070569
0.0072989
0.00756401
0.00782242
0.00802556
0.00809974
0.00796956
0.00747152
0.00606572
0.00134956
0.0011669
0.00156364
0.00188974
0.00215654
0.00232444
0.00225296
0.00081233
0.000725483
0.000655305
0.000598254
0.000551418
0.000512568
0.000480086
0.000452915
0.000430571
0.000463071
0.000531264
0.000885523
0.00049011
0.00237841
0.00674307
0.00427085
0.0058845
0.00644358
0.0066116
0.00667267
0.00674606
0.00689781
0.00714007
0.00744293
0.0077649
0.0080169
0.00814902
0.00809338
0.00761316
0.00591035
0.00156181
0.00195105
0.00244392
0.00284371
0.00312085
0.00327892
0.00307754
0.000908046
0.000837515
0.000788981
0.000753139
0.000722481
0.00069206
0.000662548
0.000630837
0.000592857
0.000558318
0.000565147
0.00101908
0.000544851
0.0027553
0.00878607
0.00472405
0.00558059
0.00640621
0.0064869
0.00638029
0.00631835
0.00643911
0.00667827
0.00700632
0.00739318
0.00770976
0.00788618
0.00787086
0.00761506
0.00697127
0.00568521
0.00515997
0.00490097
0.00474667
0.00465462
0.00459714
0.00447334
0.00389654
0.00364638
0.00351255
0.00340452
0.00327479
0.00307594
0.00276017
0.0023569
0.00189724
0.00142131
0.00104733
0.00103435
0.000724487
0.000681668
0.000822623
0.000920848
0.00315342
0.0110034
0.00669708
0.00536179
0.00598868
0.00632017
0.00627956
0.00614294
0.00626338
0.00648469
0.00681288
0.00720187
0.00754611
0.00772947
0.00767824
0.00739243
0.00694003
0.00642803
0.00607646
0.00582577
0.0056218
0.00546307
0.00533484
0.00519742
0.00498998
0.00481014
0.00464588
0.00447762
0.00429412
0.00408588
0.00379384
0.00338971
0.00287241
0.00226988
0.00171241
0.00125614
0.00097653
0.000846831
0.00122201
0.000959255
0.00352457
0.0126116
0.00976265
0.00700833
0.0063467
0.00640855
0.00644185
0.00635868
0.00635527
0.00651325
0.00683953
0.00725311
0.00761489
0.00778205
0.00766965
0.00730018
0.00681715
0.00642379
0.00621238
0.00605696
0.00586211
0.0056234
0.00536247
0.00511386
0.00489677
0.00471802
0.00455484
0.004394
0.00423416
0.00408101
0.00393523
0.00368216
0.00327505
0.00275222
0.00223517
0.0017517
0.00141681
0.00131968
0.00136314
0.00107845
0.00360008
0.0114768
0.0100335
0.00902367
0.00821069
0.00765251
0.00704769
0.00660264
0.00647153
0.00665978
0.00707154
0.00754644
0.00790364
0.00799032
0.0077396
0.00722086
0.00664978
0.00628427
0.00613508
0.00586748
0.00547314
0.00505222
0.00469011
0.00442196
0.00423358
0.00409173
0.00397065
0.00386343
0.00377536
0.00371783
0.00370369
0.00370948
0.00348318
0.00312594
0.00280388
0.00264104
0.00276051
0.00323079
0.00404215
0.0017034
0.00350622
0.00418277
0.0046974
0.00491735
0.00503783
0.0050862
0.00524171
0.00561286
0.00620237
0.00692688
0.00763663
0.00816679
0.00838026
0.00818871
0.0076091
0.00684337
0.006268
0.00587551
0.00548362
0.00496975
0.00443981
0.00401327
0.00371863
0.00352511
0.00339079
0.00328418
0.00318793
0.00309459
0.00300023
0.00290096
0.00279276
0.00267611
0.00257756
0.00250503
0.00248477
0.00250953
0.00251009
0.00242043
0.00226718
0.00159957
0.00200188
0.0038436
0.00512742
0.0060865
0.00698782
0.00780273
0.00849443
0.00898504
0.00918521
0.00904724
0.00856386
0.00773659
0.00668042
0.00577026
0.00517852
0.00466174
0.00409912
0.00357273
0.00318277
0.0029285
0.00276735
0.00266018
0.00258228
0.00252059
0.00246941
0.00242711
0.00239429
0.00237324
0.00236806
0.00238731
0.00241547
0.00245192
0.00249048
0.00250386
0.00244585
0.002299
0.00207808
0.0013221
0.00242966
0.00533447
0.00724151
0.00800863
0.008672
0.00914624
0.00927425
0.00912421
0.00856615
0.00768576
0.00662876
0.00559472
0.00473877
0.00407213
0.00350723
0.00301362
0.00264911
0.00241361
0.00225635
0.00214985
0.0020824
0.00204163
0.00202129
0.00201858
0.00203225
0.00206139
0.00210442
0.00215795
0.0022254
0.00230932
0.00240757
0.00251384
0.002612
0.00268107
0.00266992
0.00270609
0.00270354
0.0013447
0.00210658
0.00223019
0.00231918
0.00244471
0.00231729
0.00217611
0.00205531
0.00193506
0.00181803
0.00168489
0.00152604
0.00134261
0.00115251
0.000977101
0.000837331
0.000740467
0.000681624
0.000650067
0.000636593
0.000635022
0.000641594
0.000654007
0.000670224
0.000689947
0.000713116
0.000739812
0.000770236
0.000804766
0.00084408
0.000889408
0.000941089
0.000998293
0.00106183
0.0011325
0.00121035
0.00130369
0.00133585
0.001304
0.00122303
0.00113728
)
;

boundaryField
{
    floor
    {
        type            compressible::alphatWallFunction;
        Prt             0.85;
        value           nonuniform List<scalar> 
29
(
0.000194608
7.10529e-05
8.89221e-05
9.81157e-05
9.54671e-05
9.11074e-05
8.61685e-05
8.07251e-05
7.54921e-05
7.07175e-05
6.64186e-05
6.25534e-05
5.9084e-05
5.59581e-05
5.30987e-05
5.04165e-05
4.77802e-05
4.49844e-05
4.33971e-05
3.90301e-05
3.90295e-05
5.66056e-05
6.77298e-05
7.60774e-05
0.000194606
7.10521e-05
8.02096e-05
0.000165593
0.000219289
)
;
    }
    ceiling
    {
        type            compressible::alphatWallFunction;
        Prt             0.85;
        value           nonuniform List<scalar> 
43
(
0.000290869
0.000306828
0.000318262
0.00033442
0.000318173
0.000300034
0.000284407
0.000268748
0.000253404
0.00023581
0.000214614
0.000189823
0.000163722
0.000139193
0.000119279
0.000105247
9.66168e-05
9.19518e-05
8.99518e-05
8.97188e-05
9.06959e-05
9.25378e-05
9.49376e-05
9.78464e-05
0.000101251
0.000105156
0.000109587
0.00011459
0.000120255
0.000126748
0.000134104
0.00014219
0.000151108
0.000160956
0.000171724
0.000184529
0.000188917
0.000184573
0.000173471
0.000161624
0.000467343
0.000549643
0.000332255
)
;
    }
    sWall
    {
        type            compressible::alphatWallFunction;
        Prt             0.85;
        value           uniform 0.000289657;
    }
    nWall
    {
        type            compressible::alphatWallFunction;
        Prt             0.85;
        value           nonuniform List<scalar> 6(0.000130906 0.00013635 0.000153093 0.000186714 0.000189791 0.000161299);
    }
    sideWalls
    {
        type            empty;
    }
    glass1
    {
        type            compressible::alphatWallFunction;
        Prt             0.85;
        value           nonuniform List<scalar> 9(0.000163105 0.000223391 0.000272873 0.000320052 0.000367517 0.000416969 0.000462535 0.000471875 0.000460646);
    }
    glass2
    {
        type            compressible::alphatWallFunction;
        Prt             0.85;
        value           nonuniform List<scalar> 2(0.000236546 0.000222851);
    }
    sun
    {
        type            compressible::alphatWallFunction;
        Prt             0.85;
        value           nonuniform List<scalar> 
14
(
0.000167243
0.00018121
0.000183511
0.000191578
0.000198926
0.000205656
0.000212065
0.000218523
0.000223847
0.000226958
0.000227055
0.000223488
0.000216111
0.000205861
)
;
    }
    heatsource1
    {
        type            compressible::alphatWallFunction;
        Prt             0.85;
        value           nonuniform List<scalar> 3(9.66195e-05 0.000117158 0.000131219);
    }
    heatsource2
    {
        type            compressible::alphatWallFunction;
        Prt             0.85;
        value           nonuniform List<scalar> 4(0.000197151 0.00013037 0.000130368 0.000190769);
    }
    Table_master
    {
        type            compressible::alphatWallFunction;
        Prt             0.85;
        value           nonuniform List<scalar> 9(0.00011567 0.000103051 9.27205e-05 8.4223e-05 7.71721e-05 7.1267e-05 6.62866e-05 6.20878e-05 5.86109e-05);
    }
    Table_slave
    {
        type            compressible::alphatWallFunction;
        Prt             0.85;
        value           nonuniform List<scalar> 9(0.000129395 0.000119301 0.000112296 0.000107091 0.000102614 9.81494e-05 9.37952e-05 8.90903e-05 8.34165e-05);
    }
    inlet
    {
        type            fixedValue;
        value           uniform 1.94e-05;
    }
    outlet
    {
        type            zeroGradient;
    }
}


// ************************************************************************* //
