/*--------------------------------*- C++ -*----------------------------------*\
  =========                 |
  \\      /  F ield         | OpenFOAM: The Open Source CFD Toolbox
   \\    /   O peration     | Website:  https://openfoam.org
    \\  /    A nd           | Version:  6
     \\/     M anipulation  |
\*---------------------------------------------------------------------------*/
FoamFile
{
    version     2.0;
    format      ascii;
    class       volScalarField;
    location    "800";
    object      epsilon;
}
// * * * * * * * * * * * * * * * * * * * * * * * * * * * * * * * * * * * * * //

dimensions      [0 2 -3 0 0 0 0];

internalField   nonuniform List<scalar> 
459
(
0.000116454
0.000130036
7.7213e-05
7.47172e-05
7.60809e-05
7.80862e-05
8.073e-05
8.37079e-05
8.72546e-05
9.14199e-05
9.60578e-05
0.000100847
0.000105336
0.000108886
0.000109968
1.53272e-05
1.2624e-05
7.17177e-06
4.18453e-06
3.30689e-06
3.17786e-06
3.37861e-06
3.8674e-06
4.4265e-06
4.93284e-06
5.23856e-06
5.25525e-06
5.40658e-06
6.12504e-06
7.89319e-06
1.1436e-05
1.64175e-05
3.41686e-05
2.72871e-05
0.000645071
0.00122757
0.000181979
7.93309e-05
6.42607e-05
5.99197e-05
5.82336e-05
5.78329e-05
5.86739e-05
6.09797e-05
6.50298e-05
7.12218e-05
8.00651e-05
9.20706e-05
0.000109295
0.00015281
3.32785e-05
3.57731e-05
3.67696e-05
1.49433e-05
8.72836e-06
7.57349e-06
7.5851e-06
7.89586e-06
9.42158e-06
1.11355e-05
1.27074e-05
1.42031e-05
1.60616e-05
1.8854e-05
2.36609e-05
3.12699e-05
4.03245e-05
6.08388e-05
0.000151985
8.1563e-05
0.00176138
0.00422601
0.000747418
0.000227478
0.000137039
0.000107923
9.24086e-05
8.29934e-05
7.75306e-05
7.55003e-05
7.65922e-05
8.07315e-05
8.79715e-05
9.82054e-05
0.000111567
0.000132831
0.000186329
6.80785e-05
4.32158e-05
1.74951e-05
1.26835e-05
1.17156e-05
1.13341e-05
8.81161e-06
1.05373e-05
1.28509e-05
1.58361e-05
1.99755e-05
2.61684e-05
3.62136e-05
5.43192e-05
9.13968e-05
7.29743e-05
0.000116844
0.000320762
0.000162195
0.00354358
0.00919876
0.00229988
0.000758154
0.000390471
0.000258312
0.000190288
0.000148679
0.000123282
0.000109015
0.000102538
0.000102052
0.000106492
0.00011441
0.00012366
0.000131674
0.000139391
0.000164614
5.63453e-05
3.50141e-05
2.69034e-05
2.83159e-05
3.31464e-05
4.178e-05
5.75219e-05
5.77459e-05
5.87171e-05
6.04648e-05
6.34706e-05
6.84452e-05
7.67169e-05
9.13881e-05
0.000121211
7.90567e-05
0.000125081
0.000302497
0.000173398
0.00586004
0.015089
0.00528626
0.00220583
0.00113482
0.000677881
0.000440881
0.000305699
0.000224119
0.000174705
0.000148234
0.000136334
0.0001353
0.000141026
0.000149242
0.0001537
0.000145749
0.000117595
7.87373e-05
5.58377e-05
4.80437e-05
4.64289e-05
4.7169e-05
4.83586e-05
4.92026e-05
4.89848e-05
4.89399e-05
4.92299e-05
5.00157e-05
5.15115e-05
5.40056e-05
5.79024e-05
6.34526e-05
6.89562e-05
8.0815e-05
9.97682e-05
0.000120294
8.15801e-05
8.63797e-05
9.14643e-05
0.00857133
0.0193686
0.00999137
0.0051455
0.00290241
0.00170228
0.00103858
0.000660018
0.000438856
0.000308581
0.000230682
0.000187656
0.000172385
0.000171739
0.000178926
0.000185895
0.000181626
0.000158811
0.000128052
0.000104765
9.14688e-05
8.41799e-05
8.06487e-05
7.90848e-05
7.81212e-05
7.72458e-05
7.66566e-05
7.64071e-05
7.65718e-05
7.72883e-05
7.87279e-05
8.11017e-05
8.4563e-05
8.85965e-05
9.17965e-05
9.25551e-05
9.17727e-05
0.000100408
0.000140843
0.000176147
0.0106549
0.019232
0.0150903
0.00972058
0.00577363
0.00340324
0.00203136
0.00124316
0.000785617
0.000518492
0.000363152
0.00027478
0.000226866
0.000208766
0.000210307
0.000221186
0.000225665
0.000214855
0.000193657
0.000172679
0.000156705
0.000145681
0.000138893
0.000135041
0.000132765
0.000131317
0.000130459
0.000130034
0.000130044
0.000130674
0.000132211
0.000134983
0.000139132
0.000143778
0.00014617
0.000143591
0.000139437
0.000151713
0.000219152
0.000293982
0.00989001
0.0181338
0.024246
0.0173169
0.0104318
0.00592168
0.00336477
0.00196508
0.00119517
0.000764346
0.000519007
0.000378918
0.000302008
0.000264592
0.000254944
0.000264985
0.000279252
0.000285897
0.00028154
0.00027117
0.000259907
0.000250374
0.000243616
0.000239476
0.000237241
0.000236343
0.000236378
0.000236821
0.000237557
0.000238876
0.000241251
0.000245151
0.000250692
0.000256713
0.000259579
0.00025404
0.000241055
0.000243884
0.000322141
0.000472623
0.00826449
0.0126867
0.068721
0.0405757
0.0189328
0.0088126
0.00442293
0.00243204
0.00146018
0.000951266
0.000670871
0.000513457
0.000428047
0.000388407
0.000379726
0.000389815
0.000410853
0.000435736
0.000454163
0.000464434
0.000468804
0.000470371
0.000471133
0.000472245
0.000474234
0.000477324
0.000481299
0.000484908
0.000488042
0.000491364
0.000495721
0.000501746
0.000509364
0.000516834
0.000519527
0.000509953
0.000482799
0.000453957
0.000494292
0.000774447
0.149699
0.0950608
0.0202693
0.00648025
0.0035476
0.00225135
0.00157066
0.00119446
0.000985193
0.000874813
0.000826786
0.00081982
0.00084025
0.000878214
0.000925426
0.000972157
0.00101485
0.00105024
0.001078
0.00110061
0.00111831
0.00113284
0.00114603
0.00115932
0.00117284
0.00118276
0.00118962
0.00119536
0.0012018
0.00120997
0.00121961
0.00122822
0.0012296
0.00121212
0.00115856
0.00106101
0.0010375
0.00137177
0.0911031
0.0381605
0.0137327
0.00622051
0.00378896
0.00282482
0.00237817
0.00216172
0.00207845
0.00208278
0.00214582
0.0022468
0.00236952
0.00250027
0.00262617
0.00273701
0.00282614
0.00289337
0.00294243
0.00297782
0.00300596
0.00303128
0.00305699
0.00308528
0.00311571
0.00313747
0.00315199
0.00316395
0.00317727
0.00319353
0.00321134
0.00322519
0.00322361
0.00318924
0.00310869
0.00299942
0.00306416
0.00268008
0.000943415
0.00194648
0.0271534
0.0150457
0.00698756
0.00338658
0.00250564
0.00220578
0.00203145
0.00191057
0.0018275
0.0017758
0.00174954
0.00174297
0.00175103
0.00176921
0.00179328
0.00181886
0.00184234
0.00186117
0.00187447
0.00188278
0.00188692
0.00188826
0.00188796
0.00188675
0.00188487
0.00188536
0.0018837
0.00187902
0.00187177
0.00186227
0.00184987
0.00183232
0.00180515
0.00176121
0.00169104
0.0015843
0.00143641
0.000984163
)
;

boundaryField
{
    floor
    {
        Cmu             0.09;
        kappa           0.41;
        E               9.8;
        type            epsilonWallFunction;
        value           nonuniform List<scalar> 
29
(
0.000109968
1.53272e-05
1.2624e-05
7.17177e-06
4.18453e-06
3.30689e-06
3.17786e-06
3.37861e-06
3.8674e-06
4.4265e-06
4.93284e-06
5.23856e-06
5.25525e-06
5.40658e-06
6.12504e-06
7.89319e-06
1.1436e-05
1.64175e-05
3.41686e-05
2.72871e-05
2.72871e-05
8.1563e-05
0.000162195
0.000173398
0.000109968
1.53272e-05
3.57731e-05
6.80785e-05
0.000164614
)
;
    }
    ceiling
    {
        Cmu             0.09;
        kappa           0.41;
        E               9.8;
        type            epsilonWallFunction;
        value           nonuniform List<scalar> 
43
(
0.000943415
0.00194648
0.0271534
0.0150457
0.00698756
0.00338658
0.00250564
0.00220578
0.00203145
0.00191057
0.0018275
0.0017758
0.00174954
0.00174297
0.00175103
0.00176921
0.00179328
0.00181886
0.00184234
0.00186117
0.00187447
0.00188278
0.00188692
0.00188826
0.00188796
0.00188675
0.00188487
0.00188536
0.0018837
0.00187902
0.00187177
0.00186227
0.00184987
0.00183232
0.00180515
0.00176121
0.00169104
0.0015843
0.00143641
0.000984163
0.00826449
0.0126867
0.0911031
)
;
    }
    sWall
    {
        Cmu             0.09;
        kappa           0.41;
        E               9.8;
        type            epsilonWallFunction;
        value           uniform 0.000943415;
    }
    nWall
    {
        Cmu             0.09;
        kappa           0.41;
        E               9.8;
        type            epsilonWallFunction;
        value           nonuniform List<scalar> 6(9.14643e-05 0.000176147 0.000293982 0.00137177 0.00268008 0.000984163);
    }
    sideWalls
    {
        type            empty;
    }
    glass1
    {
        Cmu             0.09;
        kappa           0.41;
        E               9.8;
        type            epsilonWallFunction;
        value           nonuniform List<scalar> 9(0.000116454 0.000645071 0.00176138 0.00354358 0.00586004 0.00857133 0.0106549 0.00989001 0.00826449);
    }
    glass2
    {
        Cmu             0.09;
        kappa           0.41;
        E               9.8;
        type            epsilonWallFunction;
        value           nonuniform List<scalar> 2(0.000472623 0.000774447);
    }
    sun
    {
        Cmu             0.09;
        kappa           0.41;
        E               9.8;
        type            epsilonWallFunction;
        value           nonuniform List<scalar> 
14
(
0.000116454
0.000130036
7.7213e-05
7.47172e-05
7.60809e-05
7.80862e-05
8.073e-05
8.37079e-05
8.72546e-05
9.14199e-05
9.60578e-05
0.000100847
0.000105336
0.000108886
)
;
    }
    heatsource1
    {
        Cmu             0.09;
        kappa           0.41;
        E               9.8;
        type            epsilonWallFunction;
        value           nonuniform List<scalar> 3(8.15801e-05 8.63797e-05 9.14643e-05);
    }
    heatsource2
    {
        Cmu             0.09;
        kappa           0.41;
        E               9.8;
        type            epsilonWallFunction;
        value           nonuniform List<scalar> 4(0.00015281 3.32785e-05 3.32785e-05 0.000186329);
    }
    Table_master
    {
        Cmu             0.09;
        kappa           0.41;
        E               9.8;
        type            epsilonWallFunction;
        value           nonuniform List<scalar> 9(8.81161e-06 1.05373e-05 1.28509e-05 1.58361e-05 1.99755e-05 2.61684e-05 3.62136e-05 5.43192e-05 9.13968e-05);
    }
    Table_slave
    {
        Cmu             0.09;
        kappa           0.41;
        E               9.8;
        type            epsilonWallFunction;
        value           nonuniform List<scalar> 9(5.75219e-05 5.77459e-05 5.87171e-05 6.04648e-05 6.34706e-05 6.84452e-05 7.67169e-05 9.13881e-05 0.000121211);
    }
    inlet
    {
        type            turbulentMixingLengthDissipationRateInlet;
        mixingLength    0.01;
        phi             phi;
        k               k;
        value           uniform 3.77337e-06;
    }
    outlet
    {
        type            zeroGradient;
    }
}


// ************************************************************************* //
