/*--------------------------------*- C++ -*----------------------------------*\
  =========                 |
  \\      /  F ield         | OpenFOAM: The Open Source CFD Toolbox
   \\    /   O peration     | Website:  https://openfoam.org
    \\  /    A nd           | Version:  6
     \\/     M anipulation  |
\*---------------------------------------------------------------------------*/
FoamFile
{
    version     2.0;
    format      ascii;
    class       surfaceScalarField;
    location    "800";
    object      phi;
}
// * * * * * * * * * * * * * * * * * * * * * * * * * * * * * * * * * * * * * //

dimensions      [1 0 -1 0 0 0 0];

internalField   nonuniform List<scalar> 
852
(
-0.00205899
0.0021006
-0.00232706
0.000268116
-0.0023853
5.82817e-05
-0.00243112
4.58651e-05
-0.00245082
1.97499e-05
-0.0024465
-4.27831e-06
-0.00242206
-2.44036e-05
-0.00237601
-4.60053e-05
-0.00230125
-7.47215e-05
-0.00218559
-0.000115615
-0.00201223
-0.000173314
-0.00175961
-0.00025258
-0.0013947
-0.000364866
-0.000849603
-0.000545057
-0.000851708
0.000152381
-0.000154239
0.000116746
3.56853e-05
9.86574e-05
1.81398e-05
0.000108233
-9.52524e-06
0.000133609
-2.53247e-05
0.000170216
-3.65565e-05
0.000216649
-4.63824e-05
0.000260931
-4.42308e-05
0.000299007
-3.80249e-05
0.000331057
-3.19988e-05
0.000353602
-2.24939e-05
0.000360224
-6.57149e-06
0.000345102
1.5173e-05
0.000307657
3.74969e-05
0.000269775
3.79335e-05
0.000227858
4.19702e-05
0.000131918
9.59928e-05
-0.000119897
0.00025187
-0.000121977
-0.0014458
0.0036528
-0.0018853
0.000707674
-0.00202346
0.000196491
-0.00209378
0.000116226
-0.00212673
5.27439e-05
-0.00213897
8.00549e-06
-0.00213848
-2.48524e-05
-0.00212622
-5.82193e-05
-0.00209794
-0.000102966
-0.00204594
-0.000167566
-0.0019596
-0.000259612
-0.00182521
-0.000386927
-0.00162839
-0.000561645
-0.00137542
-0.000797984
-0.00116292
-0.00106417
7.39572e-06
-0.00117032
7.39076e-06
-0.000182353
2.28763e-05
-0.000238834
9.22162e-05
-0.000304897
8.42526e-05
-0.000344718
3.03462e-05
-0.000353908
-1.60853e-05
-0.000350053
-4.0361e-05
-0.000324041
-7.23441e-05
-0.000314854
-5.3367e-05
-0.000320157
-3.26723e-05
-0.000338059
-1.40463e-05
-0.000365738
5.23598e-06
-0.000396506
2.42476e-05
-0.000425028
4.37461e-05
-0.00045038
6.28993e-05
-0.00044735
3.4955e-05
-0.000320358
-8.49709e-05
-0.000185634
-3.86797e-05
-8.12519e-06
7.44148e-05
-0.00013566
-0.000997452
0.0048064
-0.00142649
0.00113677
-0.0015538
0.000323865
-0.00160729
0.000169773
-0.00163614
8.16452e-05
-0.001659
3.09084e-05
-0.00168096
-2.84654e-06
-0.0017002
-3.89385e-05
-0.00171438
-8.87451e-05
-0.00171993
-0.000161978
-0.00171264
-0.000266862
-0.0016886
-0.000410925
-0.0016497
-0.00060051
-0.00161492
-0.000832719
-0.00160656
-0.00107249
-0.00150511
-0.00127173
-0.00149767
-0.000745702
0.000759329
-0.000865406
0.000211969
-0.000883598
0.000102491
-0.000890714
3.75099e-05
-0.000885722
-2.10299e-05
-0.000830304
-9.57313e-05
-0.000902449
-0.000955618
-0.000988091
-0.00100194
-0.000996506
-0.000972061
-0.000928117
-0.000865021
-0.000829869
-0.000491902
-0.00042289
-0.000185373
-0.000345161
5.25588e-05
-0.000163467
-9.19452e-05
-0.000650973
0.00565374
-0.0010053
0.00149116
-0.00100087
0.000319504
-0.00094471
0.000113687
-0.000936953
7.39534e-05
-0.000972667
6.66793e-05
-0.00103383
5.83636e-05
-0.00110419
3.14649e-05
-0.00117208
-2.08127e-05
-0.00123528
-9.87411e-05
-0.00129868
-0.000203423
-0.00136897
-0.000340601
-0.00146148
-0.000507962
-0.00159922
-0.000694934
-0.00179927
-0.000872398
-0.00207624
-0.000994713
-0.00264561
-0.000928261
-0.00236881
-0.000287798
-0.0016798
7.03637e-05
-0.00152236
5.45838e-05
-0.00149406
7.42381e-05
-0.00150346
4.69505e-05
-0.00152496
5.17033e-07
-0.00157887
-4.1775e-05
-0.00154405
-3.492e-05
-0.00150517
-3.89809e-05
-0.00145658
-4.86923e-05
-0.00139822
-5.84587e-05
-0.00132724
-7.10829e-05
-0.00123845
-8.88982e-05
-0.00112392
-0.000114633
-0.000966252
-0.000157767
-0.000714936
-0.00025142
-0.000689911
-0.00044787
-0.000454818
-0.00058021
7.11776e-05
-0.000689418
-3.41559e-05
-0.000399065
0.00628362
-0.000640036
0.0017322
-0.000368648
4.81985e-05
-0.000109679
-0.000145191
-2.60637e-05
-9.57821e-06
-6.93412e-05
0.000110027
-0.000173292
0.000162372
-0.000304951
0.000163173
-0.000446511
0.00012079
-0.000582272
3.70588e-05
-0.00070748
-7.81786e-05
-0.000832877
-0.000215168
-0.00097754
-0.000363261
-0.0011511
-0.000521336
-0.00135673
-0.000666731
-0.00160372
-0.000747676
-0.00187261
-0.000659331
-0.00178948
-0.000370884
-0.00158615
-0.000132915
-0.00147711
-5.44143e-05
-0.00139131
-1.1511e-05
-0.00133423
-1.00835e-05
-0.00130329
-3.03738e-05
-0.00129281
-5.22111e-05
-0.0012658
-6.1885e-05
-0.00123401
-7.07272e-05
-0.00120107
-8.15759e-05
-0.00116561
-9.38786e-05
-0.00112723
-0.00010941
-0.0010854
-0.000130688
-0.00103844
-0.000161542
-0.000985237
-0.000210925
-0.000943093
-0.000293517
-0.000989022
-0.000401896
-0.00109117
-0.000478013
-0.00135436
-0.000426193
-0.00116854
-0.000219927
-0.00102866
-0.000140041
-0.000754904
-0.000273908
-0.000756757
-0.000399013
0.00694398
-0.000337811
0.00167107
0.000403905
-0.000693427
0.000871577
-0.000612777
0.000969832
-0.000107752
0.000899839
0.000180095
0.000772115
0.000290161
0.000609598
0.000325745
0.00042718
0.000303255
0.00023367
0.000230609
3.57576e-05
0.000119772
-0.000155607
-2.37678e-05
-0.000343632
-0.0001752
-0.000545774
-0.000319157
-0.000765948
-0.000446519
-0.000994103
-0.00051948
-0.00117341
-0.000479979
-0.0012055
-0.000338748
-0.00114114
-0.000197236
-0.00107673
-0.000118781
-0.00101483
-7.33633e-05
-0.000966433
-5.84315e-05
-0.000933942
-6.28181e-05
-0.000912368
-7.3739e-05
-0.000890871
-8.33348e-05
-0.000868148
-9.34036e-05
-0.000844945
-0.000104732
-0.00082116
-0.000117617
-0.000797243
-0.00013328
-0.000774264
-0.000153621
-0.000754159
-0.0001816
-0.000742562
-0.000222475
-0.000754953
-0.000281081
-0.000809286
-0.000347518
-0.000900877
-0.000386377
-0.000973561
-0.000353465
-0.000903681
-0.000289762
-0.000721057
-0.000322622
-0.000465703
-0.000529219
-0.00122444
-0.00058347
0.00781991
0.000253308
0.000834367
0.00151908
-0.00195912
0.00195259
-0.00104621
0.00187932
-3.44149e-05
0.00174155
0.000317935
0.00158696
0.000444808
0.00140943
0.000503338
0.00122122
0.000491503
0.00103221
0.000419658
0.00083972
0.000312303
0.000630154
0.000185835
0.000408834
4.61551e-05
0.000183814
-9.4102e-05
-4.62558e-05
-0.000216412
-0.000267265
-0.000298432
-0.000435704
-0.0003115
-0.00051688
-0.00025753
-0.000527755
-0.000186318
-0.000512756
-0.000133735
-0.000486822
-9.92525e-05
-0.000461636
-8.35718e-05
-0.00044255
-8.18583e-05
-0.00042887
-8.73725e-05
-0.000416871
-9.5287e-05
-0.000405103
-0.000105125
-0.000393187
-0.000116602
-0.000381187
-0.00012957
-0.00036964
-0.00014478
-0.000359623
-0.000163592
-0.00035328
-0.000187897
-0.000355488
-0.000220221
-0.000374774
-0.000261749
-0.000416542
-0.000305703
-0.000470595
-0.000332278
-0.000499566
-0.000324449
-0.000477627
-0.000311656
-0.000401351
-0.000398854
-0.000217757
-0.000712769
-0.00144445
0.00227284
0.00588009
0.00338685
-0.000279552
0.00361444
-0.00218664
0.00308941
-0.000521128
0.0026102
0.00044485
0.00231314
0.00061505
0.00208852
0.000669478
0.00190203
0.000689875
0.00174189
0.000651692
0.00159602
0.000565567
0.00145341
0.000454943
0.00130307
0.000336212
0.00113118
0.000218072
0.000934355
0.000102762
0.000724877
-6.89784e-06
0.000521897
-9.54141e-05
0.000352875
-0.000142437
0.000240895
-0.000145508
0.000181767
-0.000127148
0.000154768
-0.000106691
0.00014602
-9.04603e-05
0.00014469
-8.21968e-05
0.000144227
-8.13496e-05
0.000142487
-8.55874e-05
0.000140064
-9.28181e-05
0.000137438
-0.000102453
0.000134882
-0.000113999
0.000131968
-0.00012661
0.000128161
-0.000140927
0.000122788
-0.000158172
0.00011455
-0.000179613
0.000100716
-0.00020634
7.7123e-05
-0.00023811
4.18594e-05
-0.000270393
2.12071e-06
-0.000292493
-2.73254e-05
-0.000294957
-4.6106e-05
-0.00029283
-7.89309e-05
-0.000365984
-8.98066e-05
-0.000701849
-0.00154553
0.00622249
0.00591323
0.00483324
-0.00110663
0.00278586
0.00152628
0.00226659
0.000964148
0.00206559
0.000816094
0.00195775
0.000777357
0.00189848
0.000749189
0.00185872
0.000691496
0.00181918
0.000605138
0.00177073
0.000503433
0.0017086
0.000398378
0.00162898
0.000297727
0.00152704
0.00020474
0.00139851
0.000121662
0.00125241
5.07223e-05
0.00111289
-2.87139e-06
0.00100156
-3.4137e-05
0.000922187
-4.77343e-05
0.000867591
-5.20519e-05
0.00083002
-5.2846e-05
0.000802598
-5.47298e-05
0.000779824
-5.85306e-05
0.000758676
-6.4394e-05
0.000738094
-7.21908e-05
0.000717782
-8.20951e-05
0.000697752
-9.39244e-05
0.000676685
-0.000105497
0.000654059
-0.000118254
0.000629621
-0.000133689
0.000602903
-0.000152849
0.000572939
-0.00017633
0.000538413
-0.000203539
0.00049903
-0.000230964
0.000457118
-0.000250536
0.000413535
-0.000251329
0.000350565
-0.000229814
0.000204395
-0.000219769
-9.2895e-05
-0.000404514
-0.0016513
-0.00280399
0.0021783
-0.0014871
0.000209431
-4.37094e-05
-0.000479209
0.000827271
-5.48467e-05
0.00126454
0.000340134
0.00150829
0.00050548
0.00166641
0.000533425
0.00177291
0.000498677
0.00184154
0.000434843
0.00187955
0.000360404
0.00189104
0.000286277
0.00187795
0.000217872
0.00184187
0.000157783
0.00178528
0.000107354
0.0017141
6.83478e-05
0.00164077
3.92302e-05
0.00157293
2.01513e-05
0.00151346
7.45866e-06
0.00146237
-1.70687e-06
0.00141763
-9.94565e-06
0.00137671
-1.75709e-05
0.00133776
-2.53947e-05
0.00129954
-3.39337e-05
0.00126134
-4.38474e-05
0.00122301
-5.55503e-05
0.00118283
-6.52682e-05
0.0011407
-7.60806e-05
0.00109647
-8.94097e-05
0.0010497
-0.000106035
0.000999804
-0.00012639
0.000946403
-0.000150091
0.000890317
-0.000174833
0.000834612
-0.000194787
0.000782313
-0.000198984
0.000722674
-0.000170131
0.000597433
-9.44835e-05
0.000291408
-9.84445e-05
-0.00136255
-2.19517e-05
0.00218408
0.000804629
-0.0006171
0.000934727
-0.000609257
0.00098495
-0.000105019
0.00112976
0.000195371
0.00134119
0.000294101
0.00154977
0.000324898
0.0017307
0.000317791
0.00187616
0.000289437
0.0019839
0.000252701
0.00205544
0.000214783
0.00209433
0.000179022
0.00210518
0.000146983
0.00209321
0.000119366
0.00206499
9.66119e-05
0.0020261
7.8161e-05
0.00198267
6.36252e-05
0.00193831
5.18578e-05
0.0018945
4.21508e-05
0.00185031
3.42863e-05
0.00180569
2.70904e-05
0.00175998
2.03628e-05
0.00171235
1.37412e-05
0.00166166
6.8868e-06
0.00160622
-6.7658e-08
0.00154846
-7.46412e-06
0.00148844
-1.60099e-05
0.00142497
-2.58956e-05
0.0013567
-3.77236e-05
0.00128261
-5.22494e-05
0.00120283
-7.02649e-05
0.00112043
-9.23941e-05
0.00104445
-0.000118764
0.000994381
-0.000148866
0.00100867
-0.000184376
0.00115274
-0.000238506
0.00135519
-0.000300848
-9.87646e-06
0.00470223
-0.000222244
0.00193436
0.00128486
0.000635291
0.000480764
0.00062198
0.000859725
0.00112685
0.00138588
0.00161588
0.00180876
0.00196359
0.00208272
0.00217
0.00222998
0.00226757
0.00228709
0.00229245
0.00228638
0.00227091
0.00224784
0.00221781
0.00218129
0.00213836
0.00208879
0.00203248
0.00196902
0.00189723
0.00181576
0.00172265
0.00161518
0.00148986
0.00134252
0.00116887
0.000965061
0.000725471
0.000431175
7.35826e-05
)
;

boundaryField
{
    floor
    {
        type            calculated;
        value           nonuniform List<scalar> 
29
(
0
0
0
0
0
0
0
0
0
0
0
0
0
0
0
0
0
0
0
0
2.13477e-06
5.609e-06
8.89136e-06
1.34315e-05
2.14855e-06
1.90865e-06
5.28719e-06
9.29724e-06
1.10447e-05
)
;
    }
    ceiling
    {
        type            calculated;
        value           nonuniform List<scalar> 
43
(
0.00011414
8.93905e-05
2.75459e-05
3.24631e-05
4.03734e-05
4.95668e-05
5.42129e-05
5.64136e-05
5.78226e-05
5.88165e-05
5.94859e-05
5.98674e-05
6.00037e-05
5.99447e-05
5.97395e-05
5.94336e-05
5.90684e-05
5.86843e-05
5.83121e-05
5.79721e-05
5.76704e-05
5.74016e-05
5.71593e-05
5.69331e-05
5.67144e-05
5.64983e-05
5.62838e-05
5.60458e-05
5.58219e-05
5.56191e-05
5.54335e-05
5.52616e-05
5.5107e-05
5.49849e-05
5.4928e-05
5.49918e-05
5.52585e-05
5.58347e-05
5.67878e-05
6.18911e-05
3.41867e-05
2.97648e-05
1.62279e-05
)
;
    }
    sWall
    {
        type            calculated;
        value           uniform -9.38644e-05;
    }
    nWall
    {
        type            calculated;
        value           nonuniform List<scalar> 6(1.69642e-06 2.02149e-06 2.29191e-06 2.69575e-06 2.5572e-06 1.85919e-06);
    }
    sideWalls
    {
        type            empty;
        value           nonuniform 0();
    }
    glass1
    {
        type            calculated;
        value           nonuniform List<scalar> 9(-4.15702e-05 -0.000106363 -0.000156096 -0.00019632 -0.000230771 -0.000261298 -0.000292405 -0.00033297 -0.000376516);
    }
    glass2
    {
        type            calculated;
        value           nonuniform List<scalar> 2(1.13212e-05 1.29224e-05);
    }
    sun
    {
        type            calculated;
        value           uniform 0;
    }
    heatsource1
    {
        type            calculated;
        value           nonuniform List<scalar> 3(1.98911e-07 1.98984e-07 1.99133e-07);
    }
    heatsource2
    {
        type            calculated;
        value           nonuniform List<scalar> 4(4.97792e-08 4.99623e-08 0 0);
    }
    Table_master
    {
        type            calculated;
        value           nonuniform List<scalar> 9(-1.49941e-07 -1.49898e-07 -1.49856e-07 -1.49818e-07 -1.49783e-07 -1.49747e-07 -1.49708e-07 -1.49663e-07 -1.49586e-07);
    }
    Table_slave
    {
        type            calculated;
        value           nonuniform List<scalar> 9(1.49122e-07 1.49138e-07 1.4915e-07 1.49166e-07 1.49185e-07 1.49207e-07 1.49234e-07 1.4927e-07 1.49296e-07);
    }
    inlet
    {
        type            calculated;
        value           uniform -0.000480881;
    }
    outlet
    {
        type            calculated;
        value           nonuniform List<scalar> 2(-0.00472231 0.00483529);
    }
}


// ************************************************************************* //
