// -*- C++ -*-
// File generated by PyFoam - sorry for the ugliness

FoamFile
{
 version 2.0;
 format ascii;
 class volVectorField;
 location "800";
 object U;
}

dimensions [ 0 1 -1 0 0 0 0 ];

internalField nonuniform List<vector> 459
(
  (0.0669365 0.0572937 0)
  (-0.117188 0.00388059 0)
  (-0.10268 0.000369399 0)
  (-0.105256 0.000329427 0)
  (-0.106689 -0.00048041 0)
  (-0.107011 -0.00130828 0)
  (-0.106396 -0.00212611 0)
  (-0.104939 -0.00308897 0)
  (-0.102442 -0.00435592 0)
  (-0.0985067 -0.00608584 0)
  (-0.092398 -0.00846304 0)
  (-0.0827692 -0.0117642 0)
  (-0.0678198 -0.0165629 0)
  (-0.0474613 -0.0239085 0)
  (-0.0286214 -0.0342055 0)
  (-0.0666365 -0.00556948 0)
  (0.0232628 -0.00124521 0)
  (0.012387 -0.000111571 0)
  (0.00361544 -0.000677215 0)
  (0.00415425 -0.000830185 0)
  (0.00639584 -0.000930684 0)
  (0.00833117 -0.00147421 0)
  (0.0103664 -0.00149905 0)
  (0.0122105 -0.00150527 0)
  (0.0136927 -0.00159094 0)
  (0.0148326 -0.00167061 0)
  (0.01572 -0.00160608 0)
  (0.0157078 -0.00110695 0)
  (0.0145231 0.000215747 0)
  (0.0126146 0.00175833 0)
  (0.0108893 0.0026762 0)
  (0.00723 0.00451852 0)
  (-0.022378 0.00791141 0)
  (0.0713647 -0.00434902 0)
  (0.221348 0.122881 0)
  (-0.125332 0.0201867 0)
  (-0.084846 0.00529638 0)
  (-0.089912 0.00369601 0)
  (-0.0922033 0.00170685 0)
  (-0.0931824 0.000191965 0)
  (-0.0934337 -0.000972304 0)
  (-0.0932 -0.00219999 0)
  (-0.0924055 -0.0038702 0)
  (-0.0907716 -0.00630513 0)
  (-0.0878386 -0.00980992 0)
  (-0.0828959 -0.0147465 0)
  (-0.0752203 -0.0217681 0)
  (-0.0650832 -0.0318857 0)
  (-0.054883 -0.0446694 0)
  (-0.0474021 -0.0512367 0)
  (0.0287563 0.0159423 0)
  (-0.0927944 -0.00105323 0)
  (0.00882245 0.00234878 0)
  (-0.01056 0.00306998 0)
  (-0.0147281 0.0014215 0)
  (-0.0154177 -5.75663e-05 0)
  (-0.015329 -0.00122822 0)
  (-0.0147508 -0.00232651 0)
  (-0.0139399 -0.00135862 0)
  (-0.0137253 -0.000308443 0)
  (-0.0141679 0.000780025 0)
  (-0.0151837 0.00204334 0)
  (-0.0167793 0.00345561 0)
  (-0.0182267 0.00494479 0)
  (-0.0194648 0.00614622 0)
  (-0.0193127 0.00548058 0)
  (-0.0160837 0.0021036 0)
  (-0.0120629 0.00479069 0)
  (-0.0332442 0.00789049 0)
  (0.110361 -0.00410234 0)
  (0.34663 0.183669 0)
  (-0.147309 0.0404089 0)
  (-0.0628929 0.0115417 0)
  (-0.0678409 0.00659813 0)
  (-0.070699 0.00296677 0)
  (-0.0719073 0.000561188 0)
  (-0.0729257 -0.00109439 0)
  (-0.0738396 -0.00272938 0)
  (-0.0746229 -0.00489954 0)
  (-0.0750912 -0.00804978 0)
  (-0.0750528 -0.0125511 0)
  (-0.0742765 -0.0187518 0)
  (-0.0726671 -0.0270209 0)
  (-0.0704749 -0.0375059 0)
  (-0.068416 -0.0488397 0)
  (-0.0690968 -0.057143 0)
  (-0.0801177 -0.0603121 0)
  (-0.103139 0.0276196 0)
  (-0.0260904 0.00883932 0)
  (-0.0375023 0.00477305 0)
  (-0.0388665 0.0017338 0)
  (-0.0386458 -0.00093503 0)
  (-0.0380216 -0.0035725 0)
  (-0.0368656 -0.00593831 0)
  (-0.0406466 -0.00608248 0)
  (-0.0425383 -0.0055654 0)
  (-0.0435519 -0.00518306 0)
  (-0.043676 -0.00490777 0)
  (-0.0429696 -0.00480417 0)
  (-0.0418713 -0.00512151 0)
  (-0.0403316 -0.00636969 0)
  (-0.0364026 -0.0098675 0)
  (-0.0271562 -0.0134512 0)
  (-0.0170999 -0.00990359 0)
  (-0.0329444 -0.00402299 0)
  (0.130596 -0.00375916 0)
  (0.445525 0.230135 0)
  (-0.166989 0.0598285 0)
  (-0.0404847 0.0156765 0)
  (-0.0381302 0.0075958 0)
  (-0.0401839 0.00405811 0)
  (-0.0415036 0.00220662 0)
  (-0.0436595 0.000892757 0)
  (-0.0467072 -0.000733289 0)
  (-0.0498027 -0.00307028 0)
  (-0.052604 -0.00639103 0)
  (-0.0552823 -0.0110203 0)
  (-0.0580522 -0.0172389 0)
  (-0.0613282 -0.0251114 0)
  (-0.0657353 -0.034292 0)
  (-0.072593 -0.0433668 0)
  (-0.0855857 -0.0497855 0)
  (-0.106162 -0.0487115 0)
  (-0.110323 -0.0298333 0)
  (-0.0903202 0.0168772 0)
  (-0.0657348 0.00620084 0)
  (-0.0656273 0.00409363 0)
  (-0.0653386 0.00174216 0)
  (-0.0664147 -0.000892009 0)
  (-0.067964 -0.00348846 0)
  (-0.0683162 -0.0038433 0)
  (-0.0666156 -0.00359159 0)
  (-0.0646752 -0.004059 0)
  (-0.0623788 -0.00460845 0)
  (-0.0596721 -0.0053303 0)
  (-0.0563655 -0.00632728 0)
  (-0.0518139 -0.00776937 0)
  (-0.0448455 -0.0100716 0)
  (-0.0354874 -0.0140248 0)
  (-0.0295484 -0.0202727 0)
  (-0.0277592 -0.0232651 0)
  (-0.0416134 -0.0228735 0)
  (0.150519 0.000282305 0)
  (0.522505 0.264215 0)
  (-0.182305 0.0756327 0)
  (-0.019495 0.0146223 0)
  (-0.0017237 0.00304596 0)
  (-0.000625186 0.0031945 0)
  (-0.00162298 0.00446948 0)
  (-0.00502443 0.00490791 0)
  (-0.0102944 0.00404749 0)
  (-0.016402 0.00169214 0)
  (-0.0227043 -0.00206213 0)
  (-0.0282234 -0.0068358 0)
  (-0.0335123 -0.0126013 0)
  (-0.0391946 -0.019308 0)
  (-0.0458883 -0.0265941 0)
  (-0.0542171 -0.0332449 0)
  (-0.0653568 -0.0369522 0)
  (-0.0774519 -0.0331643 0)
  (-0.080703 -0.0175963 0)
  (-0.0744762 -0.00361487 0)
  (-0.0663444 -0.000325953 0)
  (-0.0623436 0.0015384 0)
  (-0.0592901 0.00120573 0)
  (-0.0574646 -4.01471e-05 0)
  (-0.0566644 -0.00122 0)
  (-0.0558466 -0.00147993 0)
  (-0.0545642 -0.00192996 0)
  (-0.0531494 -0.00237952 0)
  (-0.0516582 -0.00286655 0)
  (-0.050074 -0.00350467 0)
  (-0.0483647 -0.00443075 0)
  (-0.0463745 -0.00585988 0)
  (-0.0438774 -0.00830539 0)
  (-0.0413713 -0.0127321 0)
  (-0.0411317 -0.0193498 0)
  (-0.045979 -0.0234864 0)
  (-0.0551299 -0.0220755 0)
  (-0.0530948 -0.00791093 0)
  (-0.05571 -0.00845582 0)
  (-0.0401379 -0.0179046 0)
  (0.0113133 -0.0338541 0)
  (0.570473 0.291431 0)
  (-0.197344 0.0772982 0)
  (0.00564776 -0.0103803 0)
  (0.0391237 -0.0117016 0)
  (0.0432747 0.000620951 0)
  (0.0412806 0.00719429 0)
  (0.0368442 0.0100092 0)
  (0.0304356 0.0107108 0)
  (0.0227426 0.00927692 0)
  (0.0145947 0.00584244 0)
  (0.00593715 0.000736244 0)
  (-0.0029456 -0.00571947 0)
  (-0.0107781 -0.0122121 0)
  (-0.0191338 -0.0186758 0)
  (-0.0284286 -0.0244859 0)
  (-0.0388134 -0.0277793 0)
  (-0.0483395 -0.0253289 0)
  (-0.0528828 -0.0160807 0)
  (-0.0517625 -0.00798652 0)
  (-0.048438 -0.00428902 0)
  (-0.0455875 -0.0021962 0)
  (-0.0431312 -0.00169562 0)
  (-0.0413786 -0.00216289 0)
  (-0.0402554 -0.00287442 0)
  (-0.039351 -0.00328829 0)
  (-0.0383904 -0.0037217 0)
  (-0.0373858 -0.00421426 0)
  (-0.0363576 -0.00477149 0)
  (-0.0353143 -0.0054574 0)
  (-0.0342816 -0.0063625 0)
  (-0.0332893 -0.00762133 0)
  (-0.0324503 -0.00951631 0)
  (-0.0322695 -0.0124621 0)
  (-0.0337772 -0.0162276 0)
  (-0.0374808 -0.018685 0)
  (-0.0413788 -0.0176346 0)
  (-0.0414536 -0.0110326 0)
  (-0.0397642 -0.0110114 0)
  (-0.0357481 -0.0193787 0)
  (0.0338969 -0.046771 0)
  (0.597138 0.317205 0)
  (-0.197029 0.0335277 0)
  (0.0432539 -0.0868797 0)
  (0.0891834 -0.0416614 0)
  (0.087558 -0.00515926 0)
  (0.079261 0.00963002 0)
  (0.0723452 0.015424 0)
  (0.0654934 0.017842 0)
  (0.0575861 0.0173195 0)
  (0.0492602 0.0143071 0)
  (0.0409611 0.00966664 0)
  (0.0323912 0.00389654 0)
  (0.0226391 -0.00266207 0)
  (0.0129932 -0.00903582 0)
  (0.0031254 -0.0146355 0)
  (-0.00720475 -0.0182876 0)
  (-0.0160371 -0.0179556 0)
  (-0.0215746 -0.0137199 0)
  (-0.0233212 -0.0091409 0)
  (-0.0229227 -0.00618468 0)
  (-0.0218946 -0.00432557 0)
  (-0.0206935 -0.0035525 0)
  (-0.0196947 -0.0035507 0)
  (-0.0189931 -0.00389999 0)
  (-0.0184556 -0.00428821 0)
  (-0.017943 -0.00473558 0)
  (-0.0174243 -0.00524752 0)
  (-0.0168986 -0.0058243 0)
  (-0.0163784 -0.00650771 0)
  (-0.0158936 -0.0073652 0)
  (-0.0154998 -0.00848949 0)
  (-0.0153337 -0.0100245 0)
  (-0.0157243 -0.0120918 0)
  (-0.0171203 -0.0144005 0)
  (-0.0194413 -0.0158913 0)
  (-0.0212454 -0.015575 0)
  (-0.0210217 -0.0143378 0)
  (-0.0220278 -0.017555 0)
  (-0.0317814 -0.0295782 0)
  (0.0573862 -0.0599773 0)
  (0.687079 0.312698 0)
  (0.0323798 -0.00193147 0)
  (0.0966632 -0.120403 0)
  (0.161446 -0.0537008 0)
  (0.136981 -0.00420886 0)
  (0.106365 0.0147575 0)
  (0.0933206 0.0222818 0)
  (0.0864345 0.0255202 0)
  (0.0796352 0.0251777 0)
  (0.0729109 0.0220827 0)
  (0.0666081 0.0174555 0)
  (0.060341 0.0121558 0)
  (0.0535231 0.00659645 0)
  (0.0453982 0.000904935 0)
  (0.0362146 -0.00444306 0)
  (0.0270816 -0.00844697 0)
  (0.0186948 -0.0101413 0)
  (0.0123848 -0.00934402 0)
  (0.0087488 -0.00748504 0)
  (0.00707092 -0.00583772 0)
  (0.00642122 -0.00463402 0)
  (0.00629054 -0.00400494 0)
  (0.00630085 -0.00385912 0)
  (0.00626492 -0.00401042 0)
  (0.00616819 -0.0043029 0)
  (0.00605497 -0.00469689 0)
  (0.00594603 -0.00516794 0)
  (0.00583098 -0.00568986 0)
  (0.00568825 -0.00628919 0)
  (0.00549568 -0.00701657 0)
  (0.0052175 -0.00793125 0)
  (0.00477223 -0.00909816 0)
  (0.00399376 -0.0105328 0)
  (0.00269203 -0.0120227 0)
  (0.000963657 -0.0129793 0)
  (-0.000445611 -0.0128515 0)
  (-0.00103727 -0.0126016 0)
  (-0.00454377 -0.016275 0)
  (-0.0231442 -0.0301896 0)
  (0.088416 -0.0615689 0)
  (0.806332 0.306732 0)
  (0.349118 0.140379 0)
  (0.0529461 -0.00532872 0)
  (0.198546 0.0325472 0)
  (0.138181 0.0439512 0)
  (0.0908389 0.0413934 0)
  (0.0828413 0.0385149 0)
  (0.0834987 0.0362396 0)
  (0.0824464 0.0330204 0)
  (0.0805176 0.0286696 0)
  (0.0785105 0.0237236 0)
  (0.0761679 0.0186809 0)
  (0.0731541 0.0138437 0)
  (0.0692235 0.00932812 0)
  (0.0642637 0.00518998 0)
  (0.0580243 0.00157628 0)
  (0.0514893 -0.000872359 0)
  (0.0458772 -0.00186497 0)
  (0.0417042 -0.00189147 0)
  (0.0388575 -0.0015337 0)
  (0.0369255 -0.00110325 0)
  (0.0355732 -0.000801235 0)
  (0.0345216 -0.000683615 0)
  (0.0335841 -0.000728492 0)
  (0.0326786 -0.000896319 0)
  (0.0317875 -0.00117085 0)
  (0.0309138 -0.00153542 0)
  (0.0300207 -0.00194846 0)
  (0.0290689 -0.00243544 0)
  (0.0280441 -0.00303947 0)
  (0.0269349 -0.00380436 0)
  (0.0257121 -0.00476447 0)
  (0.0243184 -0.00590396 0)
  (0.0226959 -0.00706489 0)
  (0.0208958 -0.00787281 0)
  (0.0191768 -0.00790382 0)
  (0.0172498 -0.0073842 0)
  (0.011395 -0.00866387 0)
  (-0.0105081 -0.0192881 0)
  (0.0759834 -0.0581166 0)
  (-1.13751 -0.0200855 0)
  (0.0608189 0.0432937 0)
  (0.00672153 0.0137896 0)
  (0.0134849 0.0189566 0)
  (0.0427048 0.0269732 0)
  (0.0614208 0.0306177 0)
  (0.0704368 0.0307487 0)
  (0.0756366 0.0289434 0)
  (0.079254 0.0262772 0)
  (0.0815824 0.0233854 0)
  (0.0826758 0.0205972 0)
  (0.0826344 0.0180203 0)
  (0.0815511 0.0156778 0)
  (0.0794728 0.0135755 0)
  (0.0766159 0.0117911 0)
  (0.0733034 0.0103721 0)
  (0.0701286 0.00934388 0)
  (0.0673253 0.00859035 0)
  (0.064918 0.00797515 0)
  (0.0628531 0.00732673 0)
  (0.0610056 0.00666538 0)
  (0.0592764 0.00597248 0)
  (0.0575991 0.00522208 0)
  (0.0559345 0.00437498 0)
  (0.0542697 0.00340032 0)
  (0.052557 0.00236656 0)
  (0.0507598 0.00119999 0)
  (0.0488752 -0.000166041 0)
  (0.0468931 -0.0017887 0)
  (0.0447892 -0.00371095 0)
  (0.042534 -0.00592228 0)
  (0.0401199 -0.00827884 0)
  (0.0376306 -0.0104014 0)
  (0.0353344 -0.0116181 0)
  (0.0332823 -0.0111166 0)
  (0.0289088 -0.00916103 0)
  (0.0109807 -0.0142587 0)
  (0.0499763 -0.075677 0)
  (-0.536843 0.0689594 0)
  (0.206704 -0.00892061 0)
  (0.0630665 -0.0486896 0)
  (0.028787 -0.0578426 0)
  (0.0412049 -0.0511256 0)
  (0.0547182 -0.045703 0)
  (0.0640187 -0.0457241 0)
  (0.0720287 -0.0493961 0)
  (0.0790848 -0.0550696 0)
  (0.084681 -0.0614903 0)
  (0.0886257 -0.0678076 0)
  (0.0910218 -0.0735154 0)
  (0.0920717 -0.0783297 0)
  (0.0919959 -0.0821204 0)
  (0.091052 -0.0848467 0)
  (0.08951 -0.086627 0)
  (0.0876491 -0.087688 0)
  (0.0856907 -0.0882976 0)
  (0.0837475 -0.0886362 0)
  (0.0818183 -0.0887793 0)
  (0.0798808 -0.0888628 0)
  (0.0779103 -0.0889401 0)
  (0.0758731 -0.0890346 0)
  (0.0737194 -0.0891642 0)
  (0.0714027 -0.0893034 0)
  (0.0689421 -0.0890584 0)
  (0.0663646 -0.0886927 0)
  (0.0636675 -0.0883315 0)
  (0.0607982 -0.0880131 0)
  (0.0576967 -0.0877371 0)
  (0.054332 -0.0874962 0)
  (0.0507528 -0.0872979 0)
  (0.0471967 -0.0871835 0)
  (0.044318 -0.0872465 0)
  (0.0434013 -0.0876394 0)
  (0.0453873 -0.0891432 0)
  (0.0526172 -0.100455 0)
  (0.0709616 -0.187327 0)
  (0.519197 0.213085 0)
  (0.253304 -0.20406 0)
  (-0.218285 0.170688 0)
  (0.139152 0.112063 0)
  (0.0979478 0.140261 0)
  (0.0148469 0.23715 0)
  (0.0135469 0.27492 0)
  (0.0311718 0.28056 0)
  (0.044137 0.282224 0)
  (0.0553027 0.28443 0)
  (0.0658048 0.287353 0)
  (0.0751007 0.290539 0)
  (0.082766 0.293557 0)
  (0.0887663 0.296102 0)
  (0.0932558 0.297992 0)
  (0.0964357 0.299155 0)
  (0.0985194 0.299607 0)
  (0.0997156 0.299501 0)
  (0.100212 0.299032 0)
  (0.100162 0.298433 0)
  (0.0996676 0.297861 0)
  (0.0988064 0.297351 0)
  (0.0976335 0.296997 0)
  (0.096172 0.296809 0)
  (0.0944321 0.29677 0)
  (0.0924147 0.296874 0)
  (0.0901051 0.297107 0)
  (0.0874717 0.296817 0)
  (0.0845176 0.296418 0)
  (0.0811847 0.296106 0)
  (0.0773918 0.295923 0)
  (0.0730361 0.295862 0)
  (0.0679822 0.295938 0)
  (0.0620597 0.296261 0)
  (0.0550764 0.297117 0)
  (0.0468274 0.299035 0)
  (0.0368833 0.302679 0)
  (0.0241732 0.309224 0)
  (0.0159999 0.333852 0)
  (0.0217274 0.499919 0)
)
;

boundaryField
{
  floor
  {
    type noSlip;
  }
  ceiling
  {
    type noSlip;
  }
  sWall
  {
    type noSlip;
  }
  nWall
  {
    type noSlip;
  }
  sideWalls
  {
    type empty;
  }
  glass1
  {
    type noSlip;
  }
  glass2
  {
    type noSlip;
  }
  sun
  {
    type noSlip;
  }
  heatsource1
  {
    type noSlip;
  }
  heatsource2
  {
    type noSlip;
  }
  Table_master
  {
    type noSlip;
  }
  Table_slave
  {
    type noSlip;
  }
  inlet
  {
    type fixedValue;
    value uniform (0.0707107 -0.0707107 0);
  }
  outlet
  {
    type zeroGradient;
  }
} 	// ************************************************************************* //

