// -*- C++ -*-
// File generated by PyFoam - sorry for the ugliness

FoamFile
{
 version 2.0;
 format ascii;
 class volVectorField;
 location "700";
 object U;
}

dimensions [ 0 1 -1 0 0 0 0 ];

internalField nonuniform List<vector> 459
(
  (0.0518711 0.0818946 0)
  (-0.159371 0.020056 0)
  (-0.17639 0.0171643 0)
  (-0.207115 0.0134951 0)
  (-0.232508 0.00920143 0)
  (-0.252016 0.00461159 0)
  (-0.264777 -0.00036836 0)
  (-0.269582 -0.00590674 0)
  (-0.264704 -0.0121602 0)
  (-0.249478 -0.0193117 0)
  (-0.223463 -0.0268327 0)
  (-0.187143 -0.0342697 0)
  (-0.14237 -0.0420734 0)
  (-0.0969055 -0.0522311 0)
  (-0.0748851 -0.0652704 0)
  (0.0228077 0.0152142 0)
  (-0.00412476 -0.0234655 0)
  (0.0222368 -0.0239692 0)
  (0.0419265 -0.0167263 0)
  (0.0563752 -0.0108563 0)
  (0.0645647 -0.00693837 0)
  (0.0682047 -0.00455635 0)
  (0.0695198 -0.00332259 0)
  (0.0700146 -0.00268812 0)
  (0.0702576 -0.00231597 0)
  (0.0703191 -0.00205995 0)
  (0.0701556 -0.00182989 0)
  (0.0696735 -0.00152742 0)
  (0.0686079 -0.000971699 0)
  (0.06631 0.000221176 0)
  (0.0615184 0.00257723 0)
  (0.0528685 0.00513406 0)
  (0.0443946 0.00693037 0)
  (-0.0127844 0.0218116 0)
  (0.241981 0.170415 0)
  (-0.158675 0.0552336 0)
  (-0.145003 0.0504939 0)
  (-0.178138 0.0432551 0)
  (-0.203372 0.0349972 0)
  (-0.222801 0.025836 0)
  (-0.23581 0.0153118 0)
  (-0.241258 0.00291854 0)
  (-0.237288 -0.0116435 0)
  (-0.223666 -0.0274057 0)
  (-0.200466 -0.0424685 0)
  (-0.169162 -0.0548424 0)
  (-0.132929 -0.0636782 0)
  (-0.0980226 -0.0694812 0)
  (-0.0731463 -0.0685061 0)
  (-0.0503814 -0.0423577 0)
  (-0.0151012 -0.0132235 0)
  (0.095527 -0.00465033 0)
  (0.0472234 -0.0266721 0)
  (0.0485058 -0.0280078 0)
  (0.0596487 -0.0201295 0)
  (0.0673571 -0.0118419 0)
  (0.0709237 -0.00523993 0)
  (0.0716867 -0.00126946 0)
  (0.0712711 0.000690588 0)
  (0.0709684 0.00161834 0)
  (0.070926 0.00213649 0)
  (0.0709457 0.00249945 0)
  (0.0709153 0.00284022 0)
  (0.0708133 0.0033528 0)
  (0.0705624 0.004409 0)
  (0.0695785 0.00694234 0)
  (0.0653021 0.0137058 0)
  (0.0547173 0.0193677 0)
  (0.0489875 0.022429 0)
  (-0.0512172 0.0472567 0)
  (0.415049 0.256811 0)
  (-0.188918 0.091621 0)
  (-0.109478 0.0831683 0)
  (-0.144471 0.0685492 0)
  (-0.166714 0.0542161 0)
  (-0.184447 0.0387579 0)
  (-0.196943 0.0211392 0)
  (-0.20279 0.000627072 0)
  (-0.19939 -0.022796 0)
  (-0.186559 -0.0478828 0)
  (-0.164992 -0.0712706 0)
  (-0.136877 -0.0894521 0)
  (-0.105666 -0.10023 0)
  (-0.0756126 -0.102373 0)
  (-0.0500764 -0.0922007 0)
  (-0.0272603 -0.0634939 0)
  (0.000182448 -0.0280376 0)
  (0.104119 -0.0637644 0)
  (0.0583827 -0.0520996 0)
  (0.0569414 -0.0386988 0)
  (0.0634812 -0.0269513 0)
  (0.0674458 -0.0167127 0)
  (0.0685396 -0.00784105 0)
  (0.0666125 -0.00661199 0)
  (0.0643721 -0.0053237 0)
  (0.0632638 -0.00471847 0)
  (0.0629962 -0.00441501 0)
  (0.0630697 -0.00422706 0)
  (0.0633382 -0.00403166 0)
  (0.0639366 -0.003679 0)
  (0.0654074 -0.00281963 0)
  (0.0691456 0.000424149 0)
  (0.0675592 0.0186597 0)
  (0.0536897 0.0316882 0)
  (0.0557997 0.0395989 0)
  (-0.0849031 0.0738407 0)
  (0.567719 0.327256 0)
  (-0.235964 0.126168 0)
  (-0.0699253 0.111265 0)
  (-0.10822 0.0903891 0)
  (-0.124501 0.0724583 0)
  (-0.138513 0.0531044 0)
  (-0.149313 0.0303681 0)
  (-0.154962 0.00287161 0)
  (-0.151438 -0.0295292 0)
  (-0.13881 -0.0639286 0)
  (-0.119055 -0.0948861 0)
  (-0.0948921 -0.117687 0)
  (-0.0694728 -0.129637 0)
  (-0.0453898 -0.129654 0)
  (-0.0238836 -0.116074 0)
  (-0.00310076 -0.0884878 0)
  (0.0235965 -0.0535985 0)
  (0.0625009 -0.00561843 0)
  (0.0758296 -0.0454556 0)
  (0.0627623 -0.0462998 0)
  (0.0570249 -0.0355847 0)
  (0.0574175 -0.0260152 0)
  (0.0593121 -0.0173563 0)
  (0.0630615 -0.00784924 0)
  (0.0689343 -0.00569097 0)
  (0.0753579 -0.00546251 0)
  (0.0810061 -0.00517682 0)
  (0.0856262 -0.00460927 0)
  (0.0887999 -0.00358378 0)
  (0.0896629 -0.00201878 0)
  (0.0870051 0.000209288 0)
  (0.0798939 0.00330848 0)
  (0.0656888 0.00787784 0)
  (0.0536098 0.0295115 0)
  (0.0415655 0.0474463 0)
  (0.0596947 0.0607691 0)
  (-0.122834 0.0973871 0)
  (0.696868 0.383211 0)
  (-0.286845 0.157124 0)
  (-0.0285627 0.128145 0)
  (-0.0701832 0.104236 0)
  (-0.0787253 0.0848503 0)
  (-0.0871202 0.0633903 0)
  (-0.0946391 0.0371555 0)
  (-0.0988072 0.00398873 0)
  (-0.092869 -0.0364952 0)
  (-0.0795967 -0.0791294 0)
  (-0.0625859 -0.115433 0)
  (-0.0441314 -0.140366 0)
  (-0.0264363 -0.151717 0)
  (-0.0107998 -0.149581 0)
  (0.00274719 -0.133542 0)
  (0.0150424 -0.106766 0)
  (0.0289405 -0.0765138 0)
  (0.0451533 -0.0542013 0)
  (0.0524571 -0.0538753 0)
  (0.0487499 -0.0458382 0)
  (0.0429418 -0.0348182 0)
  (0.0406794 -0.0260537 0)
  (0.041281 -0.0193088 0)
  (0.044423 -0.013605 0)
  (0.049541 -0.0102936 0)
  (0.0555993 -0.00870833 0)
  (0.0612723 -0.00753545 0)
  (0.0662941 -0.00582029 0)
  (0.0703037 -0.00291523 0)
  (0.0727892 0.00151534 0)
  (0.072294 0.00715454 0)
  (0.0686194 0.0139494 0)
  (0.0614161 0.0226325 0)
  (0.053047 0.0390453 0)
  (0.0411865 0.0590922 0)
  (0.0668663 0.0808234 0)
  (-0.0311407 0.112266 0)
  (0.0403486 0.0219669 0)
  (-0.0724531 -0.0412247 0)
  (-0.276549 -0.0635453 0)
  (0.787799 0.431555 0)
  (-0.332329 0.181016 0)
  (0.00469964 0.126408 0)
  (-0.0300443 0.110035 0)
  (-0.0309764 0.0917208 0)
  (-0.0334633 0.069352 0)
  (-0.0368786 0.0417967 0)
  (-0.0380951 0.00504723 0)
  (-0.023602 -0.0447492 0)
  (-0.00987079 -0.0935564 0)
  (0.00225166 -0.131768 0)
  (0.0125462 -0.155598 0)
  (0.0204269 -0.164173 0)
  (0.0256888 -0.158979 0)
  (0.0285956 -0.141433 0)
  (0.0303281 -0.114796 0)
  (0.0322651 -0.0847547 0)
  (0.0345832 -0.059525 0)
  (0.0335285 -0.0462984 0)
  (0.0277381 -0.037895 0)
  (0.0216725 -0.0302801 0)
  (0.0190432 -0.0245979 0)
  (0.0194722 -0.0205889 0)
  (0.0222882 -0.0173758 0)
  (0.0267801 -0.0152739 0)
  (0.0320027 -0.014288 0)
  (0.0372503 -0.0132752 0)
  (0.0423451 -0.0112825 0)
  (0.0471101 -0.00752198 0)
  (0.0512293 -0.00131018 0)
  (0.0540061 0.00697944 0)
  (0.0543321 0.0165003 0)
  (0.0530243 0.0275702 0)
  (0.0520609 0.0426684 0)
  (0.0486803 0.0620266 0)
  (0.074915 0.0871344 0)
  (0.0469111 0.10761 0)
  (0.0920765 0.0705024 0)
  (0.118318 0.0444028 0)
  (-0.14262 -0.0162093 0)
  (0.822043 0.47516 0)
  (-0.354772 0.169203 0)
  (0.0264606 0.0789715 0)
  (0.0232021 0.102429 0)
  (0.0248427 0.0975704 0)
  (0.025549 0.0728732 0)
  (0.0269131 0.0402298 0)
  (0.0376331 -0.00541139 0)
  (0.0567528 -0.0604059 0)
  (0.0671232 -0.106215 0)
  (0.0708393 -0.139352 0)
  (0.0704991 -0.1594 0)
  (0.067117 -0.165155 0)
  (0.0607308 -0.157364 0)
  (0.051875 -0.137957 0)
  (0.0415154 -0.110519 0)
  (0.0310253 -0.0802183 0)
  (0.0215292 -0.0540572 0)
  (0.012549 -0.038164 0)
  (0.00441675 -0.0306443 0)
  (-0.0013201 -0.0262136 0)
  (-0.0036837 -0.0236675 0)
  (-0.00383745 -0.0219971 0)
  (-0.00235118 -0.0206485 0)
  (0.00039218 -0.0197153 0)
  (0.00379595 -0.0191649 0)
  (0.00746433 -0.0183279 0)
  (0.0114173 -0.0164814 0)
  (0.01578 -0.012803 0)
  (0.0206905 -0.00627849 0)
  (0.0278384 0.0037087 0)
  (0.032806 0.0145838 0)
  (0.0372609 0.0259557 0)
  (0.0435771 0.0392992 0)
  (0.049889 0.0549994 0)
  (0.0748302 0.0757199 0)
  (0.0855514 0.0848982 0)
  (0.120436 0.0564446 0)
  (0.162272 0.0427231 0)
  (-0.0382052 0.0924052 0)
  (0.921515 0.486281 0)
  (-0.107981 0.15066 0)
  (0.0941551 0.00703223 0)
  (0.141838 0.0321638 0)
  (0.12907 0.0531319 0)
  (0.118859 0.0381811 0)
  (0.119776 0.00277138 0)
  (0.138336 -0.0399076 0)
  (0.151173 -0.0777901 0)
  (0.149979 -0.110331 0)
  (0.139677 -0.135417 0)
  (0.125046 -0.151023 0)
  (0.108232 -0.153547 0)
  (0.0887843 -0.143183 0)
  (0.067104 -0.122037 0)
  (0.0439294 -0.0940077 0)
  (0.0213897 -0.0639798 0)
  (0.00230588 -0.0390647 0)
  (-0.011216 -0.0267928 0)
  (-0.0189143 -0.0237579 0)
  (-0.0239076 -0.0227251 0)
  (-0.0269585 -0.0222702 0)
  (-0.0287477 -0.0219767 0)
  (-0.0295781 -0.0217615 0)
  (-0.0296923 -0.0216508 0)
  (-0.0293696 -0.0215429 0)
  (-0.0287683 -0.0211358 0)
  (-0.0278322 -0.0200287 0)
  (-0.0263133 -0.0177462 0)
  (-0.023676 -0.0137351 0)
  (-0.0183244 -0.00730068 0)
  (-0.00674297 0.00198946 0)
  (0.00168157 0.0116735 0)
  (0.0129037 0.0200809 0)
  (0.0246722 0.0275686 0)
  (0.0474653 0.0366574 0)
  (0.0679693 0.0300136 0)
  (0.0895482 -0.00400615 0)
  (0.15109 0.03686 0)
  (-0.427018 0.20874 0)
  (1.05354 0.445132 0)
  (0.510099 0.296963 0)
  (0.515789 0.222018 0)
  (0.498251 0.179042 0)
  (0.428884 0.148834 0)
  (0.367117 0.107826 0)
  (0.332803 0.0604956 0)
  (0.307527 0.0115558 0)
  (0.272931 -0.035498 0)
  (0.234054 -0.0748715 0)
  (0.195722 -0.104556 0)
  (0.161081 -0.123453 0)
  (0.130217 -0.126691 0)
  (0.0985901 -0.115934 0)
  (0.0653517 -0.0941899 0)
  (0.0303719 -0.0664218 0)
  (-0.00206137 -0.0376505 0)
  (-0.0234822 -0.020973 0)
  (-0.0340962 -0.0176948 0)
  (-0.0411882 -0.0179437 0)
  (-0.0467132 -0.0185734 0)
  (-0.0513229 -0.0191148 0)
  (-0.0553833 -0.0195262 0)
  (-0.0590912 -0.0198357 0)
  (-0.0626335 -0.0200419 0)
  (-0.0662226 -0.0200328 0)
  (-0.0700612 -0.0195522 0)
  (-0.0743449 -0.0182102 0)
  (-0.0793295 -0.015486 0)
  (-0.0853939 -0.0107526 0)
  (-0.0929503 -0.00340296 0)
  (-0.101683 0.00671424 0)
  (-0.110497 0.0187702 0)
  (-0.12559 0.0332188 0)
  (-0.150196 0.0504065 0)
  (-0.186376 0.0689702 0)
  (-0.238676 0.084093 0)
  (-0.299533 0.0932136 0)
  (-0.369968 0.0970056 0)
  (-0.634186 0.0959295 0)
  (-0.241068 0.0793479 0)
  (0.168499 0.143494 0)
  (0.263296 0.134562 0)
  (0.260139 0.102665 0)
  (0.254574 0.0610553 0)
  (0.244715 0.0183047 0)
  (0.227956 -0.0183467 0)
  (0.20073 -0.046823 0)
  (0.169417 -0.0707237 0)
  (0.138389 -0.0897017 0)
  (0.108814 -0.0916331 0)
  (0.0738194 -0.0797211 0)
  (0.0351404 -0.0568377 0)
  (-0.00849269 -0.0286345 0)
  (-0.03591 -0.0119349 0)
  (-0.0481877 -0.00891827 0)
  (-0.0557582 -0.0101974 0)
  (-0.0620971 -0.0118083 0)
  (-0.0680962 -0.0129565 0)
  (-0.0740235 -0.0136933 0)
  (-0.0799925 -0.0141123 0)
  (-0.086077 -0.0142533 0)
  (-0.0923518 -0.0140828 0)
  (-0.0988767 -0.0134685 0)
  (-0.105654 -0.0121696 0)
  (-0.11259 -0.00985366 0)
  (-0.119473 -0.00613439 0)
  (-0.125939 -0.000628545 0)
  (-0.131316 0.00699087 0)
  (-0.134657 0.0171427 0)
  (-0.137026 0.0307825 0)
  (-0.138998 0.0482328 0)
  (-0.141513 0.0687774 0)
  (-0.14511 0.088581 0)
  (-0.146806 0.0966883 0)
  (-0.128849 0.0710705 0)
  (-0.081119 -0.0282924 0)
  (-0.285668 -0.210765 0)
  (-0.108437 0.239375 0)
  (0.0846921 0.158824 0)
  (0.091363 0.105285 0)
  (0.112356 0.0827364 0)
  (0.133269 0.0575456 0)
  (0.142328 0.0302715 0)
  (0.139746 0.00936127 0)
  (0.127964 -0.0112199 0)
  (0.109489 -0.0379746 0)
  (0.081183 -0.0650539 0)
  (0.0502803 -0.059391 0)
  (0.0124171 -0.0386421 0)
  (-0.0330304 -0.00336505 0)
  (-0.0554201 0.00697121 0)
  (-0.0640901 0.00649777 0)
  (-0.0681991 0.00283054 0)
  (-0.072367 -0.000768415 0)
  (-0.0771823 -0.00332174 0)
  (-0.0825557 -0.0050552 0)
  (-0.0882968 -0.00625024 0)
  (-0.0942648 -0.00707933 0)
  (-0.100358 -0.00762991 0)
  (-0.106484 -0.00792056 0)
  (-0.112526 -0.0079003 0)
  (-0.118298 -0.00744206 0)
  (-0.123511 -0.00633589 0)
  (-0.127761 -0.00427669 0)
  (-0.130481 -0.000831818 0)
  (-0.130893 0.00458444 0)
  (-0.128039 0.0126818 0)
  (-0.1205 0.0242741 0)
  (-0.107135 0.0401049 0)
  (-0.0879526 0.0598764 0)
  (-0.0642505 0.0793861 0)
  (-0.0391652 0.0905743 0)
  (0.00267315 0.072843 0)
  (0.146454 -0.00134551 0)
  (-0.210438 -0.121448 0)
  (-0.113275 -0.348063 0)
  (-0.428471 -0.103583 0)
  (-0.312723 0.13064 0)
  (-0.177726 0.0345164 0)
  (-0.102778 0.00885208 0)
  (-0.0317789 0.00982024 0)
  (0.0320564 -0.00754268 0)
  (0.0605599 -0.0319625 0)
  (0.0748357 -0.057057 0)
  (0.0742317 -0.0777235 0)
  (0.0586624 -0.100808 0)
  (0.00376764 -0.107361 0)
  (-0.0624986 -0.0457322 0)
  (-0.078487 -0.0258584 0)
  (-0.084318 -0.0196555 0)
  (-0.0816177 -0.0172654 0)
  (-0.0794716 -0.0160898 0)
  (-0.0789052 -0.0146181 0)
  (-0.0802769 -0.0126333 0)
  (-0.0831637 -0.0106743 0)
  (-0.0870006 -0.00883723 0)
  (-0.0914277 -0.00715654 0)
  (-0.0962079 -0.00562746 0)
  (-0.101172 -0.00422169 0)
  (-0.106174 -0.00289376 0)
  (-0.111042 -0.0015813 0)
  (-0.115537 -0.000203559 0)
  (-0.119312 0.00134066 0)
  (-0.121871 0.00318015 0)
  (-0.122497 0.00549418 0)
  (-0.120011 0.00861787 0)
  (-0.112434 0.0131226 0)
  (-0.0972305 0.0196944 0)
  (-0.0724932 0.029213 0)
  (-0.0388984 0.0422797 0)
  (0.0135157 0.0591815 0)
  (0.0625587 0.0607653 0)
  (0.108395 0.0428658 0)
  (0.168778 0.0095067 0)
  (-0.209019 -0.0505641 0)
)
;

boundaryField
{
  floor
  {
    type noSlip;
  }
  ceiling
  {
    type noSlip;
  }
  sWall
  {
    type noSlip;
  }
  nWall
  {
    type noSlip;
  }
  sideWalls
  {
    type empty;
  }
  glass1
  {
    type noSlip;
  }
  glass2
  {
    type noSlip;
  }
  sun
  {
    type noSlip;
  }
  heatsource1
  {
    type noSlip;
  }
  heatsource2
  {
    type noSlip;
  }
  Table_master
  {
    type noSlip;
  }
  Table_slave
  {
    type noSlip;
  }
  inlet
  {
    type fixedValue;
    value uniform (0.277164 -0.114805 0);
  }
  outlet
  {
    type zeroGradient;
  }
} 	// ************************************************************************* //

