// -*- C++ -*-
// File generated by PyFoam - sorry for the ugliness

FoamFile
{
 version 2.0;
 format ascii;
 class volScalarField;
 location "900";
 object T;
}

dimensions [ 0 0 0 1 0 0 0 ];

internalField nonuniform List<scalar> 459
(
  307.708
  307.531
  307.503
  307.484
  307.47
  307.46
  307.453
  307.449
  307.447
  307.446
  307.445
  307.444
  307.441
  307.436
  307.428
  306.645
  306.622
  306.592
  306.571
  306.569
  306.579
  306.593
  306.603
  306.61
  306.616
  306.622
  306.623
  306.627
  306.641
  306.674
  306.73
  306.782
  306.872
  306.946
  307.892
  307.728
  307.708
  307.672
  307.628
  307.587
  307.558
  307.539
  307.528
  307.52
  307.514
  307.506
  307.496
  307.481
  307.459
  307.435
  307.328
  306.764
  306.789
  306.789
  306.792
  306.801
  306.81
  306.813
  306.817
  306.823
  306.836
  306.857
  306.887
  306.917
  306.955
  307.006
  307.06
  307.043
  307.037
  307.098
  308.068
  307.925
  307.942
  307.917
  307.85
  307.767
  307.693
  307.641
  307.609
  307.59
  307.578
  307.567
  307.551
  307.528
  307.494
  307.451
  307.41
  307.028
  307.04
  307.053
  307.067
  307.07
  307.055
  306.996
  307.019
  307.046
  307.074
  307.104
  307.136
  307.176
  307.225
  307.289
  307.352
  307.334
  307.29
  307.269
  308.243
  308.119
  308.189
  308.201
  308.145
  308.041
  307.925
  307.813
  307.729
  307.68
  307.654
  307.638
  307.622
  307.597
  307.558
  307.499
  307.418
  307.331
  307.279
  307.358
  307.412
  307.457
  307.488
  307.509
  307.527
  307.528
  307.528
  307.528
  307.527
  307.527
  307.525
  307.522
  307.515
  307.497
  307.49
  307.476
  307.431
  308.43
  308.34
  308.369
  308.391
  308.373
  308.312
  308.211
  308.082
  307.946
  307.82
  307.751
  307.721
  307.703
  307.686
  307.662
  307.63
  307.591
  307.555
  307.532
  307.54
  307.552
  307.565
  307.574
  307.579
  307.58
  307.579
  307.578
  307.577
  307.577
  307.576
  307.575
  307.574
  307.571
  307.565
  307.562
  307.559
  307.563
  307.58
  307.588
  307.594
  308.633
  308.569
  308.558
  308.544
  308.524
  308.493
  308.436
  308.335
  308.19
  308.034
  307.909
  307.825
  307.786
  307.768
  307.751
  307.728
  307.7
  307.674
  307.654
  307.645
  307.641
  307.639
  307.638
  307.635
  307.633
  307.63
  307.627
  307.624
  307.622
  307.62
  307.618
  307.616
  307.613
  307.608
  307.604
  307.6
  307.598
  307.601
  307.605
  307.609
  308.566
  308.423
  308.449
  308.494
  308.523
  308.531
  308.512
  308.45
  308.337
  308.191
  308.051
  307.949
  307.887
  307.852
  307.832
  307.814
  307.793
  307.771
  307.751
  307.736
  307.724
  307.715
  307.707
  307.7
  307.693
  307.687
  307.682
  307.677
  307.672
  307.668
  307.663
  307.659
  307.654
  307.647
  307.639
  307.631
  307.625
  307.622
  307.621
  307.62
  308.442
  308.235
  308.276
  308.443
  308.512
  308.539
  308.531
  308.477
  308.377
  308.248
  308.125
  308.033
  307.974
  307.938
  307.913
  307.894
  307.876
  307.858
  307.84
  307.823
  307.808
  307.794
  307.782
  307.771
  307.761
  307.752
  307.743
  307.734
  307.727
  307.719
  307.712
  307.704
  307.696
  307.686
  307.675
  307.664
  307.652
  307.643
  307.637
  307.628
  308.335
  308.172
  308.167
  308.401
  308.493
  308.525
  308.509
  308.451
  308.358
  308.252
  308.157
  308.087
  308.04
  308.009
  307.987
  307.969
  307.952
  307.935
  307.919
  307.902
  307.886
  307.871
  307.856
  307.842
  307.828
  307.816
  307.804
  307.792
  307.781
  307.77
  307.759
  307.748
  307.736
  307.724
  307.71
  307.695
  307.679
  307.663
  307.65
  307.636
  307.93
  308.344
  308.408
  308.454
  308.446
  308.392
  308.315
  308.237
  308.172
  308.123
  308.089
  308.064
  308.045
  308.029
  308.013
  307.997
  307.981
  307.965
  307.948
  307.932
  307.916
  307.9
  307.884
  307.869
  307.854
  307.84
  307.826
  307.812
  307.798
  307.784
  307.769
  307.754
  307.737
  307.719
  307.7
  307.679
  307.66
  307.644
  308.24
  308.416
  308.341
  308.356
  308.361
  308.331
  308.271
  308.221
  308.18
  308.147
  308.122
  308.101
  308.084
  308.068
  308.052
  308.036
  308.02
  308.004
  307.987
  307.971
  307.954
  307.937
  307.921
  307.904
  307.888
  307.872
  307.856
  307.84
  307.824
  307.807
  307.79
  307.773
  307.754
  307.733
  307.711
  307.687
  307.664
  307.65
  312.538
  312.368
  309.331
  308.647
  308.288
  308.268
  308.277
  308.265
  308.226
  308.196
  308.172
  308.15
  308.131
  308.114
  308.098
  308.083
  308.068
  308.052
  308.037
  308.021
  308.005
  307.989
  307.972
  307.955
  307.938
  307.921
  307.904
  307.887
  307.87
  307.852
  307.834
  307.816
  307.796
  307.776
  307.755
  307.731
  307.705
  307.673
  307.632
  307.569
)
;

boundaryField
{
  floor
  {
    type wallHeatTransfer;
    Tinf uniform 305.2;
    alphaWall uniform 0.24;
    value nonuniform List<scalar> 29
(
  307.073
  306.328
  306.297
  306.228
  306.167
  306.145
  306.148
  306.161
  306.178
  306.193
  306.206
  306.215
  306.218
  306.224
  306.245
  306.29
  306.364
  306.434
  306.561
  306.605
  306.605
  306.807
  306.999
  307.149
  307.073
  306.328
  306.477
  306.729
  307.036
)
;
  }
  ceiling
  {
    type wallHeatTransfer;
    Tinf uniform 303.2;
    alphaWall uniform 0.24;
    value nonuniform List<scalar> 43
(
  311.582
  311.463
  308.994
  308.293
  307.923
  307.896
  307.907
  307.889
  307.846
  307.814
  307.789
  307.77
  307.754
  307.741
  307.73
  307.719
  307.709
  307.697
  307.685
  307.672
  307.658
  307.644
  307.628
  307.613
  307.597
  307.581
  307.565
  307.549
  307.533
  307.516
  307.5
  307.482
  307.464
  307.445
  307.424
  307.401
  307.374
  307.34
  307.294
  307.199
  308.174
  308.042
  308.063
)
;
  }
  sWall
  {
    type wallHeatTransfer;
    Tinf uniform 315.2;
    alphaWall uniform 0.36;
    value uniform 312.928;
  }
  nWall
  {
    type wallHeatTransfer;
    Tinf uniform 307.2;
    alphaWall uniform 0.36;
    value nonuniform List<scalar> 6
(
  307.518
  307.541
  307.558
  307.592
  307.606
  307.524
)
;
  }
  sideWalls
  {
    type empty;
  }
  glass1
  {
    type wallHeatTransfer;
    Tinf uniform 315.2;
    alphaWall uniform 4.3;
    value nonuniform List<scalar> 9
(
  313.102
  312.535
  312.233
  312.094
  312.11
  311.761
  311.35
  311.111
  310.864
)
;
  }
  glass2
  {
    type wallHeatTransfer;
    Tinf uniform 307.2;
    alphaWall uniform 4.3;
    value nonuniform List<scalar> 2
(
  307.35
  307.357
)
;
  }
  sun
  {
    type wallHeatTransfer;
    Tinf uniform 305.2;
    alphaWall uniform 0.24;
    value nonuniform List<scalar> 14
(
  307.397
  307.251
  307.193
  307.158
  307.131
  307.109
  307.092
  307.081
  307.076
  307.075
  307.077
  307.079
  307.08
  307.079
)
;
  }
  heatsource1
  {
    type fixedGradient;
    gradient uniform 0;
  }
  heatsource2
  {
    type fixedGradient;
    gradient uniform 0;
  }
  Table_master
  {
    type zeroGradient;
  }
  Table_slave
  {
    type zeroGradient;
  }
  inlet
  {
    type fixedValue;
    value uniform 299.15;
  }
  outlet
  {
    type zeroGradient;
  }
} 	// ************************************************************************* //

