/*--------------------------------*- C++ -*----------------------------------*\
  =========                 |
  \\      /  F ield         | OpenFOAM: The Open Source CFD Toolbox
   \\    /   O peration     | Website:  https://openfoam.org
    \\  /    A nd           | Version:  6
     \\/     M anipulation  |
\*---------------------------------------------------------------------------*/
FoamFile
{
    version     2.0;
    format      ascii;
    class       volScalarField;
    location    "1800";
    object      epsilon;
}
// * * * * * * * * * * * * * * * * * * * * * * * * * * * * * * * * * * * * * //

dimensions      [0 2 -3 0 0 0 0];

internalField   nonuniform List<scalar> 
459
(
0.000530797
0.00070621
0.000765894
0.000889268
0.00101682
0.00115155
0.00130333
0.00143365
0.00151353
0.00151997
0.00144187
0.00128007
0.00104364
0.000734857
0.000381034
4.81694e-05
8.25685e-05
0.000127895
0.000145226
0.000138577
0.000124233
0.000101784
8.13685e-05
6.54246e-05
5.3286e-05
4.39879e-05
3.67768e-05
3.10813e-05
2.65368e-05
2.27985e-05
1.95666e-05
1.65571e-05
1.3947e-05
1.00714e-05
0.00125212
0.00170524
0.000664611
0.000657271
0.000699563
0.000771255
0.000877878
0.000992146
0.00107756
0.00110457
0.00106286
0.000958328
0.000811965
0.000640927
0.000504039
0.00068524
0.0002362
4.9861e-05
0.000121801
0.000149162
0.00014807
0.000134866
0.000119288
0.000113687
9.09581e-05
7.04448e-05
5.45184e-05
4.25455e-05
3.35881e-05
2.68245e-05
2.17114e-05
1.79006e-05
1.54788e-05
1.42808e-05
2.28487e-05
1.74997e-05
0.00218859
0.0038995
0.000783398
0.000626304
0.000677583
0.00079078
0.000951567
0.00111249
0.00122132
0.0012529
0.00120882
0.00109744
0.000947039
0.00078241
0.000649255
0.00059509
0.000783356
0.000286817
0.000259645
0.000229696
0.000198541
0.000168751
0.000150924
0.000293761
0.000194568
0.000133219
9.45002e-05
6.93189e-05
5.24264e-05
4.07711e-05
3.26307e-05
2.70245e-05
2.00519e-05
1.6225e-05
3.47995e-05
2.41557e-05
0.00342887
0.00786944
0.00117808
0.00064223
0.000688181
0.000860586
0.00111731
0.00132606
0.00143583
0.00144977
0.00138643
0.00124733
0.00107529
0.00089894
0.000751519
0.000665132
0.000659893
0.00121917
0.000720759
0.000467858
0.000335265
0.000256351
0.000204498
0.000180982
0.000429944
0.000314395
0.000242513
0.000193535
0.000158185
0.000130518
0.000107302
8.66796e-05
6.71605e-05
3.80902e-05
2.34702e-05
4.95469e-05
3.0921e-05
0.00510603
0.0139138
0.00226135
0.000790521
0.000780065
0.00108963
0.00148418
0.00169492
0.00175833
0.00172563
0.00161767
0.00144143
0.00121987
0.000986357
0.000778909
0.000623801
0.000533889
0.000503695
0.000434267
0.000366331
0.000307407
0.000256037
0.000211587
0.000177238
0.000167808
0.000150616
0.000133657
0.00011762
0.000102681
8.85313e-05
7.5133e-05
6.2677e-05
5.1303e-05
3.83231e-05
2.74493e-05
4.05951e-05
3.21766e-05
5.58739e-05
0.000102701
0.000145249
0.00742423
0.0207227
0.0050676
0.00157175
0.0013512
0.00195548
0.00224753
0.00229886
0.00224235
0.002128
0.00195206
0.0017064
0.00140656
0.00109315
0.000816072
0.000609928
0.00048477
0.000423904
0.000384762
0.000344987
0.000300128
0.000253758
0.000210264
0.000173997
0.000149631
0.000133286
0.000120573
0.000108652
9.65663e-05
8.40414e-05
7.13991e-05
5.92739e-05
4.84091e-05
3.89214e-05
3.23761e-05
3.54424e-05
3.4562e-05
4.30203e-05
0.000188331
0.000162458
0.0100247
0.024845
0.0104141
0.0050018
0.00416009
0.00391879
0.00356604
0.00322756
0.00294548
0.00269084
0.00240506
0.00205125
0.00164057
0.00122334
0.000867134
0.000615841
0.000472974
0.000406125
0.000366921
0.000327233
0.000281998
0.000236146
0.000194984
0.000162388
0.000140622
0.000127582
0.000118706
0.000111049
0.000103444
9.49087e-05
8.51862e-05
7.48929e-05
6.49456e-05
5.62847e-05
5.2397e-05
5.50366e-05
6.38495e-05
9.27386e-05
0.000233252
0.000222999
0.0105695
0.0261722
0.0151872
0.0107789
0.00824345
0.00636745
0.00511403
0.00432549
0.00381883
0.00341886
0.00298612
0.00246613
0.00188805
0.00132344
0.000872545
0.000585925
0.000438655
0.000371644
0.000329405
0.000287394
0.000244102
0.000204435
0.000172005
0.00014853
0.00013398
0.000126252
0.000122636
0.000121755
0.000123448
0.000127798
0.00013345
0.000138765
0.000145672
0.000158494
0.000184975
0.000259419
0.000435223
0.000818835
0.00308908
0.000814027
0.00976015
0.0160786
0.0127655
0.00983535
0.00771772
0.0064056
0.00564061
0.00518421
0.00481479
0.00434099
0.00365246
0.00281249
0.00195874
0.00118444
0.000687473
0.000466191
0.000365323
0.000312727
0.000274652
0.000239682
0.000207107
0.000179001
0.000156936
0.000141367
0.000131741
0.000126903
0.000125939
0.000128899
0.000136728
0.000150995
0.000173991
0.00020902
0.000261327
0.000342351
0.000464893
0.000640821
0.00086262
0.00108678
0.00125762
0.000676868
0.00297841
0.00471117
0.00638894
0.00690432
0.00694497
0.00657827
0.00577561
0.00455917
0.00301443
0.00183099
0.00110374
0.000682835
0.000460209
0.000352367
0.000297475
0.000263787
0.000237328
0.000214015
0.000193574
0.000176283
0.000161955
0.000150066
0.000140118
0.000131997
0.000126293
0.000124216
0.000127308
0.000137342
0.000156555
0.00018806
0.000236487
0.000308287
0.000409917
0.000541361
0.00068416
0.000794661
0.000765896
0.00037387
0.00239953
0.0070905
0.00771606
0.00651404
0.00550616
0.004435
0.00332297
0.0023389
0.00153837
0.000984275
0.000654761
0.000475772
0.000385359
0.000342389
0.00032242
0.000312782
0.00030715
0.000302543
0.000297541
0.000291336
0.000283311
0.000273036
0.000260469
0.000246056
0.000230854
0.000216567
0.000205366
0.000199629
0.000201799
0.000214629
0.000241534
0.00028609
0.00034962
0.000425843
0.000497253
0.000591023
0.000395936
0.000405961
0.00191461
0.00229877
0.00259747
0.00344054
0.00317995
0.00293598
0.00268829
0.00230984
0.00185974
0.00142439
0.00105663
0.000783416
0.000604881
0.000494443
0.000424434
0.000376392
0.000339905
0.00030963
0.000283358
0.000260481
0.000240721
0.000223643
0.000208752
0.000195734
0.000184601
0.000175707
0.000169645
0.000167071
0.000168582
0.000174685
0.000185897
0.000202924
0.000226834
0.000259034
0.000300278
0.000347786
0.000359595
0.00025476
0.000245383
0.000475638
)
;

boundaryField
{
    floor
    {
        Cmu             0.09;
        kappa           0.41;
        E               9.8;
        type            epsilonWallFunction;
        value           nonuniform List<scalar> 
29
(
0.000381034
4.81694e-05
8.25685e-05
0.000127895
0.000145226
0.000138577
0.000124233
0.000101784
8.13685e-05
6.54246e-05
5.3286e-05
4.39879e-05
3.67768e-05
3.10813e-05
2.65368e-05
2.27985e-05
1.95666e-05
1.65571e-05
1.3947e-05
1.00714e-05
1.00714e-05
1.74997e-05
2.41557e-05
3.0921e-05
0.000381034
4.81694e-05
4.9861e-05
0.000286817
0.00121917
)
;
    }
    ceiling
    {
        Cmu             0.09;
        kappa           0.41;
        E               9.8;
        type            epsilonWallFunction;
        value           nonuniform List<scalar> 
43
(
0.00191461
0.00229877
0.00259747
0.00344054
0.00317995
0.00293598
0.00268829
0.00230984
0.00185974
0.00142439
0.00105663
0.000783416
0.000604881
0.000494443
0.000424434
0.000376392
0.000339905
0.00030963
0.000283358
0.000260481
0.000240721
0.000223643
0.000208752
0.000195734
0.000184601
0.000175707
0.000169645
0.000167071
0.000168582
0.000174685
0.000185897
0.000202924
0.000226834
0.000259034
0.000300278
0.000347786
0.000359595
0.00025476
0.000245383
0.000475638
0.00976015
0.0160786
0.00239953
)
;
    }
    sWall
    {
        Cmu             0.09;
        kappa           0.41;
        E               9.8;
        type            epsilonWallFunction;
        value           uniform 0.00191461;
    }
    nWall
    {
        Cmu             0.09;
        kappa           0.41;
        E               9.8;
        type            epsilonWallFunction;
        value           nonuniform List<scalar> 6(0.000145249 0.000162458 0.000222999 0.00037387 0.000405961 0.000475638);
    }
    sideWalls
    {
        type            empty;
    }
    glass1
    {
        Cmu             0.09;
        kappa           0.41;
        E               9.8;
        type            epsilonWallFunction;
        value           nonuniform List<scalar> 9(0.000530797 0.00125212 0.00218859 0.00342887 0.00510603 0.00742423 0.0100247 0.0105695 0.00976015);
    }
    glass2
    {
        Cmu             0.09;
        kappa           0.41;
        E               9.8;
        type            epsilonWallFunction;
        value           nonuniform List<scalar> 2(0.000814027 0.000676868);
    }
    sun
    {
        Cmu             0.09;
        kappa           0.41;
        E               9.8;
        type            epsilonWallFunction;
        value           nonuniform List<scalar> 
14
(
0.000530797
0.00070621
0.000765894
0.000889268
0.00101682
0.00115155
0.00130333
0.00143365
0.00151353
0.00151997
0.00144187
0.00128007
0.00104364
0.000734857
)
;
    }
    heatsource1
    {
        Cmu             0.09;
        kappa           0.41;
        E               9.8;
        type            epsilonWallFunction;
        value           nonuniform List<scalar> 3(5.58739e-05 0.000102701 0.000145249);
    }
    heatsource2
    {
        Cmu             0.09;
        kappa           0.41;
        E               9.8;
        type            epsilonWallFunction;
        value           nonuniform List<scalar> 4(0.00068524 0.0002362 0.0002362 0.000783356);
    }
    Table_master
    {
        Cmu             0.09;
        kappa           0.41;
        E               9.8;
        type            epsilonWallFunction;
        value           nonuniform List<scalar> 9(0.000293761 0.000194568 0.000133219 9.45002e-05 6.93189e-05 5.24264e-05 4.07711e-05 3.26307e-05 2.70245e-05);
    }
    Table_slave
    {
        Cmu             0.09;
        kappa           0.41;
        E               9.8;
        type            epsilonWallFunction;
        value           nonuniform List<scalar> 9(0.000429944 0.000314395 0.000242513 0.000193535 0.000158185 0.000130518 0.000107302 8.66796e-05 6.71605e-05);
    }
    inlet
    {
        type            turbulentMixingLengthDissipationRateInlet;
        mixingLength    0.01;
        phi             phi;
        k               k;
        value           uniform 0.000101881;
    }
    outlet
    {
        type            zeroGradient;
    }
}


// ************************************************************************* //
