// -*- C++ -*-
// File generated by PyFoam - sorry for the ugliness

FoamFile
{
 version 2.0;
 format ascii;
 class volScalarField;
 location "1800";
 object T;
}

dimensions [ 0 0 0 1 0 0 0 ];

internalField nonuniform List<scalar> 459
(
  303.668
  303.416
  303.399
  303.392
  303.385
  303.379
  303.372
  303.362
  303.35
  303.338
  303.329
  303.325
  303.33
  303.345
  303.385
  303.562
  303.53
  303.512
  303.515
  303.524
  303.533
  303.544
  303.555
  303.566
  303.577
  303.588
  303.599
  303.61
  303.621
  303.633
  303.644
  303.658
  303.674
  303.704
  303.833
  303.457
  303.43
  303.427
  303.425
  303.42
  303.412
  303.395
  303.369
  303.34
  303.316
  303.302
  303.302
  303.313
  303.331
  303.344
  303.369
  303.568
  303.492
  303.479
  303.484
  303.495
  303.508
  303.518
  303.528
  303.538
  303.548
  303.558
  303.568
  303.579
  303.589
  303.6
  303.613
  303.63
  303.651
  303.692
  304.008
  303.508
  303.468
  303.474
  303.483
  303.486
  303.481
  303.454
  303.407
  303.355
  303.312
  303.287
  303.282
  303.292
  303.308
  303.323
  303.342
  303.473
  303.45
  303.451
  303.467
  303.487
  303.506
  303.513
  303.522
  303.532
  303.542
  303.552
  303.562
  303.573
  303.583
  303.594
  303.606
  303.622
  303.643
  303.687
  304.187
  303.572
  303.511
  303.527
  303.553
  303.573
  303.574
  303.53
  303.452
  303.372
  303.308
  303.271
  303.265
  303.276
  303.293
  303.311
  303.329
  303.342
  303.366
  303.397
  303.432
  303.469
  303.503
  303.531
  303.553
  303.573
  303.59
  303.605
  303.619
  303.632
  303.644
  303.655
  303.665
  303.653
  303.645
  303.651
  303.687
  304.363
  303.653
  303.561
  303.578
  303.623
  303.669
  303.668
  303.597
  303.481
  303.374
  303.295
  303.254
  303.247
  303.263
  303.289
  303.315
  303.339
  303.365
  303.398
  303.437
  303.479
  303.52
  303.557
  303.589
  303.617
  303.64
  303.659
  303.675
  303.688
  303.697
  303.703
  303.705
  303.704
  303.69
  303.672
  303.664
  303.686
  303.774
  303.838
  303.838
  304.525
  303.758
  303.64
  303.643
  303.699
  303.756
  303.722
  303.615
  303.478
  303.351
  303.264
  303.224
  303.227
  303.258
  303.3
  303.341
  303.38
  303.419
  303.462
  303.507
  303.552
  303.593
  303.63
  303.66
  303.686
  303.707
  303.724
  303.737
  303.746
  303.75
  303.751
  303.747
  303.739
  303.723
  303.7
  303.682
  303.688
  303.731
  303.757
  303.795
  304.677
  303.921
  303.806
  303.802
  303.845
  303.836
  303.732
  303.571
  303.403
  303.271
  303.195
  303.179
  303.209
  303.268
  303.336
  303.399
  303.455
  303.505
  303.553
  303.599
  303.641
  303.678
  303.709
  303.734
  303.755
  303.771
  303.784
  303.793
  303.798
  303.798
  303.793
  303.784
  303.772
  303.753
  303.73
  303.709
  303.703
  303.719
  303.735
  303.766
  304.891
  304.329
  304.202
  304.153
  304.062
  303.873
  303.629
  303.392
  303.211
  303.11
  303.089
  303.132
  303.214
  303.316
  303.417
  303.5
  303.565
  303.617
  303.661
  303.699
  303.733
  303.761
  303.784
  303.803
  303.817
  303.828
  303.836
  303.84
  303.841
  303.838
  303.831
  303.82
  303.807
  303.789
  303.77
  303.752
  303.746
  303.76
  303.781
  303.903
  305.199
  304.931
  304.686
  304.422
  303.94
  303.456
  303.094
  302.889
  302.828
  302.876
  302.999
  303.146
  303.297
  303.447
  303.565
  303.638
  303.688
  303.727
  303.761
  303.789
  303.813
  303.833
  303.848
  303.86
  303.869
  303.874
  303.877
  303.877
  303.876
  303.873
  303.87
  303.867
  303.866
  303.87
  303.88
  303.9
  303.929
  303.96
  303.984
  304.04
  295.93
  297.053
  298.684
  300.046
  301.068
  301.84
  302.412
  302.843
  303.191
  303.405
  303.542
  303.637
  303.705
  303.752
  303.788
  303.817
  303.842
  303.862
  303.878
  303.891
  303.899
  303.905
  303.909
  303.911
  303.912
  303.911
  303.91
  303.909
  303.908
  303.908
  303.909
  303.914
  303.924
  303.939
  303.96
  303.983
  304.006
  304.048
  296.579
  298.426
  300.268
  301.508
  302.254
  302.752
  303.097
  303.337
  303.51
  303.63
  303.711
  303.768
  303.809
  303.84
  303.864
  303.884
  303.899
  303.912
  303.921
  303.927
  303.932
  303.934
  303.936
  303.937
  303.937
  303.936
  303.935
  303.935
  303.934
  303.934
  303.935
  303.938
  303.943
  303.952
  303.965
  303.985
  304.003
  304.028
  300.029
  299.95
  299.946
  301.956
  302.746
  303.103
  303.318
  303.478
  303.599
  303.689
  303.757
  303.807
  303.842
  303.868
  303.886
  303.9
  303.911
  303.919
  303.924
  303.929
  303.931
  303.933
  303.935
  303.936
  303.937
  303.937
  303.938
  303.939
  303.94
  303.94
  303.941
  303.942
  303.944
  303.946
  303.949
  303.954
  303.963
  303.97
  304.017
  304.117
)
;

boundaryField
{
  floor
  {
    type wallHeatTransfer;
    Tinf uniform 305.2;
    alphaWall uniform 0.24;
    value nonuniform List<scalar> 29
(
  303.585
  303.856
  303.796
  303.754
  303.749
  303.76
  303.774
  303.795
  303.817
  303.84
  303.862
  303.883
  303.904
  303.924
  303.944
  303.964
  303.984
  304.006
  304.031
  304.078
  304.078
  304.029
  304.003
  303.987
  303.585
  303.856
  303.859
  303.677
  303.494
)
;
  }
  ceiling
  {
    type wallHeatTransfer;
    Tinf uniform 303.2;
    alphaWall uniform 0.24;
    value nonuniform List<scalar> 43
(
  300.257
  300.172
  300.161
  302.032
  302.775
  303.11
  303.31
  303.459
  303.57
  303.651
  303.71
  303.751
  303.779
  303.799
  303.813
  303.823
  303.83
  303.835
  303.839
  303.84
  303.841
  303.841
  303.841
  303.84
  303.84
  303.839
  303.839
  303.839
  303.84
  303.842
  303.844
  303.847
  303.851
  303.855
  303.861
  303.869
  303.878
  303.877
  303.917
  304.021
  305.106
  304.86
  297.022
)
;
  }
  sWall
  {
    type wallHeatTransfer;
    Tinf uniform 315.2;
    alphaWall uniform 0.36;
    value uniform 301.611;
  }
  nWall
  {
    type wallHeatTransfer;
    Tinf uniform 307.2;
    alphaWall uniform 0.36;
    value nonuniform List<scalar> 6
(
  304.495
  304.444
  304.375
  304.543
  304.517
  304.575
)
;
  }
  sideWalls
  {
    type empty;
  }
  glass1
  {
    type wallHeatTransfer;
    Tinf uniform 315.2;
    alphaWall uniform 4.3;
    value nonuniform List<scalar> 9
(
  311.429
  310.845
  310.48
  310.203
  309.971
  309.758
  309.605
  309.68
  309.904
)
;
  }
  glass2
  {
    type wallHeatTransfer;
    Tinf uniform 307.2;
    alphaWall uniform 4.3;
    value nonuniform List<scalar> 2
(
  306.021
  306.108
)
;
  }
  sun
  {
    type wallHeatTransfer;
    Tinf uniform 305.2;
    alphaWall uniform 0.24;
    value nonuniform List<scalar> 14
(
  303.823
  303.583
  303.565
  303.552
  303.541
  303.529
  303.518
  303.506
  303.493
  303.481
  303.475
  303.476
  303.489
  303.518
)
;
  }
  heatsource1
  {
    type fixedGradient;
    gradient uniform 0;
  }
  heatsource2
  {
    type fixedGradient;
    gradient uniform 0;
  }
  Table_master
  {
    type zeroGradient;
  }
  Table_slave
  {
    type zeroGradient;
  }
  inlet
  {
    type fixedValue;
    value uniform 293.15;
  }
  outlet
  {
    type zeroGradient;
  }
} 	// ************************************************************************* //

