/*--------------------------------*- C++ -*----------------------------------*\
  =========                 |
  \\      /  F ield         | OpenFOAM: The Open Source CFD Toolbox
   \\    /   O peration     | Website:  https://openfoam.org
    \\  /    A nd           | Version:  6
     \\/     M anipulation  |
\*---------------------------------------------------------------------------*/
FoamFile
{
    version     2.0;
    format      ascii;
    class       volScalarField;
    location    "200";
    object      alphat;
}
// * * * * * * * * * * * * * * * * * * * * * * * * * * * * * * * * * * * * * //

dimensions      [1 -1 -1 0 0 0 0];

internalField   nonuniform List<scalar> 
459
(
0.000841786
0.000864764
0.000791263
0.000820618
0.000852617
0.000882822
0.000911292
0.000938761
0.000966359
0.000994381
0.00101762
0.00103456
0.0010441
0.00104558
0.0010348
0.000421838
0.000465136
0.000470105
0.000367923
0.000289946
0.000267886
0.000257256
0.000255727
0.000274625
0.000301982
0.000332902
0.000362233
0.000386298
0.000404323
0.000440813
0.000493348
0.000531855
0.000518066
0.000457801
0.00143924
0.00251772
0.0018194
0.00240582
0.00262143
0.00284029
0.00306711
0.00328205
0.00345705
0.00357105
0.00362519
0.00358119
0.00337635
0.00291046
0.00208599
0.00110967
0.000754648
0.000540073
0.00134833
0.00153804
0.00146953
0.00115806
0.000688256
0.00036755
0.00037364
0.000505177
0.000710897
0.000937752
0.00115628
0.00135835
0.0015157
0.00167597
0.00182947
0.00175032
0.00173432
0.000569187
0.00196354
0.00417225
0.00191998
0.00340027
0.00389755
0.00414139
0.00434955
0.00452656
0.00466372
0.00475305
0.00479319
0.00474129
0.00452747
0.00405082
0.00322838
0.00216206
0.00117568
0.0009625
0.00265673
0.00247112
0.00212877
0.00168409
0.00122816
0.000363014
0.000349271
0.000392833
0.000437079
0.000483012
0.00053305
0.000591065
0.000663598
0.000760711
0.0018073
0.00168257
0.00133679
0.000760089
0.00245661
0.00622818
0.00216518
0.00356476
0.00454732
0.00479954
0.00495903
0.00509472
0.00521392
0.00531223
0.0054129
0.00549647
0.00549814
0.00529607
0.00471331
0.00361979
0.00222106
0.00125712
0.00293121
0.00330214
0.0029977
0.00244879
0.00186783
0.00127864
0.000810685
0.000807039
0.000806958
0.000807929
0.000810697
0.000817816
0.000833933
0.000869221
0.000935021
0.00241512
0.0031716
0.00327808
0.00114089
0.00291053
0.00842705
0.00285971
0.00322767
0.00469271
0.00499511
0.00510085
0.00518046
0.00526284
0.0053594
0.0055269
0.00579218
0.00613338
0.00649374
0.00677536
0.00686335
0.00668753
0.00627707
0.00605012
0.00564651
0.00524054
0.00487017
0.00455461
0.00428777
0.00406949
0.00394444
0.00382092
0.00370293
0.00361065
0.00357042
0.00360059
0.00370328
0.00386273
0.00406379
0.0041855
0.0041205
0.00351391
0.00155568
0.00139346
0.00122233
0.00333178
0.0103631
0.00422015
0.0029002
0.00431095
0.00479819
0.00493058
0.00497375
0.00498551
0.00500134
0.00514739
0.005443
0.00589092
0.00646983
0.00709618
0.0076245
0.00789204
0.00781933
0.00750399
0.00708967
0.00669417
0.00636325
0.00609041
0.00584575
0.00559357
0.00531935
0.00502526
0.00473297
0.00448042
0.00431057
0.00424568
0.00427189
0.00434398
0.00440278
0.00442209
0.00435597
0.00404084
0.00332259
0.00252545
0.0012866
0.0037257
0.0117449
0.00665071
0.00344801
0.0032842
0.00396962
0.00447481
0.0047252
0.00475064
0.00464997
0.00470065
0.00487626
0.00520455
0.00571821
0.00638767
0.00708034
0.00760293
0.0078227
0.00775154
0.00752931
0.0072819
0.00706979
0.00689566
0.00672923
0.00652746
0.00626322
0.00593295
0.00555397
0.00516803
0.00483181
0.00458202
0.00441495
0.00429968
0.00418399
0.00401213
0.00372864
0.00328475
0.00272536
0.00215118
0.00125566
0.00382001
0.0120339
0.00892133
0.00627487
0.00443873
0.00386524
0.00418286
0.00460826
0.0046076
0.00447817
0.00441602
0.00443915
0.00455849
0.00480863
0.00523427
0.00582343
0.00644452
0.00691257
0.00711247
0.00714141
0.00709884
0.00705672
0.00704409
0.00705224
0.00704763
0.00698957
0.00684105
0.00658382
0.00624073
0.00587676
0.00553476
0.00517573
0.00478366
0.00436707
0.00394568
0.00355044
0.00316786
0.00280489
0.002459
0.00153419
0.00370416
0.00444899
0.00515267
0.00517279
0.00476615
0.00430206
0.00401265
0.00390005
0.0038635
0.00387641
0.00391369
0.00396124
0.00401977
0.00410803
0.00426475
0.00453432
0.00491899
0.00534141
0.00569786
0.00595267
0.00612763
0.00626847
0.00641517
0.00658972
0.0067964
0.0070239
0.00723603
0.00736388
0.00736793
0.00722911
0.00697591
0.00671871
0.0065285
0.00644979
0.0064267
0.00611325
0.00526016
0.00449094
0.00445782
0.00173868
0.00463212
0.0060743
0.00537837
0.00487252
0.00451012
0.00425745
0.00407728
0.00393991
0.0038319
0.00374351
0.00366919
0.00361047
0.00357824
0.00359325
0.0036793
0.00384561
0.00407406
0.00433128
0.00458862
0.00483565
0.00507985
0.00533923
0.00563531
0.00598768
0.00640063
0.00683823
0.00720872
0.00738015
0.00735525
0.00721273
0.00704201
0.00690278
0.00679798
0.00667752
0.00626352
0.00539584
0.00505632
0.00170624
0.00327165
0.0062872
0.00550886
0.00501431
0.00463259
0.00432481
0.00407442
0.00386485
0.00365394
0.00345491
0.00327553
0.00312074
0.00299473
0.00290265
0.00285148
0.00284897
0.00290073
0.00300755
0.00316457
0.00336287
0.0035927
0.00384657
0.00412188
0.00442213
0.00475455
0.00511739
0.00547191
0.00579913
0.00602348
0.00611674
0.00610348
0.00601794
0.00587384
0.00564831
0.00508224
0.00425829
0.00408218
0.00149621
0.00220167
0.00249368
0.0028139
0.00291763
0.00257702
0.00235428
0.00216946
0.00200819
0.00186479
0.0017362
0.00162545
0.00152648
0.00143604
0.00135247
0.00127511
0.00120397
0.00113947
0.0010822
0.00103267
0.000991171
0.000957693
0.000931999
0.00091369
0.000902301
0.000897388
0.000898615
0.00090583
0.000919532
0.000944317
0.000983685
0.00103754
0.00110027
0.00116031
0.00120457
0.00122274
0.00120778
0.00118409
0.00114987
0.00116221
0.00111318
)
;

boundaryField
{
    floor
    {
        type            compressible::alphatWallFunction;
        Prt             0.85;
        value           nonuniform List<scalar> 
29
(
0.000147176
5.70889e-05
6.38196e-05
6.45874e-05
4.85804e-05
3.59748e-05
3.23301e-05
3.05596e-05
3.03018e-05
3.34418e-05
3.794e-05
4.29597e-05
4.76648e-05
5.14885e-05
5.43335e-05
6.00434e-05
6.81595e-05
7.40368e-05
7.19361e-05
6.268e-05
6.26792e-05
7.96852e-05
0.00010793
0.000161967
0.000147175
5.70881e-05
7.5293e-05
0.000136962
0.000177994
)
;
    }
    ceiling
    {
        type            compressible::alphatWallFunction;
        Prt             0.85;
        value           nonuniform List<scalar> 
43
(
0.000303419
0.000340811
0.00038129
0.000394305
0.000351406
0.00032303
0.000299267
0.000278353
0.000259603
0.000242655
0.000227948
0.000214711
0.00020253
0.000191198
0.000180637
0.000170861
0.000161939
0.000153969
0.000147035
0.000141195
0.000136463
0.000132817
0.00013021
0.000128585
0.000127881
0.000128053
0.000129079
0.000131028
0.000134547
0.000140115
0.000147692
0.000156461
0.000164801
0.000170917
0.000173421
0.000171363
0.000168094
0.000163359
0.000165067
0.000158265
0.000491571
0.000581642
0.000438337
)
;
    }
    sWall
    {
        type            compressible::alphatWallFunction;
        Prt             0.85;
        value           uniform 0.000302333;
    }
    nWall
    {
        type            compressible::alphatWallFunction;
        Prt             0.85;
        value           nonuniform List<scalar> 6(0.000173013 0.000181833 0.000177596 0.000238299 0.000210263 0.000157933);
    }
    sideWalls
    {
        type            empty;
    }
    glass1
    {
        type            compressible::alphatWallFunction;
        Prt             0.85;
        value           nonuniform List<scalar> 9(0.000116413 0.000198091 0.000266823 0.000329798 0.000386691 0.000438726 0.000486808 0.000498375 0.000484547);
    }
    glass2
    {
        type            compressible::alphatWallFunction;
        Prt             0.85;
        value           nonuniform List<scalar> 2(0.000214043 0.000241159);
    }
    sun
    {
        type            compressible::alphatWallFunction;
        Prt             0.85;
        value           nonuniform List<scalar> 
14
(
0.000119805
0.000123083
0.000112498
0.000116738
0.000121341
0.000125666
0.000129727
0.000133632
0.000137541
0.000141496
0.000144766
0.000147145
0.000148482
0.000148689
)
;
    }
    heatsource1
    {
        type            compressible::alphatWallFunction;
        Prt             0.85;
        value           nonuniform List<scalar> 3(0.000218599 0.000196741 0.000173366);
    }
    heatsource2
    {
        type            compressible::alphatWallFunction;
        Prt             0.85;
        value           nonuniform List<scalar> 4(0.000157773 0.000107312 0.000107311 0.000166927);
    }
    Table_master
    {
        type            compressible::alphatWallFunction;
        Prt             0.85;
        value           nonuniform List<scalar> 9(4.79545e-05 4.57524e-05 5.26857e-05 5.96267e-05 6.67378e-05 7.43879e-05 8.31463e-05 9.3949e-05 0.000108191);
    }
    Table_slave
    {
        type            compressible::alphatWallFunction;
        Prt             0.85;
        value           nonuniform List<scalar> 9(0.000115439 0.000114912 0.0001149 0.00011504 0.000115439 0.000116467 0.000118789 0.000123853 0.000133233);
    }
    inlet
    {
        type            fixedValue;
        value           uniform 1.94e-05;
    }
    outlet
    {
        type            zeroGradient;
    }
}


// ************************************************************************* //
