// -*- C++ -*-
// File generated by PyFoam - sorry for the ugliness

FoamFile
{
 version 2.0;
 format ascii;
 class volScalarField;
 location "600";
 object T;
}

dimensions [ 0 0 0 1 0 0 0 ];

internalField nonuniform List<scalar> 459
(
  303.452
  303.18
  303.171
  303.17
  303.169
  303.167
  303.165
  303.163
  303.16
  303.153
  303.144
  303.132
  303.119
  303.109
  303.102
  303.14
  303.123
  303.118
  303.118
  303.117
  303.118
  303.118
  303.118
  303.118
  303.118
  303.118
  303.118
  303.118
  303.117
  303.117
  303.117
  303.116
  303.116
  303.127
  303.649
  303.219
  303.203
  303.21
  303.217
  303.222
  303.225
  303.226
  303.224
  303.213
  303.193
  303.166
  303.138
  303.113
  303.094
  303.082
  303.071
  303.134
  303.118
  303.114
  303.112
  303.11
  303.108
  303.106
  303.103
  303.1
  303.097
  303.094
  303.091
  303.088
  303.085
  303.084
  303.083
  303.084
  303.087
  303.111
  303.852
  303.267
  303.236
  303.253
  303.272
  303.288
  303.301
  303.309
  303.309
  303.293
  303.259
  303.213
  303.166
  303.126
  303.102
  303.09
  303.084
  303.111
  303.111
  303.114
  303.116
  303.117
  303.116
  303.112
  303.108
  303.103
  303.099
  303.095
  303.091
  303.087
  303.083
  303.079
  303.077
  303.076
  303.077
  303.103
  304.052
  303.325
  303.267
  303.291
  303.323
  303.354
  303.381
  303.4
  303.404
  303.382
  303.331
  303.261
  303.191
  303.136
  303.105
  303.093
  303.093
  303.101
  303.106
  303.114
  303.122
  303.128
  303.131
  303.132
  303.133
  303.133
  303.132
  303.132
  303.13
  303.128
  303.126
  303.124
  303.12
  303.102
  303.086
  303.077
  303.101
  304.242
  303.398
  303.297
  303.316
  303.356
  303.4
  303.443
  303.478
  303.491
  303.464
  303.391
  303.297
  303.208
  303.139
  303.104
  303.094
  303.098
  303.107
  303.118
  303.13
  303.14
  303.147
  303.151
  303.152
  303.153
  303.153
  303.152
  303.15
  303.148
  303.144
  303.139
  303.134
  303.127
  303.113
  303.096
  303.081
  303.094
  303.158
  303.189
  303.197
  304.408
  303.493
  303.347
  303.337
  303.372
  303.417
  303.467
  303.52
  303.552
  303.517
  303.424
  303.311
  303.208
  303.136
  303.1
  303.092
  303.103
  303.119
  303.136
  303.151
  303.161
  303.168
  303.171
  303.171
  303.171
  303.17
  303.168
  303.165
  303.161
  303.156
  303.149
  303.141
  303.132
  303.12
  303.103
  303.087
  303.09
  303.117
  303.129
  303.163
  304.544
  303.649
  303.489
  303.426
  303.421
  303.444
  303.485
  303.551
  303.58
  303.531
  303.422
  303.295
  303.187
  303.116
  303.086
  303.089
  303.111
  303.137
  303.159
  303.174
  303.182
  303.186
  303.188
  303.188
  303.187
  303.185
  303.183
  303.179
  303.174
  303.167
  303.157
  303.147
  303.137
  303.125
  303.11
  303.096
  303.091
  303.1
  303.108
  303.136
  304.759
  304.092
  303.908
  303.757
  303.66
  303.618
  303.619
  303.648
  303.619
  303.513
  303.367
  303.228
  303.127
  303.075
  303.067
  303.089
  303.128
  303.163
  303.185
  303.195
  303.199
  303.202
  303.203
  303.203
  303.202
  303.2
  303.197
  303.194
  303.189
  303.182
  303.173
  303.161
  303.15
  303.141
  303.13
  303.12
  303.118
  303.132
  303.154
  303.295
  305.062
  304.766
  304.502
  304.264
  304.076
  303.946
  303.863
  303.768
  303.595
  303.387
  303.206
  303.084
  303.025
  303.022
  303.054
  303.106
  303.164
  303.192
  303.204
  303.21
  303.214
  303.216
  303.218
  303.218
  303.218
  303.218
  303.216
  303.214
  303.212
  303.21
  303.21
  303.213
  303.219
  303.232
  303.252
  303.281
  303.318
  303.354
  303.377
  303.433
  297.636
  300.544
  302.005
  302.557
  302.764
  302.816
  302.831
  302.812
  302.82
  302.857
  302.921
  303.002
  303.086
  303.164
  303.198
  303.212
  303.22
  303.225
  303.228
  303.231
  303.234
  303.236
  303.238
  303.24
  303.241
  303.243
  303.246
  303.249
  303.252
  303.257
  303.264
  303.276
  303.294
  303.316
  303.342
  303.365
  303.379
  303.393
  298.193
  300.53
  301.532
  302.062
  302.331
  302.446
  302.51
  302.579
  302.73
  302.863
  302.993
  303.121
  303.181
  303.208
  303.221
  303.227
  303.233
  303.237
  303.241
  303.245
  303.248
  303.252
  303.255
  303.258
  303.261
  303.264
  303.267
  303.27
  303.274
  303.278
  303.284
  303.293
  303.305
  303.32
  303.338
  303.355
  303.348
  303.375
  299.82
  299.752
  299.746
  301.233
  301.81
  302.121
  302.331
  302.416
  302.464
  302.608
  303.012
  303.139
  303.184
  303.206
  303.218
  303.226
  303.231
  303.236
  303.24
  303.244
  303.248
  303.251
  303.255
  303.259
  303.262
  303.265
  303.268
  303.272
  303.275
  303.278
  303.281
  303.285
  303.289
  303.294
  303.301
  303.314
  303.324
  303.329
  303.329
  303.366
)
;

boundaryField
{
  floor
  {
    type wallHeatTransfer;
    Tinf uniform 305.2;
    alphaWall uniform 0.24;
    value nonuniform List<scalar> 29
(
  303.338
  303.577
  303.517
  303.502
  303.512
  303.524
  303.537
  303.55
  303.564
  303.577
  303.589
  303.6
  303.611
  303.621
  303.631
  303.641
  303.651
  303.662
  303.669
  303.701
  303.701
  303.6
  303.548
  303.516
  303.338
  303.577
  303.508
  303.386
  303.332
)
;
  }
  ceiling
  {
    type wallHeatTransfer;
    Tinf uniform 303.2;
    alphaWall uniform 0.24;
    value nonuniform List<scalar> 43
(
  300.048
  299.974
  299.961
  301.35
  301.896
  302.192
  302.393
  302.477
  302.529
  302.668
  303.036
  303.148
  303.186
  303.205
  303.214
  303.221
  303.225
  303.229
  303.232
  303.236
  303.239
  303.242
  303.246
  303.249
  303.252
  303.255
  303.258
  303.261
  303.264
  303.267
  303.27
  303.274
  303.278
  303.284
  303.29
  303.302
  303.311
  303.316
  303.315
  303.347
  304.973
  304.703
  298.493
)
;
  }
  sWall
  {
    type wallHeatTransfer;
    Tinf uniform 315.2;
    alphaWall uniform 0.36;
    value uniform 301.329;
  }
  nWall
  {
    type wallHeatTransfer;
    Tinf uniform 307.2;
    alphaWall uniform 0.36;
    value nonuniform List<scalar> 6
(
  303.945
  303.899
  303.839
  303.948
  303.927
  303.983
)
;
  }
  sideWalls
  {
    type empty;
  }
  glass1
  {
    type wallHeatTransfer;
    Tinf uniform 315.2;
    alphaWall uniform 4.3;
    value nonuniform List<scalar> 9
(
  311.93
  311.254
  310.808
  310.45
  310.145
  309.871
  309.633
  309.676
  309.878
)
;
  }
  glass2
  {
    type wallHeatTransfer;
    Tinf uniform 307.2;
    alphaWall uniform 4.3;
    value nonuniform List<scalar> 2
(
  305.727
  305.827
)
;
  }
  sun
  {
    type wallHeatTransfer;
    Tinf uniform 305.2;
    alphaWall uniform 0.24;
    value nonuniform List<scalar> 14
(
  303.669
  303.419
  303.409
  303.402
  303.395
  303.389
  303.383
  303.377
  303.371
  303.363
  303.354
  303.345
  303.338
  303.336
)
;
  }
  heatsource1
  {
    type fixedGradient;
    gradient uniform 0;
  }
  heatsource2
  {
    type fixedGradient;
    gradient uniform 0;
  }
  Table_master
  {
    type zeroGradient;
  }
  Table_slave
  {
    type zeroGradient;
  }
  inlet
  {
    type fixedValue;
    value uniform 293.15;
  }
  outlet
  {
    type zeroGradient;
  }
} 	// ************************************************************************* //

