/*--------------------------------*- C++ -*----------------------------------*\
  =========                 |
  \\      /  F ield         | OpenFOAM: The Open Source CFD Toolbox
   \\    /   O peration     | Website:  https://openfoam.org
    \\  /    A nd           | Version:  6
     \\/     M anipulation  |
\*---------------------------------------------------------------------------*/
FoamFile
{
    version     2.0;
    format      ascii;
    class       volScalarField;
    location    "500";
    object      nut;
}
// * * * * * * * * * * * * * * * * * * * * * * * * * * * * * * * * * * * * * //

dimensions      [0 2 -1 0 0 0 0];

internalField   nonuniform List<scalar> 
459
(
0.00101379
0.00110004
0.00111428
0.001165
0.0012114
0.00125405
0.00129479
0.00133595
0.00137012
0.00139021
0.00139099
0.00136826
0.00132122
0.00125613
0.00118512
0.00043952
0.000541314
0.000594201
0.000578523
0.000553148
0.00052467
0.000493597
0.000463981
0.000437164
0.000413192
0.000391782
0.000372692
0.000355592
0.000340035
0.00032552
0.000311328
0.000296362
0.000287978
0.000264934
0.00140316
0.00324255
0.00303926
0.00352651
0.00398423
0.00445135
0.00488838
0.00523147
0.00552308
0.00577231
0.00593913
0.00596936
0.00577797
0.00518702
0.00369501
0.00120034
0.0007879
0.000491755
0.000937249
0.00123719
0.00143595
0.00152771
0.00151735
0.00128535
0.0011374
0.00102644
0.000938487
0.000866666
0.000805259
0.000749894
0.000698148
0.000648777
0.00060617
0.000566627
0.000679353
0.000359907
0.00173194
0.00444048
0.00369824
0.00475137
0.00523164
0.00557984
0.00584473
0.00605049
0.00625689
0.0064829
0.00670291
0.00687542
0.00693801
0.00682572
0.00640011
0.00520341
0.0011596
0.00100286
0.0013409
0.00161767
0.00184355
0.00198543
0.00192438
0.00069604
0.000621879
0.000561931
0.000513182
0.000473148
0.000439932
0.000412153
0.000388908
0.000369784
0.000397644
0.000456024
0.00076059
0.000421796
0.00205181
0.00579374
0.00365877
0.00504698
0.00552756
0.00567201
0.00572381
0.00578604
0.00591467
0.00612051
0.00637776
0.00665101
0.00686581
0.0069781
0.00693095
0.00652092
0.00506436
0.00133943
0.00167337
0.00209373
0.00243291
0.00266724
0.00280098
0.00262993
0.000777915
0.000717893
0.000676671
0.000646274
0.000620256
0.000594341
0.000569177
0.000542099
0.000509611
0.00047991
0.00048551
0.000875839
0.000469026
0.00237897
0.00755621
0.00404842
0.00478491
0.00549645
0.00556697
0.00547477
0.00542091
0.00552271
0.0057258
0.00600415
0.00633216
0.0066025
0.00675275
0.00673866
0.00651826
0.00596545
0.0048641
0.00441133
0.00418634
0.00405184
0.00397222
0.00392401
0.00382105
0.0033333
0.003123
0.00301117
0.00292069
0.00281108
0.00264221
0.002372
0.00202616
0.00163151
0.00122252
0.00090062
0.000888864
0.000623561
0.000587291
0.000708779
0.000793381
0.00272469
0.00947075
0.00574693
0.00459326
0.00513496
0.00542201
0.00539997
0.00527055
0.00537291
0.00556045
0.00583843
0.00616865
0.00646159
0.00661771
0.00657283
0.0063257
0.00593387
0.00549019
0.00518458
0.00496718
0.00479193
0.0046575
0.0045506
0.00443691
0.00426452
0.00411543
0.00397893
0.00383823
0.00368373
0.00350738
0.00325867
0.002913
0.00246948
0.00195205
0.00147265
0.00107935
0.000839825
0.000728796
0.00105215
0.000826357
0.00304757
0.0108653
0.00839528
0.00601033
0.00543457
0.00548724
0.00552709
0.00545804
0.00545391
0.00558534
0.00586011
0.00621052
0.00651823
0.00666066
0.00656368
0.00624462
0.0058248
0.00547979
0.00529282
0.00515795
0.00499217
0.00479029
0.00457074
0.0043635
0.00418432
0.00403749
0.0039029
0.00376921
0.00363532
0.00350618
0.00338248
0.00316589
0.00281626
0.00236678
0.00192204
0.00150575
0.00121805
0.00113489
0.00117278
0.000928757
0.00311544
0.00990932
0.0086536
0.00777203
0.0070598
0.00658166
0.00606456
0.00567754
0.00555665
0.005709
0.00605442
0.00645673
0.0067611
0.00683564
0.00662088
0.00617369
0.00567643
0.0053536
0.00522137
0.00499203
0.00465643
0.00430088
0.0039982
0.00377673
0.00362267
0.00350695
0.00340762
0.00331901
0.00324587
0.00319816
0.00318713
0.00319267
0.00299762
0.00268975
0.00241218
0.00227187
0.00237511
0.0027812
0.00348147
0.00146814
0.00303751
0.00362093
0.00406395
0.00425266
0.00435533
0.00439099
0.0045151
0.0048211
0.00531313
0.00592303
0.00652512
0.00697834
0.00716361
0.00700306
0.00650754
0.00584638
0.00534235
0.00499932
0.00466187
0.00422363
0.00377582
0.00341936
0.00317581
0.00301718
0.00290738
0.00281983
0.00274003
0.00266183
0.00258204
0.00249746
0.00240479
0.0023045
0.00221967
0.0021573
0.00214012
0.00216192
0.00216295
0.00208611
0.00195422
0.00137922
0.00169368
0.00327426
0.00437049
0.00518137
0.00594342
0.00663369
0.00722382
0.0076509
0.00783552
0.00773005
0.00732447
0.00661854
0.00571068
0.00491941
0.0044048
0.00396049
0.00348024
0.0030357
0.00271008
0.00249996
0.00236785
0.00228038
0.00221682
0.0021663
0.00212413
0.00208904
0.00206167
0.00204408
0.00203986
0.00205659
0.00208093
0.00211242
0.00214578
0.00215752
0.00210771
0.00198122
0.00179078
0.00113971
0.00205487
0.00452531
0.00613913
0.00679417
0.00736529
0.00778274
0.0078996
0.00779763
0.00734266
0.00659546
0.00568428
0.0047849
0.00403963
0.0034619
0.00297629
0.00255541
0.00224795
0.00205102
0.00192046
0.00183356
0.00177933
0.00174734
0.00173242
0.00173226
0.00174586
0.00177249
0.00181082
0.00185794
0.00191675
0.00198955
0.00207454
0.00216636
0.00225115
0.00231089
0.00230155
0.00233291
0.00232955
0.00115908
0.00179382
0.00189854
0.00197429
0.00209177
0.00198606
0.00186573
0.00176094
0.00165685
0.00155732
0.00144347
0.0013096
0.00115241
0.000988449
0.000836732
0.000715785
0.00063245
0.000582334
0.000555942
0.000545158
0.000544544
0.000550874
0.000562013
0.000576364
0.000593679
0.000613918
0.00063715
0.000663555
0.000693459
0.000727452
0.000766595
0.000811207
0.000860564
0.000915362
0.000976306
0.00104345
0.00112398
0.00115179
0.0011244
0.00105454
0.000980668
)
;

boundaryField
{
    floor
    {
        type            nutkWallFunction;
        Cmu             0.09;
        kappa           0.41;
        E               9.8;
        value           nonuniform List<scalar> 
29
(
0.000142292
5.19167e-05
6.49632e-05
7.16187e-05
6.96535e-05
6.64592e-05
6.28526e-05
5.88896e-05
5.50834e-05
5.16108e-05
4.84837e-05
4.56714e-05
4.31473e-05
4.08721e-05
3.879e-05
3.68361e-05
3.49148e-05
3.2876e-05
3.17281e-05
2.85492e-05
2.85491e-05
4.14477e-05
4.96089e-05
5.57342e-05
0.000142292
5.19167e-05
5.86536e-05
0.000121061
0.000159977
)
;
    }
    ceiling
    {
        type            nutkWallFunction;
        Cmu             0.09;
        kappa           0.41;
        E               9.8;
        value           nonuniform List<scalar> 
43
(
0.000210701
0.000222195
0.000230468
0.000243319
0.000231864
0.00021872
0.000207192
0.000195663
0.000184563
0.000171767
0.000156574
0.000138509
0.000119362
0.000101317
8.6657e-05
7.63857e-05
7.0131e-05
6.68114e-05
6.54495e-05
6.53721e-05
6.61723e-05
6.75777e-05
6.93829e-05
7.1554e-05
7.40817e-05
7.69709e-05
8.02393e-05
8.39221e-05
8.80854e-05
9.2851e-05
9.82477e-05
0.000104178
0.000110716
0.000117934
0.000125827
0.000135217
0.000138442
0.000135265
0.000127124
0.000118449
0.000344048
0.00040436
0.000239124
)
;
    }
    sWall
    {
        type            nutkWallFunction;
        Cmu             0.09;
        kappa           0.41;
        E               9.8;
        value           uniform 0.00021076;
    }
    nWall
    {
        type            nutkWallFunction;
        Cmu             0.09;
        kappa           0.41;
        E               9.8;
        value           nonuniform List<scalar> 6(9.60961e-05 0.000100074 0.00011231 0.000137051 0.000139295 0.000118454);
    }
    sideWalls
    {
        type            empty;
    }
    glass1
    {
        type            nutkWallFunction;
        Cmu             0.09;
        kappa           0.41;
        E               9.8;
        value           nonuniform List<scalar> 9(0.000122429 0.000167417 0.000204298 0.000239445 0.000274785 0.000311576 0.000345496 0.000352586 0.00034447);
    }
    glass2
    {
        type            nutkWallFunction;
        Cmu             0.09;
        kappa           0.41;
        E               9.8;
        value           nonuniform List<scalar> 2(0.000174629 0.000164568);
    }
    sun
    {
        type            nutkWallFunction;
        Cmu             0.09;
        kappa           0.41;
        E               9.8;
        value           nonuniform List<scalar> 
14
(
0.000122349
0.000132432
0.000134088
0.000139968
0.000145322
0.000150224
0.000154887
0.000159582
0.000163468
0.000165748
0.000165836
0.000163256
0.000157903
0.00015046
)
;
    }
    heatsource1
    {
        type            nutkWallFunction;
        Cmu             0.09;
        kappa           0.41;
        E               9.8;
        value           nonuniform List<scalar> 3(7.07565e-05 8.58022e-05 9.60957e-05);
    }
    heatsource2
    {
        type            nutkWallFunction;
        Cmu             0.09;
        kappa           0.41;
        E               9.8;
        value           nonuniform List<scalar> 4(0.000144043 9.54326e-05 9.54326e-05 0.000139339);
    }
    Table_master
    {
        type            nutkWallFunction;
        Cmu             0.09;
        kappa           0.41;
        E               9.8;
        value           nonuniform List<scalar> 9(8.42394e-05 7.50749e-05 6.75703e-05 6.13955e-05 5.62705e-05 5.19772e-05 4.83554e-05 4.53011e-05 4.27708e-05);
    }
    Table_slave
    {
        type            nutkWallFunction;
        Cmu             0.09;
        kappa           0.41;
        E               9.8;
        value           nonuniform List<scalar> 9(9.4223e-05 8.69172e-05 8.18577e-05 7.81034e-05 7.48729e-05 7.1639e-05 6.84823e-05 6.50664e-05 6.09403e-05);
    }
    inlet
    {
        type            calculated;
        value           uniform 0.000100623;
    }
    outlet
    {
        type            calculated;
        value           nonuniform List<scalar> 2(0.00179382 0.00189854);
    }
}


// ************************************************************************* //
