/*--------------------------------*- C++ -*----------------------------------*\
  =========                 |
  \\      /  F ield         | OpenFOAM: The Open Source CFD Toolbox
   \\    /   O peration     | Website:  https://openfoam.org
    \\  /    A nd           | Version:  6
     \\/     M anipulation  |
\*---------------------------------------------------------------------------*/
FoamFile
{
    version     2.0;
    format      ascii;
    class       surfaceScalarField;
    location    "500";
    object      phi;
}
// * * * * * * * * * * * * * * * * * * * * * * * * * * * * * * * * * * * * * //

dimensions      [1 0 -1 0 0 0 0];

internalField   nonuniform List<scalar> 
852
(
-0.00289348
0.00295066
-0.00385251
0.00095904
-0.00461422
0.000761727
-0.00523778
0.000623566
-0.00569487
0.000457101
-0.00596596
0.000271096
-0.00602869
6.27415e-05
-0.00585819
-0.000170487
-0.00544076
-0.000417422
-0.00479589
-0.000644854
-0.0039783
-0.000817585
-0.00306346
-0.000914827
-0.0021193
-0.000944154
-0.00114624
-0.000973044
-0.00114477
-0.000588452
0.000591364
-0.000171242
-0.000417197
0.000440259
-0.000611488
0.000864626
-0.000424355
0.00112381
-0.000259171
0.00127208
-0.000148262
0.00134648
-7.43826e-05
0.00138216
-3.56715e-05
0.00140066
-1.84831e-05
0.00140984
-9.17109e-06
0.00141254
-2.67996e-06
0.00140949
3.05955e-06
0.00139845
1.10592e-05
0.00137098
2.748e-05
0.00130525
6.57447e-05
0.00116527
0.000139997
0.000940571
0.00022471
0.00068269
0.000257896
0.00068664
-0.00206357
0.00516788
-0.00302158
0.00191706
-0.00381273
0.00155289
-0.00442533
0.00123618
-0.00487087
0.000902649
-0.00514224
0.000542483
-0.00521672
0.000137226
-0.00506736
-0.000319831
-0.00468619
-0.000798587
-0.00410415
-0.00122688
-0.00338568
-0.00153605
-0.00260879
-0.00169171
-0.00185384
-0.00169909
-0.00123479
-0.00159209
-0.00104855
-0.00133099
-0.000294991
-0.000753605
-0.000295031
0.000579473
1.99911e-05
0.000953633
-0.000791346
0.00114399
-0.000801834
0.00131765
-0.000598001
0.00144056
-0.000382072
0.00150228
-0.000209964
0.00150684
-7.89342e-05
0.00150804
-3.68587e-05
0.00151001
-2.04409e-05
0.00151172
-1.08678e-05
0.00151275
-3.69797e-06
0.00151283
2.99068e-06
0.00151101
1.28975e-05
0.00150369
3.48112e-05
0.00146232
0.000107131
0.00128854
0.000313786
0.000989166
0.000524104
0.00061686
0.000630216
0.00131344
-0.00145059
0.00685294
-0.00229185
0.00275833
-0.00299426
0.00225532
-0.0035151
0.00175702
-0.0039018
0.00128936
-0.00414816
0.00078885
-0.00421997
0.000209051
-0.00407245
-0.000467349
-0.00369959
-0.00117144
-0.00315116
-0.0017753
-0.00250234
-0.00218487
-0.00182799
-0.00236605
-0.00119865
-0.00232842
-0.000684795
-0.00210593
-0.00032744
-0.00168833
1.62027e-05
-0.00109724
-0.000278818
0.00138474
-0.00135644
0.00159843
-0.00100502
0.00158909
-0.000792481
0.00159889
-0.00060779
0.00162281
-0.00040598
0.00161097
-0.000198108
0.0015322
0.00149551
0.00147523
0.00146453
0.001461
0.00146416
0.00147722
0.0015122
0.0016195
0.00133897
0.000594328
0.000994632
0.000868454
0.000552962
0.0010719
0.00188143
-0.00102301
0.00817871
-0.00170836
0.00344369
-0.00217226
0.00271923
-0.00251566
0.00210044
-0.00278066
0.00155437
-0.00295615
0.000964349
-0.00298892
0.000241826
-0.00280774
-0.000648514
-0.00242516
-0.00155401
-0.00192035
-0.0022801
-0.0013727
-0.00273251
-0.000841503
-0.00289724
-0.000368628
-0.00280128
3.01046e-05
-0.00250466
0.000379377
-0.0020376
0.000761434
-0.00147928
0.00142094
-0.000938312
0.00215309
-0.000724253
0.00171003
-0.000913368
0.00162338
-0.000918364
0.00156882
-0.000737911
0.001527
-0.000565954
0.00152533
-0.000404305
0.00157214
-0.000244904
0.00168946
-0.000117461
0.00178381
-9.44907e-05
0.00186891
-8.52341e-05
0.00193994
-7.11751e-05
0.00198043
-4.06305e-05
0.00196639
1.39012e-05
0.00187196
9.42916e-05
0.00166575
0.00020607
0.00129528
0.000370337
0.00115611
0.000733508
0.000853122
0.00117146
0.00038156
0.00154348
0.00228262
-0.000724693
0.00926384
-0.00126419
0.00398319
-0.00136641
0.00282146
-0.00145397
0.002188
-0.00153411
0.00163452
-0.0015821
0.00101236
-0.0015033
0.000163038
-0.00123212
-0.000919691
-0.000843317
-0.0019428
-0.000427251
-0.00269616
-4.14281e-05
-0.00311832
0.000282163
-0.00322082
0.000534891
-0.003054
0.000728526
-0.00269828
0.000906292
-0.00221535
0.00111098
-0.00168396
0.00137752
-0.00120485
0.00156902
-0.000915745
0.00149263
-0.000836965
0.00134718
-0.000772902
0.00124477
-0.000635488
0.00117539
-0.000496562
0.00114701
-0.000375917
0.00117105
-0.000268927
0.00125128
-0.000197676
0.00133297
-0.000176171
0.00141751
-0.000169764
0.00149886
-0.000152509
0.00156426
-0.000106022
0.00159267
-1.44892e-05
0.00156268
0.000124293
0.00146385
0.000304916
0.00129901
0.000535186
0.0011506
0.000881939
0.000986897
0.00133517
0.000629685
0.0019007
0.000496391
0.00241593
-0.00101895
0.00151515
-0.00147651
0.000457366
-0.00142826
-0.000638385
0.0103112
-0.00102864
0.00437346
-0.000633757
0.00242658
-0.000349975
0.00190423
-0.000177397
0.00146195
-1.32814e-05
0.000848251
0.000274865
-0.000125096
0.000658019
-0.00130284
0.0010003
-0.00228508
0.00124922
-0.00294507
0.00139217
-0.00326126
0.00144101
-0.00326966
0.00142304
-0.00303602
0.00136288
-0.00263812
0.00129604
-0.0021485
0.00125191
-0.00163982
0.00123468
-0.00118761
0.00119031
-0.000871364
0.0010605
-0.000707141
0.000890358
-0.000602751
0.000755883
-0.000501001
0.000670934
-0.0004116
0.000636862
-0.000341833
0.000656158
-0.00028821
0.000717385
-0.00025889
0.000796469
-0.000255242
0.000885142
-0.000258423
0.000979327
-0.00024668
0.00107285
-0.00019953
0.00115365
-9.52742e-05
0.00120188
7.60683e-05
0.0012133
0.000293516
0.00119942
0.000549081
0.00121052
0.000870851
0.00129513
0.00125057
0.00146524
0.00173061
0.0018941
0.00198709
0.00214326
0.00126601
0.00175283
0.000847813
0.000382662
-0.000735169
0.0114987
-0.000656175
0.00429448
0.000404589
0.00136583
0.0010326
0.00127623
0.00144357
0.001051
0.00191306
0.000378772
0.00242054
-0.000632557
0.00279555
-0.00167784
0.00298065
-0.00247017
0.00297461
-0.00293902
0.0028079
-0.00309455
0.00252669
-0.00298844
0.00218177
-0.0026911
0.00181666
-0.002273
0.0014693
-0.00180113
0.00116583
-0.00133634
0.000912004
-0.000933771
0.000693444
-0.000652793
0.000483026
-0.000496711
0.000296583
-0.000416295
0.00016008
-0.000364486
7.85871e-05
-0.000330094
4.65293e-05
-0.000309762
5.83581e-05
-0.000300025
0.000102072
-0.000302591
0.000162965
-0.000316121
0.000234274
-0.000329718
0.000316957
-0.000329351
0.00041611
-0.000298669
0.000536662
-0.000215812
0.000665248
-5.25042e-05
0.000789379
0.000169398
0.000919622
0.000418852
0.00109895
0.000691534
0.0013771
0.00097243
0.00181784
0.00128989
0.00248205
0.0013229
0.00301813
0.000729942
0.00305023
0.000815728
0.00349632
0.00250998
0.00949417
0.00315336
0.0036511
0.0034043
0.00111491
0.00374741
0.00093312
0.0041423
0.000656119
0.00466921
-0.000148122
0.00510309
-0.00106643
0.00522169
-0.00179643
0.00502535
-0.00227382
0.00458073
-0.00249439
0.00396966
-0.00248347
0.00327303
-0.00229181
0.00256076
-0.00197883
0.00188126
-0.00159349
0.00127063
-0.00119049
0.000753341
-0.000819045
0.000336076
-0.000516494
2.20573e-05
-0.000338762
-0.000209222
-0.000265419
-0.000374056
-0.000251448
-0.000486112
-0.000252416
-0.000556658
-0.000259534
-0.000595245
-0.000271161
-0.000608878
-0.000286379
-0.000605828
-0.000305627
-0.000594613
-0.000327323
-0.000578787
-0.000345531
-0.000555906
-0.000352218
-0.000516645
-0.000337916
-0.000440903
-0.000291541
-0.000295391
-0.000198002
-0.000101542
-2.44374e-05
0.000119757
0.000197567
0.000394431
0.000416874
0.00073709
0.000629786
0.00119139
0.000835604
0.00168696
0.000827332
0.00189081
0.000526114
0.00111976
0.00158679
0.00487277
0.0100481
0.0136912
0.012322
0.00248413
0.0112825
0.00197257
0.0105363
0.00140238
0.00983856
0.000549583
0.0089384
-0.00016626
0.00785259
-0.000710626
0.00666987
-0.0010911
0.00545617
-0.00128069
0.00426521
-0.00129251
0.00314598
-0.00117257
0.00213778
-0.000970628
0.00125226
-0.000707955
0.000500107
-0.000438327
-9.2771e-05
-0.000226156
-0.000503241
-0.000106012
-0.000758155
-8.38349e-05
-0.000924901
-9.86599e-05
-0.00104838
-0.000127955
-0.00114452
-0.00015626
-0.00122217
-0.000181877
-0.00128762
-0.000205694
-0.00134628
-0.000227709
-0.00140438
-0.000247513
-0.00146888
-0.000262811
-0.00154607
-0.000268325
-0.00164232
-0.000255955
-0.00176568
-0.000214541
-0.00192701
-0.000130197
-0.00213444
9.44468e-06
-0.00237122
0.000212356
-0.00266387
0.000490225
-0.00310597
0.000858987
-0.00379257
0.0013164
-0.00478881
0.00183186
-0.00620924
0.00224777
-0.00792673
0.00224362
-0.00743591
0.00109598
-0.00227863
0.00477926
0.00380782
0.00426092
0.00249089
0.00499726
0.000666002
0.0051557
0.000391102
0.00484876
0.000140659
0.00430859
-0.000170467
0.00360848
-0.000391001
0.00280198
-0.000474184
0.0019494
-0.000439923
0.00110963
-0.000332799
0.000321098
-0.000182081
-0.000369432
-1.74122e-05
-0.000888651
8.09051e-05
-0.0012139
9.91108e-05
-0.00139734
7.74338e-05
-0.00151542
3.42581e-05
-0.00160741
-6.65455e-06
-0.00169312
-4.2228e-05
-0.00177839
-7.09765e-05
-0.00186603
-9.42261e-05
-0.00195744
-0.000114264
-0.00205451
-0.000130623
-0.00215952
-0.000142495
-0.00227445
-0.000147861
-0.00239994
-0.000142828
-0.00253434
-0.000121544
-0.00267257
-7.62947e-05
-0.0028056
2.85012e-06
-0.00292077
0.00012463
-0.00301408
0.000305674
-0.00309656
0.000572727
-0.00317683
0.000939264
-0.00325382
0.00139341
-0.00328272
0.00186077
-0.00320846
0.00217352
-0.00285697
0.00189214
-0.0015859
-0.000175076
-0.00378976
-0.000578735
0.00444447
0.000578128
0.001334
0.00066807
0.000576045
0.000713235
0.00034593
0.000673262
0.000180634
0.000462335
4.04666e-05
8.99879e-05
-1.86439e-05
-0.000390342
6.16278e-06
-0.000888662
5.8411e-05
-0.00132901
0.00010756
-0.00165973
0.000148657
-0.00184953
0.000172398
-0.0019378
0.000169189
-0.00198237
0.000143697
-0.00201267
0.000107739
-0.00204817
6.97784e-05
-0.00209206
3.72446e-05
-0.00214687
1.25946e-05
-0.00221103
-6.79434e-06
-0.00228339
-2.18511e-05
-0.00236351
-3.41327e-05
-0.00245016
-4.39637e-05
-0.00254152
-5.11174e-05
-0.0026347
-5.46637e-05
-0.00272484
-5.26799e-05
-0.00280428
-4.20834e-05
-0.00286182
-1.8741e-05
-0.00288293
2.39744e-05
-0.00285708
9.8788e-05
-0.00276265
0.000211259
-0.00256691
0.000376999
-0.00224325
0.000615623
-0.00177641
0.000926587
-0.00114357
0.00122794
-0.000167987
0.00119796
0.00115286
0.000571315
0.00158357
-0.000605773
-0.00212415
-0.00738563
-0.0102125
-0.00572525
-0.00436895
-0.00377819
-0.0034217
-0.00323361
-0.00318816
-0.00320372
-0.003196
-0.00313726
-0.00303044
-0.0028835
-0.00271374
-0.002548
-0.00240841
-0.00230527
-0.0022404
-0.00220826
-0.00220089
-0.00221297
-0.00224014
-0.00227958
-0.00232883
-0.00238519
-0.00244503
-0.00250281
-0.0025499
-0.00257353
-0.00255431
-0.00246014
-0.00225334
-0.00188066
-0.00126923
-0.000346719
0.000877204
0.00207107
0.00263812
0.00202783
)
;

boundaryField
{
    floor
    {
        type            calculated;
        value           nonuniform List<scalar> 
29
(
0
0
0
0
0
0
0
0
0
0
0
0
0
0
0
0
0
0
0
0
-3.93485e-06
-9.92279e-06
-1.50128e-05
-1.96233e-05
-1.46913e-06
-2.90019e-06
-8.08652e-06
-8.30639e-06
-7.88465e-06
)
;
    }
    ceiling
    {
        type            calculated;
        value           nonuniform List<scalar> 
43
(
-4.5386e-05
-4.40779e-05
-4.27648e-05
-2.22877e-05
-1.47054e-05
-1.05481e-05
-7.44134e-06
-4.97045e-06
-3.07131e-06
-1.54514e-06
-3.17172e-07
7.52219e-07
1.7315e-06
2.6475e-06
3.46405e-06
4.12733e-06
4.60671e-06
4.92354e-06
5.12116e-06
5.23837e-06
5.3006e-06
5.32473e-06
5.32361e-06
5.30029e-06
5.25664e-06
5.19413e-06
5.11393e-06
5.01688e-06
4.90306e-06
4.77094e-06
4.62517e-06
4.47787e-06
4.33408e-06
4.20085e-06
4.09151e-06
4.03036e-06
4.1055e-06
4.27843e-06
4.53418e-06
5.58673e-06
1.1194e-05
8.06231e-06
-5.79324e-05
)
;
    }
    sWall
    {
        type            calculated;
        value           uniform -0.000273298;
    }
    nWall
    {
        type            calculated;
        value           nonuniform List<scalar> 6(-4.84384e-05 -5.80774e-05 -6.34167e-05 -7.47574e-05 -8.20288e-05 -0.000101899);
    }
    sideWalls
    {
        type            empty;
        value           nonuniform 0();
    }
    glass1
    {
        type            calculated;
        value           nonuniform List<scalar> 9(-5.717e-05 -0.00015365 -0.00023445 -0.000302758 -0.000360428 -0.000408919 -0.000452338 -0.000505468 -0.000565135);
    }
    glass2
    {
        type            calculated;
        value           nonuniform List<scalar> 2(-0.000256677 -0.000284493);
    }
    sun
    {
        type            calculated;
        value           uniform 0;
    }
    heatsource1
    {
        type            calculated;
        value           nonuniform List<scalar> 3(2.04116e-07 2.0406e-07 2.04074e-07);
    }
    heatsource2
    {
        type            calculated;
        value           nonuniform List<scalar> 4(5.10594e-08 5.12027e-08 0 0);
    }
    Table_master
    {
        type            calculated;
        value           nonuniform List<scalar> 9(-1.53085e-07 -1.53145e-07 -1.53168e-07 -1.53184e-07 -1.53196e-07 -1.53204e-07 -1.53206e-07 -1.532e-07 -1.5317e-07);
    }
    Table_slave
    {
        type            calculated;
        value           nonuniform List<scalar> 9(1.52975e-07 1.52985e-07 1.52961e-07 1.5294e-07 1.52931e-07 1.52936e-07 1.52948e-07 1.52989e-07 1.5307e-07);
    }
    inlet
    {
        type            calculated;
        value           uniform -0.00610297;
    }
    outlet
    {
        type            calculated;
        value           nonuniform List<scalar> 2(0.00770432 0.00287094);
    }
}


// ************************************************************************* //
