/*--------------------------------*- C++ -*----------------------------------*\
  =========                 |
  \\      /  F ield         | OpenFOAM: The Open Source CFD Toolbox
   \\    /   O peration     | Website:  https://openfoam.org
    \\  /    A nd           | Version:  6
     \\/     M anipulation  |
\*---------------------------------------------------------------------------*/
FoamFile
{
    version     2.0;
    format      ascii;
    class       volScalarField;
    location    "300";
    object      epsilon;
}
// * * * * * * * * * * * * * * * * * * * * * * * * * * * * * * * * * * * * * //

dimensions      [0 2 -3 0 0 0 0];

internalField   nonuniform List<scalar> 
459
(
0.000147797
0.000162623
0.000138176
0.000154676
0.000172246
0.000189499
0.000206452
0.000223484
0.000241298
0.000259997
0.000275668
0.000286403
0.000290644
0.000287994
0.000276808
5.19091e-05
8.86427e-05
6.49899e-05
6.26356e-05
6.53444e-05
4.25441e-05
1.97006e-05
7.9295e-06
6.14913e-06
6.07852e-06
6.73998e-06
6.32812e-06
5.46367e-06
4.64516e-06
6.0511e-06
1.47746e-05
2.18643e-05
2.17289e-05
1.69596e-05
0.000663597
0.00152241
0.000159053
0.000119405
0.000122303
0.000128148
0.000135522
0.00014546
0.000159155
0.000177124
0.000197189
0.000217516
0.000235043
0.000246389
0.000258297
0.000334034
0.000105514
0.000113768
0.000199296
7.87957e-05
6.77164e-05
7.58785e-05
8.60464e-05
5.59885e-05
3.48132e-05
2.41071e-05
1.93529e-05
1.60293e-05
1.30367e-05
9.84566e-06
7.08909e-06
8.28615e-06
3.22794e-05
5.1985e-05
7.76873e-05
4.61865e-05
0.00163058
0.0050206
0.000336632
0.000130188
0.000122526
0.000128285
0.000137279
0.000149607
0.000165648
0.000185291
0.000206193
0.000225614
0.000241377
0.000253661
0.000268778
0.000306263
0.000411223
0.000240117
0.000245579
0.00010975
9.03713e-05
9.40166e-05
0.000107252
0.00010486
5.96202e-05
4.02597e-05
2.9763e-05
2.30178e-05
1.81843e-05
1.43119e-05
1.11223e-05
1.37563e-05
8.59752e-05
0.000123257
0.000123826
5.50731e-05
0.00319267
0.0112297
0.000779188
0.000160315
0.000131292
0.000138253
0.000150125
0.000165469
0.000184579
0.000207508
0.000231054
0.00024987
0.000262341
0.000271531
0.000285345
0.000319485
0.000403583
0.00056335
0.000308811
0.000160799
0.000112955
9.66284e-05
9.82552e-05
0.000117705
0.000206198
0.000173086
0.000165682
0.000168496
0.000177038
0.00018635
0.000189651
0.000179065
0.000160972
0.000138634
0.000150383
0.000336698
0.000243887
0.00539952
0.0197597
0.00174326
0.000224081
0.000143721
0.000150685
0.000168208
0.000191591
0.000220945
0.000255926
0.000290138
0.000312541
0.000322021
0.00032279
0.000318535
0.000311056
0.000301377
0.000275681
0.000195622
0.000138053
0.000109664
0.000102051
0.000105716
0.000114172
0.000130622
0.000120705
0.000117092
0.000122811
0.000133968
0.000146504
0.000154687
0.000152385
0.000138768
0.00012768
0.000127643
0.000183899
0.000275047
0.000318306
0.000214897
0.000348198
0.00831245
0.0278855
0.00376174
0.00043326
0.000188552
0.000176637
0.000195644
0.0002287
0.000275426
0.00033736
0.000389607
0.000413553
0.00041582
0.000407017
0.000391679
0.000366169
0.000322681
0.000260454
0.000193376
0.000143282
0.000119397
0.000116896
0.000123208
0.000128489
0.00014114
0.000133544
0.000133092
0.000145634
0.000167736
0.000195342
0.000221837
0.000237541
0.000228228
0.000194265
0.000167333
0.000165643
0.000191382
0.000215228
0.000387951
0.000449527
0.0119365
0.0318463
0.00826221
0.00173818
0.000605472
0.000366217
0.000322191
0.000340537
0.000395367
0.000501087
0.000555214
0.000556443
0.000530833
0.00049709
0.000462004
0.000421209
0.000364569
0.000290956
0.000219072
0.000167917
0.000145523
0.000144977
0.000150635
0.000148611
0.000169469
0.000164552
0.000165093
0.000183172
0.000217134
0.00026431
0.000319977
0.000376148
0.000418058
0.000392411
0.000356353
0.000359266
0.000408417
0.000474198
0.000794971
0.000819871
0.0129319
0.03972
0.0186381
0.00986212
0.00477499
0.0022691
0.00130692
0.000980049
0.00089586
0.000892395
0.000832825
0.000748823
0.000663126
0.000586179
0.000520136
0.00046073
0.000398224
0.000324473
0.000257287
0.000210487
0.000191314
0.000193639
0.000194681
0.0001761
0.000216719
0.000219901
0.000220758
0.000240657
0.000283352
0.000348862
0.000438195
0.000554407
0.000702123
0.000889878
0.00106353
0.001446
0.00215713
0.00277237
0.00655877
0.00183454
0.0119758
0.0208083
0.0163434
0.011954
0.00832929
0.00553685
0.003677
0.00255146
0.0019059
0.00146259
0.00115386
0.000934387
0.000774106
0.000653245
0.000559085
0.000483014
0.000417972
0.00035925
0.000309594
0.000276917
0.000267808
0.000276358
0.000265079
0.000213294
0.00028673
0.000312425
0.000310979
0.000323652
0.000364028
0.000431978
0.00053186
0.000673128
0.000862737
0.00109869
0.00138362
0.00171596
0.0020714
0.00236692
0.00265645
0.00151848
0.00663895
0.00839187
0.0067094
0.00498378
0.00362536
0.00265742
0.00199649
0.00153968
0.00121917
0.000988857
0.000818217
0.000688046
0.000587122
0.00050943
0.00045182
0.000412477
0.000390537
0.000386324
0.000402335
0.000421995
0.000374375
0.000263212
0.000385385
0.000480875
0.000474437
0.000463643
0.000484861
0.000523641
0.000577039
0.00065766
0.000784637
0.000964252
0.00117578
0.00136952
0.00148129
0.00143798
0.00125637
0.000806894
0.00484102
0.00753005
0.00601292
0.00445914
0.00335363
0.0025342
0.00193213
0.00149276
0.00117078
0.000931391
0.000752775
0.000620559
0.000525651
0.000462994
0.000430641
0.000428093
0.000452808
0.000496838
0.000546981
0.000575722
0.00050803
0.000327611
0.000520268
0.000675495
0.0006821
0.000654923
0.000639453
0.000631953
0.00064047
0.000683377
0.000788013
0.000958358
0.00118067
0.00141362
0.00158515
0.00169784
0.00102068
0.000852828
0.00327758
0.00377984
0.00425825
0.00502512
0.00426381
0.00322304
0.00258023
0.002082
0.0016864
0.00137238
0.00112603
0.00093973
0.000791101
0.000669394
0.00056923
0.000487957
0.000424411
0.000378223
0.000349103
0.000335781
0.000335487
0.000341087
0.000326208
0.000304502
0.000385494
0.000444377
0.000439806
0.00043605
0.000444049
0.000461884
0.000496621
0.000564241
0.000664021
0.000804636
0.000985917
0.00121258
0.00130275
0.00120362
0.000943283
0.000731203
)
;

boundaryField
{
    floor
    {
        Cmu             0.09;
        kappa           0.41;
        E               9.8;
        type            epsilonWallFunction;
        value           nonuniform List<scalar> 
29
(
0.000276808
5.19091e-05
8.86427e-05
6.49899e-05
6.26356e-05
6.53444e-05
4.25441e-05
1.97006e-05
7.9295e-06
6.14913e-06
6.07852e-06
6.73998e-06
6.32812e-06
5.46367e-06
4.64516e-06
6.0511e-06
1.47746e-05
2.18643e-05
2.17289e-05
1.69596e-05
1.69596e-05
4.61865e-05
5.50731e-05
0.000243887
0.000276808
5.19091e-05
0.000113768
0.000240117
0.00056335
)
;
    }
    ceiling
    {
        Cmu             0.09;
        kappa           0.41;
        E               9.8;
        type            epsilonWallFunction;
        value           nonuniform List<scalar> 
43
(
0.00327758
0.00377984
0.00425825
0.00502512
0.00426381
0.00322304
0.00258023
0.002082
0.0016864
0.00137238
0.00112603
0.00093973
0.000791101
0.000669394
0.00056923
0.000487957
0.000424411
0.000378223
0.000349103
0.000335781
0.000335487
0.000341087
0.000326208
0.000304502
0.000385494
0.000444377
0.000439806
0.00043605
0.000444049
0.000461884
0.000496621
0.000564241
0.000664021
0.000804636
0.000985917
0.00121258
0.00130275
0.00120362
0.000943283
0.000731203
0.0119758
0.0208083
0.00484102
)
;
    }
    sWall
    {
        Cmu             0.09;
        kappa           0.41;
        E               9.8;
        type            epsilonWallFunction;
        value           uniform 0.00327758;
    }
    nWall
    {
        Cmu             0.09;
        kappa           0.41;
        E               9.8;
        type            epsilonWallFunction;
        value           nonuniform List<scalar> 6(0.000348198 0.000449527 0.000819871 0.000806894 0.000852828 0.000731203);
    }
    sideWalls
    {
        type            empty;
    }
    glass1
    {
        Cmu             0.09;
        kappa           0.41;
        E               9.8;
        type            epsilonWallFunction;
        value           nonuniform List<scalar> 9(0.000147797 0.000663597 0.00163058 0.00319267 0.00539952 0.00831245 0.0119365 0.0129319 0.0119758);
    }
    glass2
    {
        Cmu             0.09;
        kappa           0.41;
        E               9.8;
        type            epsilonWallFunction;
        value           nonuniform List<scalar> 2(0.00183454 0.00151848);
    }
    sun
    {
        Cmu             0.09;
        kappa           0.41;
        E               9.8;
        type            epsilonWallFunction;
        value           nonuniform List<scalar> 
14
(
0.000147797
0.000162623
0.000138176
0.000154676
0.000172246
0.000189499
0.000206452
0.000223484
0.000241298
0.000259997
0.000275668
0.000286403
0.000290644
0.000287994
)
;
    }
    heatsource1
    {
        Cmu             0.09;
        kappa           0.41;
        E               9.8;
        type            epsilonWallFunction;
        value           nonuniform List<scalar> 3(0.000318306 0.000214897 0.000348198);
    }
    heatsource2
    {
        Cmu             0.09;
        kappa           0.41;
        E               9.8;
        type            epsilonWallFunction;
        value           nonuniform List<scalar> 4(0.000334034 0.000105514 0.000105514 0.000411223);
    }
    Table_master
    {
        Cmu             0.09;
        kappa           0.41;
        E               9.8;
        type            epsilonWallFunction;
        value           nonuniform List<scalar> 9(0.00010486 5.96202e-05 4.02597e-05 2.9763e-05 2.30178e-05 1.81843e-05 1.43119e-05 1.11223e-05 1.37563e-05);
    }
    Table_slave
    {
        Cmu             0.09;
        kappa           0.41;
        E               9.8;
        type            epsilonWallFunction;
        value           nonuniform List<scalar> 9(0.000206198 0.000173086 0.000165682 0.000168496 0.000177038 0.00018635 0.000189651 0.000179065 0.000160972);
    }
    inlet
    {
        type            turbulentMixingLengthDissipationRateInlet;
        mixingLength    0.01;
        phi             phi;
        k               k;
        value           uniform 0.000101881;
    }
    outlet
    {
        type            zeroGradient;
    }
}


// ************************************************************************* //
