// -*- C++ -*-
// File generated by PyFoam - sorry for the ugliness

FoamFile
{
 version 2.0;
 format ascii;
 class volScalarField;
 location "300";
 object T;
}

dimensions [ 0 0 0 1 0 0 0 ];

internalField nonuniform List<scalar> 459
(
  301.998
  301.632
  301.622
  301.624
  301.626
  301.628
  301.629
  301.629
  301.63
  301.63
  301.628
  301.624
  301.618
  301.611
  301.605
  301.412
  301.411
  301.429
  301.445
  301.448
  301.366
  301.14
  300.894
  300.852
  300.847
  300.853
  300.852
  300.855
  300.868
  300.875
  300.873
  300.862
  300.85
  300.857
  302.251
  301.668
  301.635
  301.641
  301.649
  301.655
  301.661
  301.665
  301.668
  301.67
  301.667
  301.659
  301.644
  301.624
  301.598
  301.574
  301.499
  301.409
  301.428
  301.457
  301.485
  301.498
  301.468
  301.324
  301.19
  301.101
  301.042
  300.987
  300.952
  300.935
  300.932
  300.925
  300.912
  300.882
  300.853
  300.855
  302.492
  301.727
  301.662
  301.673
  301.688
  301.702
  301.714
  301.724
  301.731
  301.734
  301.731
  301.718
  301.695
  301.663
  301.624
  301.585
  301.553
  301.44
  301.473
  301.506
  301.533
  301.545
  301.541
  301.438
  301.335
  301.268
  301.218
  301.177
  301.137
  301.097
  301.054
  300.997
  300.968
  300.909
  300.883
  300.873
  302.715
  301.803
  301.694
  301.706
  301.729
  301.753
  301.774
  301.793
  301.807
  301.813
  301.81
  301.794
  301.764
  301.722
  301.672
  301.618
  301.566
  301.526
  301.495
  301.527
  301.556
  301.571
  301.577
  301.572
  301.561
  301.539
  301.531
  301.526
  301.523
  301.521
  301.519
  301.515
  301.507
  301.43
  301.307
  301.19
  301.14
  302.92
  301.893
  301.732
  301.734
  301.765
  301.798
  301.83
  301.86
  301.884
  301.898
  301.9
  301.883
  301.849
  301.801
  301.746
  301.692
  301.645
  301.61
  301.589
  301.589
  301.595
  301.599
  301.599
  301.593
  301.576
  301.558
  301.55
  301.547
  301.547
  301.548
  301.547
  301.543
  301.532
  301.502
  301.436
  301.346
  301.283
  301.283
  301.396
  301.463
  303.096
  302.002
  301.793
  301.763
  301.791
  301.829
  301.869
  301.91
  301.947
  301.974
  301.984
  301.97
  301.934
  301.882
  301.823
  301.764
  301.713
  301.673
  301.647
  301.632
  301.625
  301.621
  301.617
  301.609
  301.588
  301.571
  301.565
  301.565
  301.568
  301.571
  301.573
  301.57
  301.56
  301.537
  301.496
  301.437
  301.381
  301.347
  301.36
  301.394
  303.235
  302.18
  301.958
  301.851
  301.834
  301.858
  301.895
  301.937
  301.981
  302.027
  302.049
  302.04
  302.004
  301.952
  301.891
  301.83
  301.774
  301.727
  301.692
  301.667
  301.65
  301.638
  301.631
  301.623
  301.597
  301.581
  301.578
  301.581
  301.587
  301.593
  301.597
  301.595
  301.587
  301.565
  301.532
  301.49
  301.448
  301.414
  301.4
  301.419
  303.477
  302.673
  302.438
  302.22
  302.071
  301.999
  301.984
  301.999
  302.03
  302.077
  302.094
  302.079
  302.043
  301.993
  301.936
  301.878
  301.822
  301.77
  301.73
  301.697
  301.672
  301.654
  301.643
  301.635
  301.605
  301.591
  301.59
  301.597
  301.605
  301.613
  301.617
  301.618
  301.612
  301.598
  301.562
  301.533
  301.509
  301.491
  301.485
  301.655
  303.814
  303.471
  303.193
  302.909
  302.659
  302.471
  302.346
  302.271
  302.232
  302.194
  302.146
  302.093
  302.039
  301.985
  301.934
  301.884
  301.837
  301.793
  301.754
  301.72
  301.691
  301.668
  301.653
  301.646
  301.613
  301.599
  301.602
  301.611
  301.621
  301.629
  301.636
  301.641
  301.644
  301.649
  301.657
  301.671
  301.699
  301.734
  301.769
  301.855
  297.801
  300.303
  301.433
  301.821
  301.959
  302.007
  302.016
  302.008
  301.991
  301.965
  301.935
  301.902
  301.87
  301.838
  301.807
  301.778
  301.749
  301.723
  301.698
  301.677
  301.663
  301.655
  301.621
  301.608
  301.613
  301.623
  301.633
  301.643
  301.652
  301.661
  301.67
  301.679
  301.689
  301.705
  301.727
  301.752
  301.771
  301.784
  298.276
  300.261
  301.092
  301.478
  301.66
  301.742
  301.776
  301.785
  301.788
  301.785
  301.779
  301.771
  301.762
  301.751
  301.74
  301.729
  301.718
  301.705
  301.693
  301.681
  301.672
  301.663
  301.63
  301.619
  301.626
  301.635
  301.641
  301.648
  301.656
  301.664
  301.672
  301.681
  301.692
  301.705
  301.721
  301.738
  301.73
  301.764
  299.464
  299.413
  299.411
  300.616
  301.113
  301.449
  301.55
  301.599
  301.626
  301.639
  301.647
  301.654
  301.66
  301.665
  301.67
  301.675
  301.679
  301.683
  301.687
  301.689
  301.691
  301.69
  301.689
  301.674
  301.654
  301.654
  301.66
  301.665
  301.669
  301.673
  301.676
  301.678
  301.681
  301.685
  301.69
  301.7
  301.71
  301.716
  301.717
  301.754
)
;

boundaryField
{
  floor
  {
    type wallHeatTransfer;
    Tinf uniform 305.2;
    alphaWall uniform 0.24;
    value nonuniform List<scalar> 29
(
  302.031
  302.078
  302
  302.059
  302.078
  302.074
  302.071
  302.021
  302.015
  302.04
  302.039
  302.02
  302.034
  302.069
  302.115
  302.061
  301.869
  301.783
  301.774
  301.829
  301.829
  301.639
  301.623
  301.636
  302.031
  302.078
  301.966
  301.901
  301.89
)
;
  }
  ceiling
  {
    type wallHeatTransfer;
    Tinf uniform 303.2;
    alphaWall uniform 0.24;
    value nonuniform List<scalar> 43
(
  299.696
  299.639
  299.629
  300.759
  301.234
  301.558
  301.659
  301.712
  301.743
  301.762
  301.776
  301.788
  301.8
  301.811
  301.822
  301.832
  301.841
  301.849
  301.856
  301.86
  301.861
  301.86
  301.861
  301.851
  301.823
  301.817
  301.823
  301.828
  301.831
  301.832
  301.832
  301.829
  301.825
  301.822
  301.82
  301.822
  301.828
  301.837
  301.845
  301.888
  303.787
  303.461
  298.549
)
;
  }
  sWall
  {
    type wallHeatTransfer;
    Tinf uniform 315.2;
    alphaWall uniform 0.36;
    value uniform 300.888;
  }
  nWall
  {
    type wallHeatTransfer;
    Tinf uniform 307.2;
    alphaWall uniform 0.36;
    value nonuniform List<scalar> 6
(
  302.376
  302.263
  302.166
  302.488
  302.461
  302.479
)
;
  }
  sideWalls
  {
    type empty;
  }
  glass1
  {
    type wallHeatTransfer;
    Tinf uniform 315.2;
    alphaWall uniform 4.3;
    value nonuniform List<scalar> 9
(
  311.854
  310.778
  310.097
  309.594
  309.219
  308.924
  308.68
  308.745
  308.995
)
;
  }
  glass2
  {
    type wallHeatTransfer;
    Tinf uniform 307.2;
    alphaWall uniform 4.3;
    value nonuniform List<scalar> 2
(
  304.909
  305.062
)
;
  }
  sun
  {
    type wallHeatTransfer;
    Tinf uniform 305.2;
    alphaWall uniform 0.24;
    value nonuniform List<scalar> 14
(
  302.44
  302.113
  302.124
  302.112
  302.102
  302.092
  302.083
  302.075
  302.067
  302.059
  302.051
  302.044
  302.038
  302.032
)
;
  }
  heatsource1
  {
    type fixedGradient;
    gradient uniform 0;
  }
  heatsource2
  {
    type fixedGradient;
    gradient uniform 0;
  }
  Table_master
  {
    type zeroGradient;
  }
  Table_slave
  {
    type zeroGradient;
  }
  inlet
  {
    type fixedValue;
    value uniform 293.15;
  }
  outlet
  {
    type zeroGradient;
  }
} 	// ************************************************************************* //

