// -*- C++ -*-
// File generated by PyFoam - sorry for the ugliness

FoamFile
{
 version 2.0;
 format ascii;
 class volVectorField;
 location "250";
 object U;
}

dimensions [ 0 1 -1 0 0 0 0 ];

internalField nonuniform List<vector> 459
(
  (-0.0110707 0.0589767 0)
  (-0.123388 0.0186593 0)
  (-0.147533 0.00247343 0)
  (-0.156106 -0.0110503 0)
  (-0.141364 -0.0257661 0)
  (-0.10597 -0.0431121 0)
  (-0.0564316 -0.0585994 0)
  (0.0185299 -0.0565044 0)
  (0.0686672 -0.0420839 0)
  (0.106784 -0.0289539 0)
  (0.131283 -0.0175291 0)
  (0.141012 -0.00737292 0)
  (0.134385 0.00378739 0)
  (0.108786 0.0208929 0)
  (0.0933965 0.0597395 0)
  (-0.06996 0.00778425 0)
  (-0.0120507 0.00212938 0)
  (-0.0138039 -0.0167516 0)
  (0.0133817 -0.0272009 0)
  (0.0364575 -0.0226868 0)
  (0.0574154 -0.0164253 0)
  (0.0721658 -0.00965028 0)
  (0.0804892 -0.00594367 0)
  (0.0843139 -0.00451493 0)
  (0.0862062 -0.0039091 0)
  (0.0874973 -0.00348497 0)
  (0.0883848 -0.00307871 0)
  (0.088661 -0.00255633 0)
  (0.0878202 -0.00160724 0)
  (0.0848735 0.000329792 0)
  (0.0778485 0.00418017 0)
  (0.0644401 0.00993434 0)
  (0.0308366 0.0202483 0)
  (0.0678956 0.0153085 0)
  (0.0824808 0.124598 0)
  (-0.105292 0.0597824 0)
  (-0.116862 0.0311728 0)
  (-0.12671 0.00281809 0)
  (-0.115207 -0.0309359 0)
  (-0.0846576 -0.0665091 0)
  (-0.0421457 -0.0927823 0)
  (0.0101043 -0.0904142 0)
  (0.0522473 -0.0681943 0)
  (0.0847445 -0.0444052 0)
  (0.106097 -0.0219712 0)
  (0.116167 -0.000798007 0)
  (0.116716 0.0197702 0)
  (0.110404 0.042546 0)
  (0.109793 0.0748777 0)
  (0.102631 0.0689388 0)
  (0.0647582 0.062159 0)
  (-0.111848 0.0159885 0)
  (0.0192481 0.00245648 0)
  (0.0278503 -0.0308384 0)
  (0.0423947 -0.0390112 0)
  (0.0578342 -0.034326 0)
  (0.0712216 -0.0250021 0)
  (0.0781841 -0.0111489 0)
  (0.0799509 -0.00298104 0)
  (0.0799498 7.52488e-05 0)
  (0.0801315 0.00118009 0)
  (0.0805512 0.00179348 0)
  (0.0808944 0.0023512 0)
  (0.0810676 0.00324336 0)
  (0.080884 0.00499729 0)
  (0.0796824 0.00885704 0)
  (0.0744166 0.0182336 0)
  (0.0627529 0.0287418 0)
  (0.0244644 0.0430802 0)
  (0.115305 0.0361561 0)
  (0.168307 0.185633 0)
  (-0.102897 0.0902797 0)
  (-0.0901157 0.047212 0)
  (-0.100103 0.00129334 0)
  (-0.089567 -0.0510127 0)
  (-0.0615652 -0.103118 0)
  (-0.0261834 -0.135773 0)
  (0.0122938 -0.130782 0)
  (0.0443564 -0.102455 0)
  (0.0701311 -0.0691659 0)
  (0.0872377 -0.0371356 0)
  (0.0960628 -0.00797389 0)
  (0.0988576 0.019205 0)
  (0.097489 0.0454153 0)
  (0.0965225 0.0713157 0)
  (0.0865243 0.0758911 0)
  (0.0667779 0.0999822 0)
  (-0.13796 -0.0060989 0)
  (0.0611148 -0.0415177 0)
  (0.0646587 -0.0537284 0)
  (0.0707772 -0.0537225 0)
  (0.0779804 -0.046338 0)
  (0.0847557 -0.0375395 0)
  (0.0858756 -0.027763 0)
  (0.0767213 -0.0180347 0)
  (0.0693552 -0.0128056 0)
  (0.0660535 -0.00987207 0)
  (0.0646145 -0.00796755 0)
  (0.0637017 -0.00659306 0)
  (0.0632912 -0.00531184 0)
  (0.0644803 -0.00331553 0)
  (0.0693685 0.00199426 0)
  (0.0694004 0.0237611 0)
  (0.0609373 0.0414548 0)
  (0.017472 0.0624923 0)
  (0.149183 0.0668294 0)
  (0.247103 0.234663 0)
  (-0.110822 0.115912 0)
  (-0.064831 0.0627062 0)
  (-0.0730242 0.00210305 0)
  (-0.0589326 -0.0688184 0)
  (-0.0320397 -0.135222 0)
  (-0.00440678 -0.170181 0)
  (0.021098 -0.162282 0)
  (0.0430497 -0.128979 0)
  (0.0605559 -0.0875871 0)
  (0.0716055 -0.047545 0)
  (0.0770439 -0.0124799 0)
  (0.0792193 0.0178672 0)
  (0.0803495 0.0444886 0)
  (0.0847715 0.0686489 0)
  (0.0933081 0.0841808 0)
  (0.107104 0.108617 0)
  (0.135404 0.0443383 0)
  (0.114638 0.00664772 0)
  (0.113014 -0.0312503 0)
  (0.103553 -0.0498353 0)
  (0.0951083 -0.0520707 0)
  (0.0888574 -0.0455878 0)
  (0.0828398 -0.0346813 0)
  (0.0824149 -0.0201032 0)
  (0.0896352 -0.0123413 0)
  (0.0935726 -0.00803161 0)
  (0.09278 -0.00527452 0)
  (0.0895554 -0.00323005 0)
  (0.0849886 -0.00149574 0)
  (0.0789109 0.000285428 0)
  (0.0703145 0.00263216 0)
  (0.0550906 0.00645138 0)
  (0.0482804 0.0310428 0)
  (0.051587 0.0502816 0)
  (0.0140405 0.0741512 0)
  (0.173905 0.106889 0)
  (0.318146 0.272077 0)
  (-0.124921 0.135018 0)
  (-0.040628 0.0725293 0)
  (-0.0404976 0.00110835 0)
  (-0.017923 -0.08757 0)
  (0.0062098 -0.161551 0)
  (0.0232844 -0.192373 0)
  (0.0359918 -0.181757 0)
  (0.0463717 -0.14456 0)
  (0.0534172 -0.0972576 0)
  (0.0563379 -0.0519112 0)
  (0.0565279 -0.0139856 0)
  (0.0565282 0.0165473 0)
  (0.0592108 0.0409728 0)
  (0.0674663 0.0608676 0)
  (0.0815684 0.0729254 0)
  (0.10188 0.0761607 0)
  (0.12016 0.0293023 0)
  (0.122825 -0.0047627 0)
  (0.116331 -0.0300605 0)
  (0.104817 -0.0417814 0)
  (0.0918435 -0.0425408 0)
  (0.0799304 -0.0364439 0)
  (0.069963 -0.0258288 0)
  (0.0643835 -0.0107603 0)
  (0.0626062 -0.00144896 0)
  (0.0598229 0.00316817 0)
  (0.056235 0.00552543 0)
  (0.0525542 0.00713532 0)
  (0.0491205 0.00874499 0)
  (0.045745 0.0109442 0)
  (0.042179 0.014399 0)
  (0.0373607 0.0199279 0)
  (0.0361203 0.033553 0)
  (0.0485516 0.048208 0)
  (0.0356781 0.0650452 0)
  (0.124857 0.102453 0)
  (0.115165 0.0806483 0)
  (0.0974203 0.0571329 0)
  (-0.115068 0.056203 0)
  (0.378077 0.300641 0)
  (-0.141961 0.144304 0)
  (-0.0167845 0.068377 0)
  (0.00626007 -0.0185955 0)
  (0.0346924 -0.113073 0)
  (0.0507556 -0.177587 0)
  (0.0566177 -0.202548 0)
  (0.0559197 -0.188301 0)
  (0.0519442 -0.147443 0)
  (0.0459864 -0.0961676 0)
  (0.0387975 -0.0482871 0)
  (0.0323109 -0.0107101 0)
  (0.0293235 0.0164299 0)
  (0.0327167 0.0354052 0)
  (0.0423445 0.048596 0)
  (0.0570474 0.0538992 0)
  (0.0767741 0.0480825 0)
  (0.091413 0.019984 0)
  (0.0947694 -0.00453123 0)
  (0.0891459 -0.0209011 0)
  (0.0782005 -0.0288261 0)
  (0.0650124 -0.0292113 0)
  (0.0519803 -0.0242292 0)
  (0.0406274 -0.0157313 0)
  (0.0323074 -0.00518139 0)
  (0.0265046 0.00220031 0)
  (0.0228864 0.00578477 0)
  (0.0201323 0.00735018 0)
  (0.0181578 0.00835178 0)
  (0.0170808 0.0095803 0)
  (0.0169838 0.0116664 0)
  (0.018044 0.0152415 0)
  (0.0198793 0.0204926 0)
  (0.02428 0.0281501 0)
  (0.0380288 0.0363537 0)
  (0.0376982 0.0397488 0)
  (0.0762275 0.060418 0)
  (0.0764013 0.0454211 0)
  (0.0922136 0.0414641 0)
  (-0.124953 0.0779469 0)
  (0.439217 0.323655 0)
  (-0.148763 0.128135 0)
  (0.0199737 0.0181634 0)
  (0.0719187 -0.0662965 0)
  (0.0978982 -0.138565 0)
  (0.103547 -0.186495 0)
  (0.0951134 -0.200051 0)
  (0.0772605 -0.179069 0)
  (0.055459 -0.134798 0)
  (0.034047 -0.0820842 0)
  (0.0157461 -0.0353443 0)
  (0.00299339 -0.00246559 0)
  (-0.000684817 0.0169537 0)
  (0.00387561 0.028533 0)
  (0.0139535 0.0355907 0)
  (0.027802 0.0368272 0)
  (0.0438579 0.0302072 0)
  (0.0539784 0.0133622 0)
  (0.0553243 -0.00220787 0)
  (0.0496948 -0.0125889 0)
  (0.0391876 -0.0171923 0)
  (0.0265839 -0.0165391 0)
  (0.0139291 -0.0120978 0)
  (0.00281705 -0.00529633 0)
  (-0.00609735 0.00220032 0)
  (-0.0105798 0.00655951 0)
  (-0.0128277 0.00829351 0)
  (-0.0138758 0.00872578 0)
  (-0.0137699 0.0087275 0)
  (-0.0122955 0.00883913 0)
  (-0.00913007 0.00954106 0)
  (-0.00403582 0.0113058 0)
  (0.0032612 0.0143701 0)
  (0.0122113 0.018037 0)
  (0.025 0.0223837 0)
  (0.0294711 0.0234563 0)
  (0.048851 0.0378628 0)
  (0.0570578 0.0428044 0)
  (0.102599 0.0558865 0)
  (-0.105848 0.121272 0)
  (0.523566 0.309274 0)
  (-0.00159429 0.0961672 0)
  (0.102061 -0.0496874 0)
  (0.171495 -0.112746 0)
  (0.183338 -0.153709 0)
  (0.166195 -0.177302 0)
  (0.133675 -0.176421 0)
  (0.0919175 -0.148702 0)
  (0.0484496 -0.103471 0)
  (0.0105408 -0.0533909 0)
  (-0.0163913 -0.0134478 0)
  (-0.0287606 0.00594065 0)
  (-0.0299984 0.0152604 0)
  (-0.0253799 0.0207129 0)
  (-0.0168047 0.0238866 0)
  (-0.00596822 0.0238412 0)
  (0.00518216 0.0191476 0)
  (0.0105299 0.0097356 0)
  (0.00921799 0.00106588 0)
  (0.00377295 -0.00455805 0)
  (-0.00619991 -0.00614348 0)
  (-0.0173697 -0.00434334 0)
  (-0.028116 -0.000592403 0)
  (-0.0366945 0.00365421 0)
  (-0.04168 0.00701798 0)
  (-0.0441349 0.0086786 0)
  (-0.0451058 0.00888115 0)
  (-0.0449503 0.00801959 0)
  (-0.0435732 0.00639404 0)
  (-0.0406864 0.00430097 0)
  (-0.03596 0.00208323 0)
  (-0.0293605 5.76167e-05 0)
  (-0.0207826 -0.0014884 0)
  (-0.0104634 -0.00228567 0)
  (0.000692634 -0.00111388 0)
  (0.00483771 8.60968e-05 0)
  (0.0160787 0.0105808 0)
  (0.0231949 0.0180726 0)
  (0.10324 0.0752033 0)
  (-0.376545 0.187584 0)
  (0.640267 0.292022 0)
  (0.302739 0.198224 0)
  (0.313446 0.105678 0)
  (0.318944 -0.0038178 0)
  (0.282746 -0.0801981 0)
  (0.220778 -0.116008 0)
  (0.150378 -0.117829 0)
  (0.078564 -0.0919387 0)
  (0.0141309 -0.0517998 0)
  (-0.0335174 -0.0126387 0)
  (-0.0546882 0.00539111 0)
  (-0.06128 0.0115386 0)
  (-0.060922 0.0140827 0)
  (-0.0570122 0.0157729 0)
  (-0.0510321 0.0168473 0)
  (-0.0443642 0.0166216 0)
  (-0.0387844 0.014554 0)
  (-0.0369755 0.0106881 0)
  (-0.0394297 0.00700329 0)
  (-0.0449488 0.00490068 0)
  (-0.0520018 0.00472911 0)
  (-0.0590915 0.00583018 0)
  (-0.0649244 0.00742611 0)
  (-0.0690817 0.00894377 0)
  (-0.0715094 0.00991825 0)
  (-0.0727892 0.00999506 0)
  (-0.0735146 0.00911752 0)
  (-0.0741138 0.00734918 0)
  (-0.0749441 0.00490681 0)
  (-0.0763852 0.00226272 0)
  (-0.0788449 0.000184047 0)
  (-0.0826583 -0.00033253 0)
  (-0.0885521 0.00187736 0)
  (-0.097307 0.00807444 0)
  (-0.109694 0.0193039 0)
  (-0.128902 0.0363356 0)
  (-0.153807 0.0591714 0)
  (-0.187905 0.0836656 0)
  (-0.241366 0.102094 0)
  (-0.45658 0.0972054 0)
  (0.251889 -0.0909594 0)
  (0.248492 -0.09107 0)
  (0.203904 -0.0875652 0)
  (0.131629 -0.0740345 0)
  (0.0560523 -0.0500572 0)
  (-0.0240732 -0.0114803 0)
  (-0.0697323 0.0112588 0)
  (-0.0906619 0.0203505 0)
  (-0.0962222 0.0215686 0)
  (-0.0964482 0.0208024 0)
  (-0.0943963 0.0200981 0)
  (-0.0912976 0.0200242 0)
  (-0.0876855 0.0203641 0)
  (-0.0841664 0.0206767 0)
  (-0.081581 0.0206122 0)
  (-0.0808577 0.0200737 0)
  (-0.0820503 0.0195827 0)
  (-0.0844401 0.0196253 0)
  (-0.0870747 0.0203473 0)
  (-0.0892061 0.0214521 0)
  (-0.0904557 0.0225943 0)
  (-0.0907978 0.0235486 0)
  (-0.0904056 0.0241844 0)
  (-0.0896098 0.0244484 0)
  (-0.0887512 0.0243771 0)
  (-0.0881294 0.0240954 0)
  (-0.0879919 0.0238203 0)
  (-0.0885117 0.0238241 0)
  (-0.0897628 0.0243708 0)
  (-0.0917123 0.0257068 0)
  (-0.0942655 0.0281881 0)
  (-0.0972282 0.032642 0)
  (-0.100147 0.0407649 0)
  (-0.10226 0.0546295 0)
  (-0.101576 0.074234 0)
  (-0.0957645 0.0886909 0)
  (-0.0861633 0.0657843 0)
  (-0.0940483 -0.159958 0)
  (-0.0844699 0.0111271 0)
  (-0.0394609 -0.0248172 0)
  (-0.0598435 -0.0379121 0)
  (-0.0914805 -0.0420121 0)
  (-0.116867 -0.04171 0)
  (-0.12988 -0.042279 0)
  (-0.1336 -0.0476868 0)
  (-0.133153 -0.0544544 0)
  (-0.130852 -0.0603981 0)
  (-0.128216 -0.0639462 0)
  (-0.125444 -0.0652501 0)
  (-0.122473 -0.0650165 0)
  (-0.119225 -0.0641684 0)
  (-0.115806 -0.0636009 0)
  (-0.112536 -0.0640205 0)
  (-0.10981 -0.0657444 0)
  (-0.107761 -0.068438 0)
  (-0.106196 -0.0714493 0)
  (-0.104756 -0.0741893 0)
  (-0.103118 -0.0763963 0)
  (-0.1011 -0.0780721 0)
  (-0.0986608 -0.0793912 0)
  (-0.0958733 -0.0806522 0)
  (-0.0929057 -0.0821921 0)
  (-0.0899871 -0.0842859 0)
  (-0.0873734 -0.0870687 0)
  (-0.0853035 -0.0904535 0)
  (-0.0839342 -0.094027 0)
  (-0.0832557 -0.0969268 0)
  (-0.0829786 -0.0977563 0)
  (-0.0823548 -0.0946931 0)
  (-0.0798771 -0.0858901 0)
  (-0.0729783 -0.0702435 0)
  (-0.0585582 -0.0486333 0)
  (-0.0356498 -0.0259989 0)
  (-0.00132217 -0.0214695 0)
  (0.0723011 -0.106477 0)
  (-0.0523027 -0.157761 0)
  (-0.150781 -0.227602 0)
  (-0.25656 -0.0264523 0)
  (-0.234255 0.172218 0)
  (-0.216938 0.166843 0)
  (-0.214146 0.169772 0)
  (-0.211411 0.179981 0)
  (-0.205385 0.192576 0)
  (-0.195134 0.205648 0)
  (-0.183342 0.217735 0)
  (-0.17276 0.22759 0)
  (-0.164598 0.234422 0)
  (-0.158639 0.238373 0)
  (-0.153954 0.240413 0)
  (-0.149668 0.241623 0)
  (-0.145158 0.242974 0)
  (-0.140122 0.245214 0)
  (-0.134591 0.248767 0)
  (-0.128832 0.253617 0)
  (-0.123142 0.259278 0)
  (-0.117689 0.265061 0)
  (-0.112491 0.27038 0)
  (-0.107493 0.274929 0)
  (-0.102629 0.278675 0)
  (-0.097867 0.281783 0)
  (-0.0932251 0.284547 0)
  (-0.0887847 0.287307 0)
  (-0.0846691 0.290393 0)
  (-0.0809998 0.294081 0)
  (-0.0778374 0.298547 0)
  (-0.075117 0.303766 0)
  (-0.0725794 0.309382 0)
  (-0.069667 0.314615 0)
  (-0.0653737 0.318361 0)
  (-0.0582232 0.319621 0)
  (-0.0467958 0.318405 0)
  (-0.0308272 0.317047 0)
  (-0.0105591 0.320596 0)
  (0.0202516 0.329934 0)
  (0.0864218 0.387826 0)
  (-0.203633 0.40926 0)
)
;

boundaryField
{
  floor
  {
    type noSlip;
  }
  ceiling
  {
    type noSlip;
  }
  sWall
  {
    type noSlip;
  }
  nWall
  {
    type noSlip;
  }
  sideWalls
  {
    type empty;
  }
  glass1
  {
    type noSlip;
  }
  glass2
  {
    type noSlip;
  }
  sun
  {
    type noSlip;
  }
  heatsource1
  {
    type noSlip;
  }
  heatsource2
  {
    type noSlip;
  }
  Table_master
  {
    type noSlip;
  }
  Table_slave
  {
    type noSlip;
  }
  inlet
  {
    type fixedValue;
    value uniform (0.277164 -0.114805 0);
  }
  outlet
  {
    type zeroGradient;
  }
} 	// ************************************************************************* //

