/*--------------------------------*- C++ -*----------------------------------*\
  =========                 |
  \\      /  F ield         | OpenFOAM: The Open Source CFD Toolbox
   \\    /   O peration     | Website:  https://openfoam.org
    \\  /    A nd           | Version:  6
     \\/     M anipulation  |
\*---------------------------------------------------------------------------*/
FoamFile
{
    version     2.0;
    format      ascii;
    class       volScalarField;
    location    "900";
    object      alphat;
}
// * * * * * * * * * * * * * * * * * * * * * * * * * * * * * * * * * * * * * //

dimensions      [1 -1 -1 0 0 0 0];

internalField   nonuniform List<scalar> 
459
(
0.00215612
0.0024876
0.00284018
0.00276192
0.00262913
0.0024944
0.00236871
0.0022526
0.00214402
0.00204622
0.00195415
0.00186279
0.00176634
0.00165489
0.00152045
0.000857893
0.00100489
0.0011466
0.00127324
0.00137548
0.00138995
0.00132575
0.00124567
0.00117224
0.00110788
0.00105154
0.00100205
0.00095803
0.000918152
0.000880969
0.000844015
0.000803718
0.000752055
0.000679853
0.00229264
0.00431319
0.00545627
0.00566027
0.0055749
0.00536312
0.00513303
0.00492017
0.00472621
0.00448647
0.00419905
0.00386048
0.00345406
0.00294878
0.00228983
0.00154369
0.00138283
0.000832909
0.00171366
0.0028907
0.00385447
0.00470589
0.00497405
0.00347164
0.00290329
0.00253594
0.00227621
0.00208488
0.00194043
0.00183146
0.00173483
0.00160082
0.00145289
0.00132072
0.00114267
0.000702686
0.00223983
0.00462363
0.00536689
0.00557697
0.00551648
0.00538238
0.00527063
0.0051958
0.00515312
0.00510183
0.00498842
0.00476386
0.00439241
0.0038553
0.00315734
0.00239411
0.00143361
0.00080827
0.00191742
0.00271041
0.00405123
0.0053902
0.00572458
0.00168582
0.00149771
0.00132986
0.00118612
0.00106444
0.000961639
0.000874795
0.000805443
0.000764212
0.000903665
0.00108495
0.00111949
0.000700296
0.00246404
0.00532921
0.00575109
0.0056206
0.00546877
0.00540062
0.00544902
0.00557333
0.00572885
0.00579218
0.00571121
0.00546933
0.00506822
0.00451648
0.00383086
0.00305471
0.00204402
0.00143904
0.00135382
0.00186126
0.003205
0.00508722
0.00680744
0.0071987
0.00193572
0.00179589
0.00167934
0.00158192
0.00149342
0.00140605
0.0013149
0.00121605
0.00110286
0.000963807
0.000980402
0.00107243
0.000703914
0.00362384
0.00711902
0.00641842
0.00569524
0.00562139
0.00585687
0.00633
0.0068978
0.00706526
0.0069332
0.00663233
0.00622665
0.00573224
0.00515818
0.00452427
0.00385784
0.00314409
0.00289879
0.00310311
0.00424511
0.00613775
0.00815087
0.00970704
0.0103846
0.0093573
0.0085531
0.00798877
0.00733439
0.0065456
0.00566471
0.00471815
0.003718
0.00267791
0.00172866
0.00122854
0.00112954
0.000801849
0.000679013
0.000576962
0.000692155
0.00373653
0.00961148
0.00620025
0.00553751
0.00709455
0.00816229
0.00854038
0.00844204
0.00821754
0.00789469
0.0074869
0.00704601
0.00656547
0.00605627
0.00556778
0.00517216
0.00494166
0.00537313
0.00673357
0.00874282
0.0107182
0.0121954
0.0129781
0.0130489
0.0125031
0.0117935
0.0109271
0.00987401
0.00867214
0.00737096
0.00601078
0.00462483
0.0032603
0.0020785
0.00139337
0.00119011
0.000924622
0.000865443
0.000919735
0.000691362
0.00368626
0.00847013
0.00543289
0.00675002
0.00867035
0.00955036
0.00976861
0.00964247
0.00933109
0.00900608
0.00867618
0.00834485
0.00801895
0.0077145
0.00754414
0.00766432
0.00827018
0.00975636
0.0117946
0.0135154
0.0146683
0.0151732
0.0150572
0.014462
0.0135983
0.0125951
0.0114383
0.0101598
0.00877945
0.00733613
0.00587736
0.00445784
0.00314977
0.00209418
0.00143884
0.00121963
0.00100728
0.000982697
0.00123155
0.000817007
0.00343243
0.00614876
0.00461998
0.00715761
0.00895236
0.00998098
0.0103477
0.0104833
0.0104888
0.0103909
0.0102723
0.0101776
0.0101412
0.0102156
0.0105021
0.0111597
0.0123445
0.01394
0.0154174
0.0162716
0.0164691
0.0161055
0.0152664
0.0141321
0.0128913
0.0116515
0.0103897
0.00907605
0.00771843
0.00635227
0.00502874
0.00380775
0.00275761
0.0019614
0.00146693
0.00126703
0.00110696
0.00110034
0.00181686
0.00118488
0.00298134
0.0031543
0.00373148
0.00811029
0.00884968
0.00965034
0.0101529
0.0105634
0.0109161
0.0112046
0.0114303
0.0116569
0.0119534
0.012372
0.0129696
0.013788
0.0147887
0.0157359
0.0162965
0.0162732
0.0156794
0.0146446
0.0133333
0.0119427
0.0106078
0.00937137
0.00819385
0.00703836
0.00590904
0.00483811
0.00386672
0.00303162
0.00235943
0.00186604
0.00154693
0.00138826
0.0013218
0.00143479
0.00305846
0.00147936
0.00268308
0.00875809
0.00909758
0.00936665
0.00975802
0.0102156
0.0106926
0.011163
0.0116057
0.0120101
0.0124506
0.0129445
0.0134805
0.0140072
0.0144127
0.014523
0.0142085
0.0134641
0.0124103
0.011218
0.0100461
0.00899902
0.00810414
0.00733255
0.0066419
0.00600822
0.00542375
0.00488293
0.00437564
0.00389065
0.00342519
0.00299369
0.00262847
0.00237592
0.0022941
0.00264223
0.00427808
0.0015064
0.00292361
0.00935137
0.00962943
0.00922405
0.00911118
0.00920995
0.00940529
0.00963731
0.00987473
0.0100975
0.0103484
0.0106197
0.0108765
0.0110626
0.0111041
0.010932
0.0105313
0.00996074
0.00932387
0.00871506
0.00818805
0.00775411
0.00740002
0.00710625
0.00685525
0.00663205
0.00642
0.00619739
0.00593863
0.00562091
0.00523516
0.00479816
0.00435953
0.00399988
0.00383157
0.00401575
0.00410887
0.00145964
0.00112279
0.00175978
0.00219385
0.00217696
0.00206753
0.00203227
0.00203096
0.0020444
0.00206457
0.00208905
0.00211767
0.00215132
0.00218229
0.0022075
0.002224
0.00222833
0.00221749
0.0021906
0.00215088
0.00210503
0.00206029
0.00202153
0.00199042
0.00196628
0.00194723
0.00193101
0.00191544
0.00189854
0.0018784
0.00185346
0.00182296
0.00178767
0.00175049
0.0017166
0.00169343
0.00169018
0.00171441
0.00175984
0.00174464
0.00145907
)
;

boundaryField
{
    floor
    {
        type            compressible::alphatWallFunction;
        Prt             0.85;
        value           nonuniform List<scalar> 
29
(
0.000213818
0.000122253
0.000143118
0.000162898
0.00018034
0.000194287
0.000196256
0.000187532
0.000176579
0.000166465
0.000157541
0.000149681
0.000142735
0.000136525
0.00013087
0.000125572
0.00012028
0.000114478
0.000106987
9.64126e-05
9.64115e-05
9.97722e-05
9.94223e-05
9.99568e-05
0.000213816
0.000122252
0.000118673
0.000115129
0.000202854
)
;
    }
    ceiling
    {
        type            compressible::alphatWallFunction;
        Prt             0.85;
        value           nonuniform List<scalar> 
43
(
0.000160556
0.000246349
0.000302669
0.000300503
0.000286339
0.000281756
0.000281583
0.000283329
0.000285949
0.000289126
0.000292835
0.000297192
0.000301195
0.000304452
0.000306584
0.000307149
0.00030576
0.000302299
0.000297175
0.000291245
0.000285443
0.000280407
0.000276356
0.000273208
0.000270721
0.000268601
0.000266566
0.000264353
0.000261715
0.000258442
0.000254431
0.00024978
0.000244868
0.000240379
0.000237303
0.000236869
0.000240083
0.000246103
0.000244103
0.000205969
0.000402145
0.000423606
0.000395245
)
;
    }
    sWall
    {
        type            compressible::alphatWallFunction;
        Prt             0.85;
        value           uniform 0.000160014;
    }
    nWall
    {
        type            compressible::alphatWallFunction;
        Prt             0.85;
        value           nonuniform List<scalar> 6(9.82328e-05 9.81356e-05 0.000116474 0.000212179 0.000205858 0.00020576);
    }
    sideWalls
    {
        type            empty;
    }
    glass1
    {
        type            compressible::alphatWallFunction;
        Prt             0.85;
        value           nonuniform List<scalar> 9(0.000291644 0.000309079 0.00030256 0.000331579 0.000473731 0.000486942 0.000480604 0.000449506 0.000393766);
    }
    glass2
    {
        type            compressible::alphatWallFunction;
        Prt             0.85;
        value           nonuniform List<scalar> 2(0.000168596 0.000208812);
    }
    sun
    {
        type            compressible::alphatWallFunction;
        Prt             0.85;
        value           nonuniform List<scalar> 
14
(
0.000297469
0.00033998
0.000384491
0.000374654
0.000357899
0.000340808
0.000324776
0.000309883
0.000295883
0.000283207
0.000271213
0.000259249
0.000246551
0.000231781
)
;
    }
    heatsource1
    {
        type            compressible::alphatWallFunction;
        Prt             0.85;
        value           nonuniform List<scalar> 3(9.62105e-05 8.10371e-05 9.8149e-05);
    }
    heatsource2
    {
        type            compressible::alphatWallFunction;
        Prt             0.85;
        value           nonuniform List<scalar> 4(0.000217011 0.000195315 0.000195313 0.000202188);
    }
    Table_master
    {
        type            compressible::alphatWallFunction;
        Prt             0.85;
        value           nonuniform List<scalar> 9(0.00023591 0.000210781 0.000188058 0.000168339 0.000151433 0.000136973 0.000124616 0.000114645 0.00010867);
    }
    Table_slave
    {
        type            compressible::alphatWallFunction;
        Prt             0.85;
        value           nonuniform List<scalar> 9(0.000268828 0.000250473 0.000235054 0.000222075 0.000210207 0.000198415 0.000186025 0.000172476 0.000156804);
    }
    inlet
    {
        type            fixedValue;
        value           uniform 1.94e-05;
    }
    outlet
    {
        type            zeroGradient;
    }
}


// ************************************************************************* //
