// -*- C++ -*-
// File generated by PyFoam - sorry for the ugliness

FoamFile
{
 version 2.0;
 format ascii;
 class volScalarField;
 location "900";
 object T;
}

dimensions [ 0 0 0 1 0 0 0 ];

internalField nonuniform List<scalar> 459
(
  303.769
  303.521
  303.421
  303.455
  303.505
  303.552
  303.593
  303.628
  303.659
  303.691
  303.723
  303.757
  303.794
  303.837
  303.896
  306.02
  305.796
  305.628
  305.521
  305.513
  305.561
  305.624
  305.692
  305.762
  305.833
  305.904
  305.976
  306.049
  306.123
  306.199
  306.28
  306.371
  306.486
  306.662
  303.938
  303.568
  303.355
  303.394
  303.488
  303.578
  303.649
  303.702
  303.741
  303.778
  303.812
  303.844
  303.872
  303.898
  303.925
  303.968
  304.047
  306.157
  305.939
  305.431
  305.324
  305.341
  305.411
  305.485
  305.566
  305.651
  305.738
  305.828
  305.921
  306.017
  306.113
  306.211
  306.309
  306.414
  306.536
  306.709
  304.228
  303.526
  303.294
  303.363
  303.539
  303.704
  303.825
  303.9
  303.952
  303.99
  304.013
  304.024
  304.024
  304.018
  304.012
  304.028
  304.074
  306.175
  305.515
  305.2
  305.135
  305.216
  305.347
  305.415
  305.504
  305.604
  305.713
  305.832
  305.962
  306.101
  306.246
  306.375
  306.465
  306.541
  306.626
  306.765
  304.387
  303.339
  303.134
  303.369
  303.725
  304.015
  304.202
  304.299
  304.358
  304.364
  304.335
  304.29
  304.238
  304.186
  304.139
  304.115
  304.116
  304.164
  304.575
  304.638
  304.747
  304.938
  305.179
  305.413
  305.606
  305.742
  305.856
  305.964
  306.07
  306.173
  306.276
  306.382
  306.494
  306.582
  306.651
  306.712
  306.817
  302.998
  302.645
  302.877
  303.6
  304.278
  304.689
  304.892
  304.964
  304.887
  304.774
  304.658
  304.551
  304.453
  304.364
  304.287
  304.237
  304.215
  304.246
  304.349
  304.511
  304.77
  305.09
  305.419
  305.71
  305.946
  306.117
  306.261
  306.383
  306.486
  306.574
  306.649
  306.712
  306.76
  306.777
  306.789
  306.807
  306.866
  307
  307.572
  308.342
  302.641
  302.163
  303.087
  304.663
  305.476
  305.606
  305.531
  305.387
  305.227
  305.067
  304.909
  304.774
  304.654
  304.548
  304.46
  304.404
  304.386
  304.447
  304.608
  304.883
  305.229
  305.592
  305.926
  306.201
  306.411
  306.57
  306.689
  306.779
  306.854
  306.915
  306.962
  306.992
  307.001
  306.974
  306.94
  306.923
  306.946
  307.064
  307.345
  307.98
  302.323
  301.84
  303.275
  305.676
  306.041
  305.992
  305.85
  305.679
  305.498
  305.331
  305.175
  305.035
  304.911
  304.8
  304.722
  304.696
  304.745
  304.922
  305.218
  305.566
  305.927
  306.264
  306.545
  306.76
  306.919
  307.027
  307.092
  307.143
  307.186
  307.218
  307.236
  307.236
  307.214
  307.161
  307.098
  307.053
  307.047
  307.161
  307.423
  308.043
  301.917
  301.28
  302.543
  305.983
  306.39
  306.324
  306.176
  306.013
  305.847
  305.685
  305.544
  305.423
  305.323
  305.249
  305.22
  305.264
  305.426
  305.711
  306.062
  306.391
  306.693
  306.959
  307.151
  307.286
  307.366
  307.409
  307.438
  307.461
  307.477
  307.482
  307.474
  307.447
  307.4
  307.333
  307.258
  307.196
  307.163
  307.287
  307.521
  307.907
  301.294
  299.891
  299.747
  306.056
  306.725
  306.697
  306.573
  306.441
  306.313
  306.19
  306.084
  306.005
  305.957
  305.948
  305.995
  306.117
  306.329
  306.615
  306.917
  307.181
  307.384
  307.537
  307.64
  307.697
  307.726
  307.741
  307.749
  307.751
  307.745
  307.727
  307.695
  307.648
  307.586
  307.511
  307.433
  307.366
  307.326
  307.457
  307.665
  307.929
  294.928
  306.122
  307.053
  307.091
  307.016
  306.934
  306.859
  306.793
  306.741
  306.716
  306.722
  306.767
  306.859
  307.002
  307.19
  307.403
  307.605
  307.77
  307.888
  307.966
  308.01
  308.032
  308.039
  308.038
  308.031
  308.018
  307.996
  307.965
  307.922
  307.869
  307.806
  307.736
  307.668
  307.614
  307.598
  307.704
  307.852
  308.022
  306.29
  307.247
  307.469
  307.486
  307.46
  307.432
  307.41
  307.397
  307.397
  307.413
  307.452
  307.517
  307.609
  307.725
  307.855
  307.986
  308.1
  308.186
  308.243
  308.276
  308.29
  308.292
  308.285
  308.273
  308.255
  308.232
  308.203
  308.168
  308.128
  308.083
  308.034
  307.985
  307.941
  307.91
  307.908
  307.964
  308.064
  308.145
  320.625
  313.482
  307.78
  307.894
  307.952
  307.969
  307.983
  308
  308.021
  308.046
  308.075
  308.108
  308.149
  308.2
  308.257
  308.318
  308.378
  308.431
  308.472
  308.498
  308.512
  308.514
  308.508
  308.495
  308.479
  308.458
  308.435
  308.409
  308.381
  308.351
  308.321
  308.29
  308.262
  308.236
  308.215
  308.203
  308.203
  308.23
  308.286
  308.322
)
;

boundaryField
{
  floor
  {
    type wallHeatTransfer;
    Tinf uniform 305.2;
    alphaWall uniform 0.24;
    value nonuniform List<scalar> 29
(
  304.015
  305.906
  305.723
  305.58
  305.488
  305.483
  305.527
  305.582
  305.641
  305.7
  305.76
  305.82
  305.88
  305.94
  306.001
  306.063
  306.128
  306.2
  306.289
  306.423
  306.423
  306.467
  306.514
  306.558
  304.015
  305.906
  306.021
  306.034
  304.263
)
;
  }
  ceiling
  {
    type wallHeatTransfer;
    Tinf uniform 303.2;
    alphaWall uniform 0.24;
    value nonuniform List<scalar> 43
(
  318.637
  312.65
  307.468
  307.573
  307.613
  307.624
  307.637
  307.654
  307.676
  307.703
  307.734
  307.768
  307.811
  307.861
  307.917
  307.974
  308.029
  308.075
  308.108
  308.126
  308.132
  308.128
  308.117
  308.102
  308.084
  308.062
  308.038
  308.011
  307.982
  307.95
  307.917
  307.883
  307.85
  307.82
  307.796
  307.784
  307.79
  307.822
  307.871
  307.842
  301.396
  300.059
  306.124
)
;
  }
  sWall
  {
    type wallHeatTransfer;
    Tinf uniform 315.2;
    alphaWall uniform 0.36;
    value uniform 319.745;
  }
  nWall
  {
    type wallHeatTransfer;
    Tinf uniform 307.2;
    alphaWall uniform 0.36;
    value nonuniform List<scalar> 6
(
  308.085
  307.805
  307.873
  307.914
  308.019
  308.172
)
;
  }
  sideWalls
  {
    type empty;
  }
  glass1
  {
    type wallHeatTransfer;
    Tinf uniform 315.2;
    alphaWall uniform 4.3;
    value nonuniform List<scalar> 9
(
  310.346
  310.27
  310.45
  310.291
  308.643
  308.37
  308.237
  308.227
  308.333
)
;
  }
  glass2
  {
    type wallHeatTransfer;
    Tinf uniform 307.2;
    alphaWall uniform 4.3;
    value nonuniform List<scalar> 2
(
  307.42
  307.458
)
;
  }
  sun
  {
    type wallHeatTransfer;
    Tinf uniform 305.2;
    alphaWall uniform 0.24;
    value nonuniform List<scalar> 14
(
  303.868
  303.625
  303.52
  303.554
  303.606
  303.654
  303.696
  303.733
  303.767
  303.8
  303.834
  303.869
  303.908
  303.954
)
;
  }
  heatsource1
  {
    type fixedGradient;
    gradient uniform 0;
  }
  heatsource2
  {
    type fixedGradient;
    gradient uniform 0;
  }
  Table_master
  {
    type zeroGradient;
  }
  Table_slave
  {
    type zeroGradient;
  }
  inlet
  {
    type fixedValue;
    value uniform 290.15;
  }
  outlet
  {
    type zeroGradient;
  }
} 	// ************************************************************************* //

