/*--------------------------------*- C++ -*----------------------------------*\
  =========                 |
  \\      /  F ield         | OpenFOAM: The Open Source CFD Toolbox
   \\    /   O peration     | Website:  https://openfoam.org
    \\  /    A nd           | Version:  6
     \\/     M anipulation  |
\*---------------------------------------------------------------------------*/
FoamFile
{
    version     2.0;
    format      ascii;
    class       volScalarField;
    location    "300";
    object      alphat;
}
// * * * * * * * * * * * * * * * * * * * * * * * * * * * * * * * * * * * * * //

dimensions      [1 -1 -1 0 0 0 0];

internalField   nonuniform List<scalar> 
459
(
0.000830806
0.000856324
0.000783535
0.000811117
0.000842072
0.000871787
0.000900268
0.000928188
0.000956646
0.0009853
0.00100966
0.00102836
0.00104048
0.00104553
0.00103912
0.000377497
0.000431112
0.000439648
0.000337669
0.000257334
0.00024569
0.00022796
0.000225811
0.00023241
0.000251326
0.000278761
0.000308135
0.000330489
0.000348033
0.000377841
0.000423348
0.00045112
0.000460721
0.000416573
0.00141574
0.00256252
0.00190747
0.00256012
0.00280616
0.00303912
0.00327498
0.00349489
0.00367125
0.00379007
0.00384513
0.00379531
0.00357263
0.00306682
0.00216866
0.00112509
0.000729846
0.000555279
0.00118934
0.0013843
0.00131422
0.00103994
0.000640605
0.00031612
0.000312393
0.000394891
0.000564178
0.000787599
0.00102771
0.00123864
0.00144669
0.00167721
0.00196572
0.00181097
0.00160632
0.000521412
0.00194095
0.00432065
0.00203124
0.00357611
0.00421774
0.00450695
0.0047427
0.00494104
0.00509361
0.00519795
0.00524799
0.00519981
0.00497547
0.0044571
0.00353744
0.00231992
0.00119964
0.000918246
0.002658
0.00246914
0.00210012
0.00167805
0.00119984
0.000345684
0.000334925
0.00037756
0.00042131
0.00046742
0.000517933
0.000576433
0.000648756
0.000745122
0.00199875
0.00171223
0.00127464
0.000646808
0.00244235
0.00656123
0.00243728
0.0036152
0.00488125
0.00523614
0.00544318
0.00561344
0.0057591
0.00587749
0.00600057
0.00610704
0.00612687
0.00592533
0.00529727
0.00406582
0.00242147
0.00126222
0.00332178
0.00369865
0.00331351
0.00269362
0.00201136
0.00132761
0.000808771
0.000793403
0.000783539
0.000777509
0.000777098
0.000785399
0.000806443
0.000846203
0.000923915
0.00286807
0.00314033
0.00289654
0.00101702
0.00291075
0.00900705
0.0035861
0.00325776
0.00488035
0.00539641
0.00560035
0.00574053
0.00585914
0.00597567
0.00617204
0.0064681
0.00684023
0.00722929
0.00753057
0.00762016
0.00742313
0.00699136
0.00691137
0.00653491
0.00606477
0.00562239
0.00523037
0.00486497
0.00452595
0.0042863
0.00404018
0.00379498
0.00358085
0.00343583
0.00338526
0.00342893
0.00355163
0.00376294
0.00385933
0.00377869
0.00325716
0.0014482
0.0012913
0.00112997
0.00335278
0.0112459
0.00590717
0.00355275
0.00419186
0.00489508
0.00527519
0.005493
0.00560163
0.00565385
0.0058459
0.00618003
0.00666368
0.00728409
0.00795939
0.00854002
0.00885943
0.00883648
0.00858067
0.00820095
0.00781392
0.00747077
0.0071698
0.00688271
0.00657026
0.00621049
0.00578932
0.00531668
0.00483746
0.00442843
0.00415503
0.00402396
0.00398924
0.00398948
0.00397877
0.00391734
0.00365036
0.00299258
0.00230444
0.00118958
0.00374752
0.0128327
0.00935451
0.00584032
0.00421659
0.0041263
0.00461482
0.00508876
0.00531231
0.00535572
0.00548631
0.00570547
0.00605957
0.00660357
0.00732068
0.00807551
0.00866714
0.00895992
0.00897228
0.00880882
0.00858575
0.00836454
0.00815926
0.0079567
0.00772841
0.00744761
0.00708616
0.0066132
0.00602689
0.00539836
0.00485166
0.00445776
0.00419888
0.00400844
0.00381519
0.00354888
0.00314186
0.00261806
0.00206956
0.00116827
0.00380567
0.0121873
0.010474
0.00901946
0.00695254
0.00562921
0.00519541
0.0052462
0.0053606
0.0053628
0.00536683
0.00541082
0.00553004
0.00578227
0.00622877
0.00686135
0.00754164
0.0080831
0.008401
0.00850708
0.00849799
0.00843905
0.00836246
0.0082787
0.00818705
0.00808429
0.00795467
0.0077513
0.00740249
0.00687786
0.00627023
0.00567117
0.00513014
0.00463112
0.00414801
0.00368564
0.00323447
0.00283562
0.00250008
0.00151714
0.00366498
0.00429355
0.00682142
0.00749275
0.00718599
0.00656232
0.00601984
0.00565883
0.00543331
0.00528696
0.00519993
0.00514909
0.00513336
0.00517575
0.00532274
0.00562369
0.00607559
0.00658823
0.00704439
0.00738031
0.00759777
0.00772488
0.00779268
0.00782673
0.00784894
0.00788319
0.00795118
0.00805454
0.00814638
0.00810541
0.00783043
0.00739865
0.00698235
0.00674175
0.00668427
0.00642501
0.00548985
0.00449721
0.00459582
0.00176283
0.0125542
0.0140774
0.00965373
0.00792304
0.00693543
0.00629405
0.00584931
0.00551554
0.00524987
0.00503735
0.00487178
0.0047566
0.00470716
0.0047499
0.00491066
0.00518922
0.00554232
0.00590165
0.00621381
0.00645595
0.00663091
0.00675566
0.00685287
0.00694885
0.00707366
0.00725593
0.00750235
0.00773398
0.00787711
0.00784099
0.00763863
0.00739301
0.00718711
0.00694374
0.0063465
0.0053636
0.00474037
0.00174203
0.00579751
0.0126398
0.00963292
0.00802781
0.00702788
0.00631434
0.00577761
0.00536582
0.00503132
0.00474546
0.0045206
0.00436559
0.00428831
0.00429653
0.00439576
0.00458294
0.00483681
0.00510107
0.0053433
0.00554948
0.00571648
0.0058478
0.00594954
0.00602769
0.00608984
0.00614387
0.00619636
0.00626616
0.00634148
0.00638433
0.00635317
0.00624633
0.00608816
0.00578404
0.00523496
0.00436189
0.00417249
0.00160304
0.00300214
0.00363169
0.00446666
0.00360206
0.0033813
0.003066
0.0027289
0.00244065
0.00219825
0.00199177
0.00181927
0.00167793
0.00155927
0.00145928
0.00137638
0.00131031
0.00126123
0.00122899
0.00121233
0.00121076
0.00121749
0.00122645
0.0012343
0.00123979
0.00124293
0.0012444
0.00124494
0.00124537
0.00124736
0.00125303
0.00126216
0.0012727
0.00128023
0.00127842
0.00126006
0.0012281
0.00119277
0.00114904
0.00118426
0.00114525
)
;

boundaryField
{
    floor
    {
        type            compressible::alphatWallFunction;
        Prt             0.85;
        value           nonuniform List<scalar> 
29
(
0.000147828
5.01286e-05
5.85638e-05
5.98908e-05
4.37517e-05
3.06027e-05
2.86525e-05
2.56616e-05
2.52992e-05
2.64172e-05
2.95997e-05
3.41605e-05
3.89779e-05
4.26034e-05
4.54265e-05
5.01834e-05
5.73598e-05
6.17008e-05
6.31948e-05
5.63204e-05
5.63197e-05
7.24989e-05
9.13669e-05
0.000144732
0.000147826
5.01279e-05
7.76082e-05
0.000130718
0.000178737
)
;
    }
    ceiling
    {
        type            compressible::alphatWallFunction;
        Prt             0.85;
        value           nonuniform List<scalar> 
43
(
0.000404857
0.000482615
0.000583673
0.000479028
0.000451924
0.00041287
0.000370647
0.000334108
0.000303024
0.000276254
0.000253659
0.000234971
0.000219147
0.000205708
0.000194487
0.000185488
0.000178771
0.00017434
0.000172045
0.000171827
0.000172753
0.000173984
0.000175062
0.000175817
0.000176246
0.000176448
0.00017652
0.000176579
0.000176851
0.000177629
0.000178881
0.000180324
0.000181354
0.000181107
0.000178591
0.0001742
0.000169333
0.000163283
0.000168157
0.000162759
0.000486822
0.000563019
0.000740999
)
;
    }
    sWall
    {
        type            compressible::alphatWallFunction;
        Prt             0.85;
        value           uniform 0.000403733;
    }
    nWall
    {
        type            compressible::alphatWallFunction;
        Prt             0.85;
        value           nonuniform List<scalar> 6(0.000160325 0.000168576 0.000165634 0.000243108 0.000224639 0.000162445);
    }
    sideWalls
    {
        type            empty;
    }
    glass1
    {
        type            compressible::alphatWallFunction;
        Prt             0.85;
        value           nonuniform List<scalar> 9(0.000115085 0.000195264 0.000264266 0.000328396 0.000387143 0.000441744 0.000489922 0.000497108 0.000480242);
    }
    glass2
    {
        type            compressible::alphatWallFunction;
        Prt             0.85;
        value           nonuniform List<scalar> 2(0.000212112 0.000244695);
    }
    sun
    {
        type            compressible::alphatWallFunction;
        Prt             0.85;
        value           nonuniform List<scalar> 
14
(
0.000118266
0.000121916
0.000111422
0.000115412
0.000119871
0.000124133
0.000128202
0.000132176
0.000136212
0.000140262
0.000143694
0.000146322
0.000148021
0.000148727
)
;
    }
    heatsource1
    {
        type            compressible::alphatWallFunction;
        Prt             0.85;
        value           nonuniform List<scalar> 3(0.000204159 0.000182836 0.000160603);
    }
    heatsource2
    {
        type            compressible::alphatWallFunction;
        Prt             0.85;
        value           nonuniform List<scalar> 4(0.000159917 0.000103691 0.00010369 0.000170233);
    }
    Table_master
    {
        type            compressible::alphatWallFunction;
        Prt             0.85;
        value           nonuniform List<scalar> 9(4.51735e-05 4.34419e-05 5.02655e-05 5.71638e-05 6.43358e-05 7.20908e-05 8.09552e-05 9.17632e-05 0.00010594);
    }
    Table_slave
    {
        type            compressible::alphatWallFunction;
        Prt             0.85;
        value           nonuniform List<scalar> 9(0.000115168 0.000112947 0.000111519 0.000110645 0.000110586 0.000111791 0.000114837 0.000120568 0.000131677);
    }
    inlet
    {
        type            fixedValue;
        value           uniform 1.94e-05;
    }
    outlet
    {
        type            zeroGradient;
    }
}


// ************************************************************************* //
