/*--------------------------------*- C++ -*----------------------------------*\
  =========                 |
  \\      /  F ield         | OpenFOAM: The Open Source CFD Toolbox
   \\    /   O peration     | Website:  https://openfoam.org
    \\  /    A nd           | Version:  6
     \\/     M anipulation  |
\*---------------------------------------------------------------------------*/
FoamFile
{
    version     2.0;
    format      ascii;
    class       surfaceScalarField;
    location    "800";
    object      phi;
}
// * * * * * * * * * * * * * * * * * * * * * * * * * * * * * * * * * * * * * //

dimensions      [1 0 -1 0 0 0 0];

internalField   nonuniform List<scalar> 
852
(
-0.00256905
0.00262802
-0.00304865
0.000479627
-0.00357059
0.00052197
-0.00406843
0.000497866
-0.0045007
0.000432297
-0.00484897
0.000348301
-0.00509669
0.00024774
-0.00522438
0.000127714
-0.00520901
-1.53382e-05
-0.00502152
-0.000187462
-0.00463652
-0.000384976
-0.00403922
-0.000597276
-0.00319935
-0.000839839
-0.00197139
-0.00122794
-0.00197003
-0.000388908
0.000391518
-0.00017445
-0.000214433
0.000187129
-0.000361551
0.0005761
-0.000388943
0.000993579
-0.000417449
0.00136939
-0.00037578
0.00154028
-0.000170862
0.00157634
-3.60266e-05
0.0015686
7.76317e-06
0.00154405
2.45769e-05
0.00150878
3.53049e-05
0.00146733
4.14759e-05
0.00142092
4.64419e-05
0.00136374
5.72086e-05
0.00127799
8.57806e-05
0.00113483
0.000143193
0.000927301
0.000207557
0.000683273
0.000244057
0.000686739
-0.00186969
0.00465433
-0.00256916
0.00117912
-0.00320424
0.00115707
-0.0037303
0.00102395
-0.00417416
0.000876183
-0.00453479
0.000708957
-0.00480084
0.000513821
-0.00495529
0.000282191
-0.00497776
7.15613e-06
-0.00485245
-0.000312746
-0.00456654
-0.000670861
-0.00411206
-0.00105173
-0.00349331
-0.00145856
-0.00282385
-0.00189737
-0.00262502
-0.00216883
-0.000828501
-0.00179655
-0.000828525
0.000534022
-0.0001358
0.000423513
-0.000103897
0.000356187
-0.000294198
0.000545502
-0.000578228
0.000859172
-0.000731091
0.00117721
-0.000693792
0.00124918
-0.000242802
0.0012511
-3.79177e-05
0.00124844
1.04569e-05
0.00124323
2.98159e-05
0.00123629
4.22776e-05
0.00122964
4.81545e-05
0.00122359
5.25248e-05
0.00121572
6.51065e-05
0.00118203
0.0001195
0.00104873
0.000276526
0.000817987
0.000438326
0.000541958
0.000520114
0.00123775
-0.00137347
0.00626353
-0.00211963
0.00192531
-0.00272547
0.00176295
-0.0032021
0.00150061
-0.00361122
0.00128532
-0.00395502
0.00105279
-0.00422205
0.000780875
-0.00439505
0.000455219
-0.00445468
6.68119e-05
-0.00438353
-0.000383873
-0.00417585
-0.000878514
-0.00384486
-0.0013827
-0.00343807
-0.00186532
-0.00305648
-0.00227894
-0.0027167
-0.00250859
-0.00194927
-0.00256395
-0.00277776
-0.000205036
7.76197e-05
-0.000164556
-0.000144349
2.49183e-05
-0.000483643
0.000259763
-0.000813044
0.000527502
-0.000998801
0.00100628
-0.00117255
0.000763665
0.00072593
0.00073657
0.000766569
0.000809029
0.000857367
0.000910074
0.000975363
0.00109505
0.000931451
0.000440149
0.000704874
0.000664932
0.000414825
0.000810192
0.00166626
-0.00102218
0.00758585
-0.00174101
0.00264417
-0.00217323
0.00219519
-0.0025356
0.00186301
-0.00286508
0.00161483
-0.00315719
0.00134492
-0.00339933
0.00102304
-0.00357374
0.000629652
-0.00365717
0.000150267
-0.00362531
-0.000415703
-0.00347957
-0.00102423
-0.0032584
-0.00160384
-0.00302898
-0.00209472
-0.00285984
-0.00244805
-0.00274517
-0.00262324
-0.00269186
-0.00261723
-0.0032947
-0.00217491
-0.0020631
-0.00122436
-0.00124471
-0.000740746
-0.000693853
-0.000695174
-0.000291458
-0.00088601
-2.88115e-05
-0.00107566
0.00010495
-0.00113253
-4.3985e-05
-0.00102358
0.000484672
-0.000528781
0.00087891
-0.000394361
0.00122409
-0.000345302
0.00153137
-0.0003074
0.00178695
-0.000255703
0.00195911
-0.00017228
0.00200015
-4.11653e-05
0.00186627
0.000133761
0.00150913
0.000357017
0.00124979
0.000699515
0.000859224
0.00105553
0.00032285
0.0013466
0.00200666
-0.000759981
0.0086991
-0.00141527
0.00329948
-0.00156608
0.00234603
-0.0017706
0.00206756
-0.00198706
0.00183131
-0.00219003
0.00154792
-0.00236539
0.00119843
-0.00249969
0.00076397
-0.0025708
0.000221409
-0.00254191
-0.000444569
-0.00241937
-0.00114675
-0.00225847
-0.00176472
-0.0021175
-0.00223566
-0.00202997
-0.00253556
-0.00199575
-0.00265744
-0.00203495
-0.00257801
-0.00202262
-0.00218721
-0.00161466
-0.00163229
-0.00110619
-0.0012492
-0.000664704
-0.00113663
-0.00034652
-0.00120417
-0.000146293
-0.00127586
-4.73249e-05
-0.00123147
1.53164e-05
-0.00108619
0.000312841
-0.000826277
0.000609729
-0.000691219
0.000889006
-0.000624549
0.00115216
-0.00057052
0.00138994
-0.00049346
0.0015794
-0.000361703
0.00168091
-0.000142648
0.00165697
0.000157737
0.00151901
0.000495008
0.00133774
0.000880818
0.00110153
0.00129177
0.000672267
0.00177589
0.000457674
0.00222128
-0.000982575
0.00144007
-0.00143075
0.000448001
-0.00138467
-0.000685584
0.00978246
-0.00123724
0.00385116
-0.000953557
0.00206237
-0.000906337
0.00202036
-0.00100571
0.00193072
-0.00111291
0.00165514
-0.00118983
0.00127539
-0.00123663
0.00081079
-0.00124196
0.000226763
-0.00117216
-0.000514344
-0.0010565
-0.00126238
-0.000952798
-0.0018684
-0.000898762
-0.00228967
-0.000905865
-0.00252843
-0.000967129
-0.00259615
-0.00105533
-0.00248979
-0.00105322
-0.00218929
-0.000889082
-0.00179641
-0.000645449
-0.00149281
-0.000424667
-0.00135738
-0.000268137
-0.00136067
-0.000178962
-0.00136501
-0.000139749
-0.00127066
-9.57739e-05
-0.00113014
5.49525e-05
-0.000976974
0.0002446
-0.000880837
0.000444964
-0.000824883
0.000650878
-0.000776403
0.00085924
-0.000701791
0.00106264
-0.000565072
0.00123967
-0.000319645
0.00134028
5.71625e-05
0.00136018
0.000475132
0.00135979
0.000881248
0.00139883
0.00125276
0.00151001
0.00166474
0.00187256
0.00185876
0.00209905
0.00121361
0.00171952
0.000827561
0.000390359
-0.000888409
0.0111076
-0.000958529
0.00392131
-7.14114e-05
0.00117528
0.000268693
0.00168029
0.000227723
0.00197171
0.000161342
0.00172154
0.000167984
0.00126877
0.00022807
0.00075073
0.000346791
0.000108068
0.000485018
-0.000652545
0.000574469
-0.00135181
0.000585267
-0.00187917
0.000515509
-0.00221989
0.000378721
-0.00239162
0.00019699
-0.0024144
8.94309e-06
-0.00230172
-0.000115893
-0.00206444
-0.000146996
-0.00176528
-0.000132539
-0.00150724
-0.000124978
-0.00136492
-0.000144073
-0.00134155
-0.000188434
-0.00132062
-0.000245177
-0.00121389
-0.000279896
-0.00109539
-0.000255674
-0.00100117
-0.000190553
-0.000945929
-0.00010011
-0.000915296
1.16048e-05
-0.000888087
0.000146908
-0.000837064
0.000313658
-0.00073179
0.000521635
-0.000527591
0.000747075
-0.000168245
0.000951859
0.000270381
0.00114669
0.000686449
0.00141938
0.000980099
0.00183098
0.00125318
0.00243911
0.00125066
0.00294332
0.00070943
0.00296414
0.000806774
0.00341554
0.00210112
0.00949299
0.00258732
0.00343514
0.00278964
0.000972985
0.00266202
0.00180793
0.00239275
0.00224101
0.00223176
0.00188256
0.00219422
0.00130634
0.00225394
0.000691032
0.00239648
-3.44391e-05
0.00249136
-0.000747399
0.00244833
-0.00130875
0.0022754
-0.00170623
0.00201032
-0.00195479
0.0016906
-0.00207189
0.00134892
-0.00207269
0.00101762
-0.0019704
0.000734064
-0.00178087
0.000511955
-0.00154315
0.000328791
-0.00132406
0.000153495
-0.0011896
-2.81664e-05
-0.00115986
-0.000209257
-0.0011395
-0.00037685
-0.00104627
-0.000512734
-0.000959479
-0.00060694
-0.000906932
-0.000669457
-0.000883383
-0.000711216
-0.000873507
-0.000737897
-0.000861376
-0.000745102
-0.000829828
-0.000716728
-0.000760133
-0.000615021
-0.000629266
-0.000370056
-0.000413179
-2.61209e-05
-7.35211e-05
0.000337139
0.000323222
0.00072287
0.000594399
0.00118064
0.000795446
0.00164867
0.000782651
0.00184915
0.00050899
0.0011012
0.00155475
0.00476015
0.010022
0.0134465
0.0121085
0.00231102
0.00994326
0.00397318
0.00835288
0.00383142
0.00725325
0.00298222
0.00649196
0.00206765
0.00598871
0.0011943
0.00553631
0.000417987
0.0050237
-0.000234767
0.00447333
-0.000758354
0.00390911
-0.00114199
0.00334658
-0.00139223
0.00279888
-0.00152417
0.00227863
-0.00155242
0.00179791
-0.00148966
0.00136813
-0.00135107
0.000992841
-0.00116785
0.000661829
-0.000993024
0.000352597
-0.000880348
4.2721e-05
-0.000849957
-0.000257818
-0.000838933
-0.000525837
-0.000778219
-0.000758764
-0.000726524
-0.000963194
-0.000702474
-0.00115097
-0.000695579
-0.00133403
-0.00069042
-0.00152353
-0.000671842
-0.00172967
-0.000623659
-0.00196185
-0.000527915
-0.00222684
-0.000364254
-0.00252624
-0.000113746
-0.00283328
0.000233557
-0.00319186
0.000681832
-0.00378967
0.00119223
-0.00471645
0.00172226
-0.00607544
0.00214167
-0.00772836
0.00216194
-0.0072438
0.00107021
-0.0022138
0.0032221
0.00346166
0.00412424
0.00307104
0.00540252
0.00255314
0.00582115
0.0025636
0.00585092
0.0020379
0.00576158
0.00128366
0.00558322
0.000596359
0.00528685
6.1624e-05
0.00486645
-0.000337936
0.00435491
-0.000630437
0.0037932
-0.000830499
0.00321631
-0.000947262
0.00265171
-0.000987805
0.00211777
-0.000955706
0.00162235
-0.000855631
0.00116882
-0.000714295
0.000764313
-0.000588499
0.000400133
-0.000516147
4.0517e-05
-0.000490316
-0.000314606
-0.000483783
-0.000635095
-0.000457702
-0.000929075
-0.000432517
-0.00120784
-0.00042368
-0.00147935
-0.00042404
-0.00174741
-0.000422333
-0.00201227
-0.000406951
-0.00227068
-0.000365221
-0.00251474
-0.000283822
-0.00273086
-0.000148104
-0.00290708
6.24995e-05
-0.00303654
0.000363053
-0.00312392
0.000769235
-0.00318325
0.0012516
-0.00318615
0.00172519
-0.00308679
0.00204234
-0.00269681
0.00177199
-0.0014449
-0.000181672
-0.00358794
-0.000323911
0.00382503
0.00136985
0.00137728
0.002367
0.001556
0.00319954
0.00173107
0.00385545
0.00138201
0.00427192
0.000867202
0.0044337
0.000434593
0.00438275
0.000112591
0.00415742
-0.000112586
0.00379729
-0.000270296
0.00334627
-0.00037946
0.00284597
-0.000446947
0.00233386
-0.000475674
0.00184077
-0.000462607
0.00138206
-0.000396899
0.000949474
-0.00028169
0.000548934
-0.000187939
0.000231089
-0.00019828
-3.15231e-05
-0.000227679
-0.000310906
-0.000204373
-0.000599192
-0.000169389
-0.000884127
-0.000147555
-0.00116806
-0.000139718
-0.00145061
-0.000141466
-0.00172664
-0.000146268
-0.00198674
-0.00014682
-0.00221659
-0.00013535
-0.0023964
-0.000103982
-0.00249938
-4.509e-05
-0.00249708
6.02269e-05
-0.00237703
0.000243028
-0.00211167
0.000503903
-0.0016845
0.00082446
-0.00107656
0.00111728
-0.000124824
0.00109063
0.00114823
0.000498963
0.00157528
-0.000608697
-0.00193526
-0.00600728
-0.0081362
-0.00428328
-0.00289673
-0.00133649
0.000395471
0.00177589
0.00264038
0.00307152
0.0031801
0.003063
0.00278768
0.00240266
0.00194958
0.00146712
0.000997008
0.000591865
0.000301411
0.000104761
-0.000101686
-0.000337286
-0.00054988
-0.000727954
-0.000884659
-0.00103395
-0.00118532
-0.00134172
-0.00149876
-0.00164432
-0.00175836
-0.00181329
-0.00176257
-0.00152868
-0.00103354
-0.000217508
0.000891634
0.00197414
0.00246477
0.00184738
)
;

boundaryField
{
    floor
    {
        type            calculated;
        value           nonuniform List<scalar> 
29
(
0
0
0
0
0
0
0
0
0
0
0
0
0
0
0
0
0
0
0
0
-3.43778e-06
-9.02345e-06
-1.3654e-05
-1.75228e-05
-1.3337e-06
-2.58446e-06
-6.67859e-06
-8.35559e-06
-7.21231e-06
)
;
    }
    ceiling
    {
        type            calculated;
        value           nonuniform List<scalar> 
43
(
-3.05869e-05
-2.93435e-05
-2.7886e-05
-9.26492e-06
-4.23289e-06
-8.85192e-07
1.61112e-06
2.72335e-06
3.46704e-06
4.02817e-06
4.53388e-06
5.0417e-06
5.57493e-06
6.15434e-06
6.80017e-06
7.52148e-06
8.26327e-06
8.78349e-06
8.7313e-06
8.18957e-06
7.94789e-06
8.24843e-06
8.71181e-06
9.17646e-06
9.59577e-06
9.93349e-06
1.01582e-05
1.02551e-05
1.02287e-05
1.00942e-05
9.8644e-06
9.5383e-06
9.15772e-06
8.7909e-06
8.46075e-06
8.16258e-06
8.1496e-06
8.3577e-06
8.7251e-06
9.93269e-06
1.42577e-05
1.0636e-05
-3.94672e-05
)
;
    }
    sWall
    {
        type            calculated;
        value           uniform -0.000241475;
    }
    nWall
    {
        type            calculated;
        value           nonuniform List<scalar> 6(-4.62553e-05 -5.54771e-05 -6.10188e-05 -7.07337e-05 -7.73686e-05 -9.77858e-05);
    }
    sideWalls
    {
        type            empty;
        value           nonuniform 0();
    }
    glass1
    {
        type            calculated;
        value           nonuniform List<scalar> 9(-5.89468e-05 -0.000156598 -0.000235706 -0.000300112 -0.000353246 -0.000397751 -0.000436723 -0.000486475 -0.000543214);
    }
    glass2
    {
        type            calculated;
        value           nonuniform List<scalar> 2(-0.000243373 -0.000269825);
    }
    sun
    {
        type            calculated;
        value           uniform 0;
    }
    heatsource1
    {
        type            calculated;
        value           nonuniform List<scalar> 3(2.03824e-07 2.03766e-07 2.03777e-07);
    }
    heatsource2
    {
        type            calculated;
        value           nonuniform List<scalar> 4(5.07541e-08 5.09773e-08 0 0);
    }
    Table_master
    {
        type            calculated;
        value           nonuniform List<scalar> 9(-1.52963e-07 -1.53092e-07 -1.53121e-07 -1.53128e-07 -1.53129e-07 -1.53126e-07 -1.5312e-07 -1.53109e-07 -1.53076e-07);
    }
    Table_slave
    {
        type            calculated;
        value           nonuniform List<scalar> 9(1.53105e-07 1.53017e-07 1.52903e-07 1.52803e-07 1.5272e-07 1.52667e-07 1.5266e-07 1.5267e-07 1.52727e-07);
    }
    inlet
    {
        type            calculated;
        value           uniform -0.00437276;
    }
    outlet
    {
        type            calculated;
        value           nonuniform List<scalar> 2(0.00627935 0.00215826);
    }
}


// ************************************************************************* //
