// -*- C++ -*-
// File generated by PyFoam - sorry for the ugliness

FoamFile
{
 version 2.0;
 format ascii;
 class volScalarField;
 location "400";
 object T;
}

dimensions [ 0 0 0 1 0 0 0 ];

internalField nonuniform List<scalar> 459
(
  304.829
  304.747
  304.693
  304.556
  304.319
  303.881
  303.241
  303.116
  303.085
  303.078
  303.071
  303.063
  303.056
  303.049
  303.042
  301.797
  301.791
  301.798
  301.755
  301.718
  301.712
  301.724
  301.738
  301.763
  301.774
  301.754
  301.741
  301.736
  301.741
  301.761
  301.795
  301.818
  301.81
  301.805
  305.064
  304.875
  304.804
  304.758
  304.627
  304.329
  303.905
  303.53
  303.219
  303.141
  303.121
  303.107
  303.091
  303.069
  303.038
  303
  302.907
  301.976
  301.98
  301.986
  301.997
  301.99
  301.935
  301.817
  301.843
  301.856
  301.847
  301.849
  301.848
  301.858
  301.89
  301.962
  302.055
  302.051
  301.937
  301.844
  305.008
  304.799
  304.732
  304.724
  304.683
  304.523
  304.219
  303.851
  303.502
  303.249
  303.183
  303.163
  303.144
  303.115
  303.073
  303.02
  302.97
  302.442
  302.346
  302.311
  302.325
  302.335
  302.355
  302.224
  302.107
  301.963
  301.931
  302.002
  302.065
  302.124
  302.184
  302.249
  302.312
  302.222
  302.16
  302.11
  304.867
  304.549
  304.495
  304.537
  304.586
  304.529
  304.314
  303.988
  303.643
  303.352
  303.259
  303.231
  303.215
  303.19
  303.146
  303.082
  303.001
  302.929
  302.854
  302.809
  302.851
  302.936
  303.035
  303.121
  303.185
  303.194
  303.197
  303.2
  303.202
  303.202
  303.2
  303.194
  303.164
  303.02
  302.884
  302.811
  302.815
  304.755
  304.326
  304.31
  304.399
  304.504
  304.498
  304.324
  304.024
  303.692
  303.413
  303.326
  303.311
  303.307
  303.3
  303.283
  303.255
  303.22
  303.185
  303.157
  303.153
  303.17
  303.198
  303.225
  303.244
  303.255
  303.258
  303.261
  303.264
  303.267
  303.272
  303.275
  303.278
  303.275
  303.253
  303.234
  303.216
  303.194
  303.23
  303.228
  303.236
  304.644
  304.177
  304.24
  304.352
  304.475
  304.466
  304.293
  304.004
  303.692
  303.455
  303.382
  303.379
  303.39
  303.395
  303.393
  303.38
  303.361
  303.34
  303.322
  303.312
  303.31
  303.312
  303.314
  303.315
  303.313
  303.311
  303.311
  303.313
  303.319
  303.328
  303.338
  303.35
  303.362
  303.374
  303.387
  303.402
  303.415
  303.416
  303.351
  303.29
  304.516
  304.115
  304.243
  304.374
  304.435
  304.401
  304.232
  303.967
  303.69
  303.493
  303.432
  303.437
  303.458
  303.474
  303.483
  303.482
  303.473
  303.46
  303.444
  303.43
  303.419
  303.408
  303.398
  303.388
  303.377
  303.366
  303.359
  303.357
  303.362
  303.374
  303.391
  303.409
  303.428
  303.445
  303.461
  303.474
  303.481
  303.477
  303.443
  303.307
  304.377
  304.068
  304.191
  304.352
  304.368
  304.312
  304.158
  303.928
  303.694
  303.533
  303.482
  303.489
  303.513
  303.537
  303.555
  303.565
  303.566
  303.561
  303.551
  303.538
  303.524
  303.508
  303.491
  303.473
  303.453
  303.432
  303.412
  303.399
  303.396
  303.405
  303.422
  303.442
  303.461
  303.478
  303.492
  303.504
  303.515
  303.525
  303.532
  303.537
  304.23
  303.953
  303.94
  304.243
  304.269
  304.212
  304.083
  303.897
  303.709
  303.579
  303.541
  303.545
  303.565
  303.588
  303.609
  303.626
  303.636
  303.641
  303.64
  303.635
  303.625
  303.611
  303.593
  303.572
  303.547
  303.518
  303.487
  303.458
  303.437
  303.426
  303.424
  303.431
  303.441
  303.452
  303.461
  303.475
  303.493
  303.514
  303.541
  303.617
  303.531
  304.048
  304.136
  304.112
  304.02
  303.882
  303.734
  303.639
  303.611
  303.61
  303.621
  303.638
  303.656
  303.672
  303.687
  303.699
  303.707
  303.71
  303.709
  303.703
  303.691
  303.674
  303.651
  303.622
  303.587
  303.55
  303.514
  303.483
  303.46
  303.447
  303.443
  303.442
  303.443
  303.445
  303.447
  303.451
  303.46
  303.493
  303.771
  303.998
  304.032
  304.031
  303.977
  303.883
  303.767
  303.711
  303.688
  303.682
  303.685
  303.693
  303.703
  303.715
  303.728
  303.742
  303.754
  303.765
  303.772
  303.774
  303.771
  303.762
  303.747
  303.724
  303.695
  303.66
  303.619
  303.577
  303.538
  303.508
  303.486
  303.472
  303.462
  303.457
  303.455
  303.456
  303.46
  303.496
  304.922
  304.381
  303.863
  303.972
  303.981
  303.978
  303.951
  303.886
  303.819
  303.786
  303.768
  303.759
  303.755
  303.754
  303.755
  303.76
  303.768
  303.779
  303.792
  303.806
  303.818
  303.828
  303.834
  303.835
  303.831
  303.821
  303.805
  303.782
  303.751
  303.715
  303.674
  303.634
  303.597
  303.567
  303.544
  303.527
  303.512
  303.498
  303.485
  303.51
)
;

boundaryField
{
  floor
  {
    type wallHeatTransfer;
    Tinf uniform 305.2;
    alphaWall uniform 0.24;
    value nonuniform List<scalar> 29
(
  303.382
  302.607
  302.565
  302.556
  302.611
  302.698
  302.771
  302.817
  302.871
  302.875
  302.831
  302.805
  302.754
  302.684
  302.612
  302.559
  302.533
  302.521
  302.509
  302.553
  302.553
  302.464
  302.597
  303.093
  303.382
  302.607
  302.569
  302.807
  303.184
)
;
  }
  ceiling
  {
    type wallHeatTransfer;
    Tinf uniform 303.2;
    alphaWall uniform 0.24;
    value nonuniform List<scalar> 43
(
  304.802
  304.315
  303.835
  303.91
  303.917
  303.917
  303.893
  303.832
  303.768
  303.734
  303.715
  303.704
  303.697
  303.693
  303.692
  303.695
  303.7
  303.709
  303.72
  303.732
  303.743
  303.752
  303.758
  303.76
  303.757
  303.748
  303.734
  303.714
  303.688
  303.656
  303.621
  303.586
  303.555
  303.528
  303.508
  303.492
  303.478
  303.464
  303.453
  303.474
  304.197
  303.932
  303.753
)
;
  }
  sWall
  {
    type wallHeatTransfer;
    Tinf uniform 315.2;
    alphaWall uniform 0.36;
    value uniform 305.962;
  }
  nWall
  {
    type wallHeatTransfer;
    Tinf uniform 307.2;
    alphaWall uniform 0.36;
    value nonuniform List<scalar> 6
(
  303.853
  303.866
  303.892
  303.939
  303.985
  304.118
)
;
  }
  sideWalls
  {
    type empty;
  }
  glass1
  {
    type wallHeatTransfer;
    Tinf uniform 315.2;
    alphaWall uniform 4.3;
    value nonuniform List<scalar> 9
(
  311.223
  310.906
  309.754
  309.484
  309.299
  309.128
  308.936
  308.702
  308.376
)
;
  }
  glass2
  {
    type wallHeatTransfer;
    Tinf uniform 307.2;
    alphaWall uniform 4.3;
    value nonuniform List<scalar> 2
(
  305.921
  305.839
)
;
  }
  sun
  {
    type wallHeatTransfer;
    Tinf uniform 305.2;
    alphaWall uniform 0.24;
    value nonuniform List<scalar> 14
(
  304.858
  304.777
  304.726
  304.602
  304.389
  304.001
  303.474
  303.398
  303.401
  303.406
  303.407
  303.403
  303.396
  303.388
)
;
  }
  heatsource1
  {
    type fixedGradient;
    gradient uniform 0;
  }
  heatsource2
  {
    type fixedGradient;
    gradient uniform 0;
  }
  Table_master
  {
    type zeroGradient;
  }
  Table_slave
  {
    type zeroGradient;
  }
  inlet
  {
    type fixedValue;
    value uniform 290.15;
  }
  outlet
  {
    type zeroGradient;
  }
} 	// ************************************************************************* //

