/*--------------------------------*- C++ -*----------------------------------*\
  =========                 |
  \\      /  F ield         | OpenFOAM: The Open Source CFD Toolbox
   \\    /   O peration     | Website:  https://openfoam.org
    \\  /    A nd           | Version:  6
     \\/     M anipulation  |
\*---------------------------------------------------------------------------*/
FoamFile
{
    version     2.0;
    format      ascii;
    class       volScalarField;
    location    "1600";
    object      alphat;
}
// * * * * * * * * * * * * * * * * * * * * * * * * * * * * * * * * * * * * * //

dimensions      [1 -1 -1 0 0 0 0];

internalField   nonuniform List<scalar> 
459
(
0.00125272
0.00136965
0.00139519
0.00146224
0.00152433
0.00158243
0.00163938
0.00169512
0.00173451
0.0017512
0.0017393
0.00169515
0.00161852
0.00151592
0.00140337
0.0005504
0.000673447
0.00075716
0.00075182
0.000725581
0.000691353
0.000648717
0.000606557
0.000568292
0.000534298
0.000504174
0.000477385
0.000453551
0.000432134
0.000412376
0.000393287
0.000373406
0.000359147
0.000327081
0.00170583
0.00416747
0.0039892
0.00464339
0.00528628
0.00592941
0.00649765
0.00692532
0.00731242
0.00762743
0.00782639
0.00785932
0.00764979
0.00700637
0.00523775
0.00143058
0.000843716
0.000595704
0.00124948
0.00172338
0.00206035
0.00223663
0.00222586
0.00179151
0.00154587
0.00136981
0.00123455
0.00112692
0.00103924
0.000963502
0.000892925
0.000824606
0.000764003
0.000711386
0.000833138
0.000427141
0.00208238
0.00569234
0.0049494
0.00620796
0.00683669
0.0073041
0.00766792
0.00795826
0.00827279
0.00860058
0.00890321
0.00912593
0.00920789
0.00905973
0.00844322
0.00651384
0.00142174
0.00118957
0.00170626
0.0021818
0.0026021
0.00288316
0.00279873
0.000928633
0.000820167
0.000733061
0.000662787
0.000605535
0.000558384
0.000519242
0.000486773
0.000460422
0.000495839
0.000572725
0.000936553
0.000493845
0.00244335
0.00727613
0.0049645
0.00657068
0.00712408
0.00731452
0.00743978
0.00759101
0.00784237
0.00817742
0.00855706
0.00891307
0.00918242
0.00929546
0.0091667
0.0085057
0.00623869
0.00170231
0.00211082
0.00272183
0.00330524
0.00375978
0.00403032
0.00376649
0.00104763
0.000953868
0.000886743
0.000835608
0.000792217
0.000752474
0.000714334
0.000674337
0.00062796
0.000588599
0.000601019
0.00106886
0.000545514
0.00281112
0.0093101
0.00546052
0.00632735
0.00706033
0.00711396
0.00705917
0.0071419
0.00736419
0.00770413
0.00812912
0.00854508
0.00886511
0.00901864
0.00898037
0.00870111
0.00798567
0.00660304
0.0061266
0.00596403
0.00590119
0.00585677
0.0057836
0.00555337
0.00468819
0.00427407
0.0040344
0.00384969
0.00365468
0.00337299
0.00299179
0.00252795
0.00201144
0.00148964
0.00109749
0.00109842
0.000731392
0.000672254
0.000814007
0.00091372
0.00320083
0.0115238
0.00752044
0.00630554
0.00685739
0.0071094
0.00695854
0.00702673
0.00719389
0.00749762
0.00792483
0.00837925
0.00873069
0.00887756
0.00879581
0.00853954
0.00819673
0.00783798
0.00763191
0.0074747
0.00729695
0.00709751
0.00687898
0.00661215
0.00622411
0.00587861
0.00557161
0.00527582
0.00497341
0.00464417
0.00423011
0.00371543
0.0030997
0.00241747
0.00181305
0.00135503
0.00102186
0.00086901
0.00123858
0.00095366
0.00355497
0.01307
0.0105378
0.00813632
0.0076963
0.00760397
0.00735038
0.00718938
0.00724181
0.00753664
0.00800913
0.00851538
0.00888515
0.00899869
0.00884358
0.00853163
0.00826029
0.0081619
0.00816243
0.00807581
0.0078528
0.00753656
0.0071655
0.00675845
0.00633151
0.00593359
0.00556587
0.00522074
0.00490029
0.00461334
0.00436028
0.00401701
0.00353791
0.00295346
0.00239145
0.00188858
0.00152175
0.00141319
0.00144229
0.00108981
0.00362127
0.0116174
0.0103278
0.00954093
0.00884335
0.00803596
0.00740425
0.00715346
0.00730845
0.00778267
0.0084129
0.00899095
0.00932138
0.00931061
0.00900433
0.00859532
0.0083447
0.00833386
0.00832836
0.00806526
0.00761807
0.007074
0.00650223
0.00595898
0.00548077
0.00507527
0.00472885
0.00443572
0.00420114
0.00403455
0.00394344
0.00389725
0.00365931
0.00328808
0.00296404
0.00280566
0.00292776
0.00337929
0.00413638
0.00169892
0.00352156
0.0041793
0.00464274
0.00476069
0.00486038
0.00513157
0.00567699
0.0065066
0.00752396
0.00855285
0.00940314
0.00989613
0.00991379
0.0095117
0.00890581
0.0084828
0.00824115
0.00802833
0.00767704
0.00712654
0.00645702
0.00576929
0.00514594
0.00462806
0.00421542
0.00388553
0.00361621
0.00339382
0.00320878
0.00305034
0.00290629
0.00277387
0.00266912
0.00259226
0.0025647
0.00257754
0.00256245
0.00245729
0.0022939
0.00159618
0.00176275
0.00360925
0.00584126
0.00769651
0.00914172
0.0102431
0.0109365
0.0112087
0.0111008
0.0106037
0.00982263
0.00885055
0.00802177
0.00750393
0.00708433
0.00657286
0.00595034
0.00528701
0.00465675
0.00411076
0.00367662
0.00334071
0.00307991
0.00287606
0.00271794
0.00259915
0.00251545
0.00246392
0.00244543
0.00245707
0.00248289
0.00251871
0.00255552
0.00256491
0.00250121
0.00235006
0.0021236
0.00132553
0.00235412
0.00603403
0.0089804
0.0100903
0.0106467
0.0108178
0.0105728
0.00998232
0.00916702
0.00824433
0.00737096
0.00659328
0.00596619
0.0054332
0.00489651
0.00436819
0.00389883
0.00351463
0.0032141
0.00298126
0.00279155
0.00263276
0.00250016
0.00239768
0.00232663
0.00228501
0.00227031
0.00227915
0.0023173
0.00238112
0.00246656
0.00256519
0.00265801
0.00272186
0.00270134
0.00272847
0.00276472
0.00135175
0.00208768
0.00221262
0.00230075
0.00246272
0.00237581
0.00227533
0.00221038
0.0021199
0.00199089
0.00183091
0.001651
0.00146389
0.00128207
0.00112578
0.00100761
0.000923755
0.000864454
0.000821761
0.000790772
0.000768681
0.000753785
0.000745082
0.000741972
0.000744722
0.000753843
0.000768798
0.000789471
0.000816239
0.000849751
0.000890997
0.000938873
0.00099346
0.00105534
0.00112502
0.00120194
0.00129324
0.00132282
0.0012887
0.00121025
0.00112685
)
;

boundaryField
{
    floor
    {
        type            compressible::alphatWallFunction;
        Prt             0.85;
        value           nonuniform List<scalar> 
29
(
0.000197957
7.69219e-05
9.53023e-05
0.00010757
0.000106793
0.000102963
9.79414e-05
9.1644e-05
8.5367e-05
7.96235e-05
7.44808e-05
6.98894e-05
6.57774e-05
6.20944e-05
5.87639e-05
5.56728e-05
5.26683e-05
4.9519e-05
4.7247e-05
4.20941e-05
4.20935e-05
5.79848e-05
6.83075e-05
7.61825e-05
0.000197955
7.69209e-05
8.37423e-05
0.000168729
0.000238009
)
;
    }
    ceiling
    {
        type            compressible::alphatWallFunction;
        Prt             0.85;
        value           nonuniform List<scalar> 
43
(
0.00028842
0.000304566
0.000315898
0.000336727
0.000325686
0.00031283
0.000304487
0.000292809
0.000276058
0.000255118
0.000231323
0.000206267
0.000181573
0.000160025
0.000143506
0.000131647
0.000123184
0.000117049
0.000112572
0.000109368
0.000107201
0.000105933
0.000105479
0.000105881
0.00010721
0.000109386
0.000112385
0.000116254
0.000121077
0.000126982
0.000133796
0.000141516
0.000150207
0.000159925
0.000170571
0.000183108
0.000187148
0.000182488
0.000171718
0.000160183
0.000469226
0.000549224
0.000322568
)
;
    }
    sWall
    {
        type            compressible::alphatWallFunction;
        Prt             0.85;
        value           uniform 0.00028721;
    }
    nWall
    {
        type            compressible::alphatWallFunction;
        Prt             0.85;
        value           nonuniform List<scalar> 6(0.000129902 0.000135567 0.000154687 0.000187192 0.000190761 0.000159861);
    }
    sideWalls
    {
        type            empty;
    }
    glass1
    {
        type            compressible::alphatWallFunction;
        Prt             0.85;
        value           nonuniform List<scalar> 9(0.000173137 0.000233387 0.000282234 0.000328253 0.000374466 0.000422793 0.000466229 0.000474442 0.000462509);
    }
    glass2
    {
        type            compressible::alphatWallFunction;
        Prt             0.85;
        value           nonuniform List<scalar> 2(0.000236003 0.000222449);
    }
    sun
    {
        type            compressible::alphatWallFunction;
        Prt             0.85;
        value           nonuniform List<scalar> 
14
(
0.000177439
0.000193389
0.000196854
0.000205919
0.000214272
0.000222054
0.000229652
0.000237059
0.000242277
0.000244485
0.00024291
0.000237061
0.000226869
0.000213139
)
;
    }
    heatsource1
    {
        type            compressible::alphatWallFunction;
        Prt             0.85;
        value           nonuniform List<scalar> 3(9.523e-05 0.000115915 0.000130204);
    }
    heatsource2
    {
        type            compressible::alphatWallFunction;
        Prt             0.85;
        value           nonuniform List<scalar> 4(0.000201761 0.000120193 0.000120192 0.000200563);
    }
    Table_master
    {
        type            compressible::alphatWallFunction;
        Prt             0.85;
        value           nonuniform List<scalar> 9(0.000132322 0.000116801 0.00010416 9.38287e-05 8.53133e-05 7.82258e-05 7.22857e-05 6.73157e-05 6.32513e-05);
    }
    Table_slave
    {
        type            compressible::alphatWallFunction;
        Prt             0.85;
        value           nonuniform List<scalar> 9(0.00014911 0.000135905 0.000126358 0.000119028 0.000112766 0.000106994 0.000101421 9.55377e-05 8.86621e-05);
    }
    inlet
    {
        type            fixedValue;
        value           uniform 1.94e-05;
    }
    outlet
    {
        type            zeroGradient;
    }
}


// ************************************************************************* //
