/*--------------------------------*- C++ -*----------------------------------*\
  =========                 |
  \\      /  F ield         | OpenFOAM: The Open Source CFD Toolbox
   \\    /   O peration     | Website:  https://openfoam.org
    \\  /    A nd           | Version:  6
     \\/     M anipulation  |
\*---------------------------------------------------------------------------*/
FoamFile
{
    version     2.0;
    format      ascii;
    class       volScalarField;
    location    "800";
    object      nut;
}
// * * * * * * * * * * * * * * * * * * * * * * * * * * * * * * * * * * * * * //

dimensions      [0 2 -1 0 0 0 0];

internalField   nonuniform List<scalar> 
459
(
0.000990597
0.00107282
0.00108589
0.0011346
0.00117893
0.00121949
0.00125798
0.00129655
0.00133
0.00135073
0.00135365
0.00133448
0.0012923
0.0012331
0.00116845
0.00043259
0.000532351
0.000577503
0.000559389
0.000533521
0.000505446
0.000475824
0.000447928
0.000422735
0.000400209
0.000380067
0.000362079
0.000345921
0.000331175
0.00031736
0.00030378
0.000289332
0.00028065
0.000258008
0.00137542
0.0031101
0.00289681
0.00335805
0.00378539
0.00422331
0.00463729
0.00497156
0.00524626
0.00548379
0.00564483
0.00567452
0.00548818
0.0049111
0.00348361
0.00118004
0.000797294
0.00052443
0.0009196
0.00118113
0.00134926
0.00141993
0.00140358
0.00120276
0.00107007
0.000969194
0.000888547
0.000822218
0.000765018
0.000713118
0.000664263
0.000617442
0.000577371
0.000539884
0.000645439
0.000349525
0.00170205
0.00426001
0.00349805
0.00451615
0.00496772
0.00529455
0.00554199
0.00573617
0.00592565
0.00613638
0.00634372
0.00650804
0.00657347
0.00647322
0.00608138
0.00496506
0.00114916
0.000979963
0.00129531
0.00153849
0.00172646
0.00183719
0.00177579
0.000664357
0.00059573
0.000539968
0.000494404
0.000456826
0.000425524
0.000399247
0.000377168
0.000358865
0.00038405
0.000437072
0.000722111
0.000409688
0.00202174
0.00559632
0.00344124
0.00479282
0.00525051
0.00538592
0.0054273
0.00547896
0.00559259
0.00578191
0.00602056
0.00627557
0.00648844
0.00660493
0.00657677
0.00620667
0.00485077
0.00129722
0.00161476
0.00199333
0.00228031
0.00246697
0.00256957
0.00242086
0.000739724
0.000685814
0.000649004
0.000621901
0.000598446
0.00057488
0.00055183
0.000526792
0.00049642
0.000466087
0.000466573
0.000831448
0.000456282
0.00234987
0.00735263
0.00381357
0.00452344
0.00521717
0.00528572
0.0051864
0.00512818
0.00521695
0.00540705
0.00566459
0.00596734
0.00623651
0.00639127
0.00638723
0.00617702
0.00564531
0.00460041
0.00413921
0.00388604
0.00372163
0.00362128
0.00356838
0.00349052
0.00309254
0.0029283
0.00284582
0.00277716
0.00268555
0.00253028
0.00227898
0.00195308
0.0015774
0.00118276
0.000867609
0.000848906
0.000600279
0.000580713
0.000702438
0.000784864
0.00269719
0.00926732
0.00548681
0.00429962
0.00483729
0.00512463
0.00516924
0.00497367
0.00507721
0.00525612
0.00551173
0.00581971
0.00610329
0.00626542
0.00623315
0.00599027
0.00558344
0.00511171
0.00476871
0.00451941
0.00432605
0.004191
0.00410047
0.00402268
0.00391023
0.00381841
0.00373151
0.00363287
0.00351325
0.0033649
0.00313645
0.00281042
0.00238547
0.00188481
0.00141769
0.001032
0.000803053
0.00070171
0.00102013
0.000815513
0.00302497
0.0106833
0.00815815
0.00569324
0.00506383
0.00508977
0.0052055
0.00517177
0.00518045
0.00529497
0.0055366
0.00585787
0.00615493
0.00630719
0.00622865
0.00591561
0.00546547
0.00505491
0.00480028
0.00462756
0.00445353
0.00426648
0.00408681
0.00394483
0.00384307
0.003767
0.00369125
0.00360478
0.00350733
0.00340491
0.00329842
0.00308355
0.00273444
0.00229003
0.00185329
0.00144256
0.00116098
0.00107734
0.0011139
0.000905669
0.00309601
0.00982158
0.00853421
0.00759883
0.00681049
0.00632353
0.00586953
0.00548625
0.00533004
0.00542501
0.00571302
0.00607919
0.0063787
0.00647478
0.00628852
0.00584989
0.00530496
0.00489104
0.0046864
0.00443352
0.00411364
0.00381626
0.00360008
0.00346789
0.00338964
0.00333267
0.00327763
0.00322169
0.00317179
0.00314004
0.0031399
0.00314859
0.00292187
0.00260515
0.00232055
0.00216959
0.00225251
0.00264198
0.00335076
0.00144708
0.00302118
0.00360868
0.00405567
0.00425281
0.00435958
0.00437375
0.00443895
0.00466184
0.00505315
0.00556485
0.00610355
0.00654419
0.00676024
0.00665408
0.00620271
0.00553942
0.00494956
0.00452884
0.00415244
0.00372973
0.00335508
0.00309735
0.00294256
0.00284993
0.00278564
0.00272863
0.00266869
0.00260226
0.0025279
0.00244378
0.00234782
0.0022428
0.00215241
0.00208633
0.00206888
0.00209466
0.00210472
0.0020402
0.00191688
0.00136415
0.00172794
0.00330999
0.00428483
0.00495749
0.00559869
0.00617189
0.00667067
0.00706002
0.00730292
0.00730389
0.00700183
0.0063709
0.00548641
0.00462967
0.00404414
0.00356709
0.00310515
0.00273873
0.00250213
0.00236112
0.00227388
0.00221309
0.00216417
0.00212034
0.00207955
0.00204242
0.00201112
0.001989
0.00198064
0.00199299
0.00201359
0.00204323
0.00207763
0.00209414
0.00205306
0.00193718
0.0017589
0.00113288
0.00206068
0.00441462
0.00578361
0.006319
0.00681314
0.00722507
0.00731801
0.00726215
0.00709851
0.00653281
0.0056864
0.00475759
0.00395035
0.00331878
0.00281305
0.00242862
0.00218341
0.0020305
0.00192305
0.00185131
0.00180176
0.00176782
0.00174696
0.00173849
0.0017424
0.00175867
0.00178654
0.00182365
0.00187284
0.00193722
0.00201521
0.00210204
0.00218458
0.00224419
0.00223998
0.00228017
0.00229871
0.00115267
0.00179195
0.00189672
0.00197282
0.00208535
0.00197171
0.00184084
0.00171531
0.00159619
0.00150312
0.00140248
0.00127973
0.00114535
0.000991177
0.00083966
0.000715453
0.000632099
0.000584353
0.000560814
0.000552236
0.000552861
0.000560105
0.00057065
0.000584072
0.00060027
0.000619267
0.000641169
0.000666167
0.000694589
0.000727004
0.000764429
0.000807202
0.000854559
0.000907249
0.000966054
0.00103115
0.00110865
0.00113796
0.00111233
0.00104398
0.000972585
)
;

boundaryField
{
    floor
    {
        type            nutkWallFunction;
        Cmu             0.09;
        kappa           0.41;
        E               9.8;
        value           nonuniform List<scalar> 
29
(
0.000140366
5.10144e-05
6.38264e-05
6.95237e-05
6.72444e-05
6.3974e-05
6.04022e-05
5.66071e-05
5.30058e-05
4.97294e-05
4.67787e-05
4.41226e-05
4.1735e-05
3.95774e-05
3.75969e-05
3.57309e-05
3.38864e-05
3.1912e-05
3.07194e-05
2.7585e-05
2.75849e-05
4.00602e-05
4.80237e-05
5.40883e-05
0.000140366
5.10144e-05
6.28252e-05
0.000118362
0.000155161
)
;
    }
    ceiling
    {
        type            nutkWallFunction;
        Cmu             0.09;
        kappa           0.41;
        E               9.8;
        value           nonuniform List<scalar> 
43
(
0.000210497
0.000221998
0.00023031
0.000242624
0.000230299
0.000215984
0.000202142
0.000188901
0.000178479
0.000167128
0.000153158
0.000137688
0.000119682
0.000101667
8.66138e-05
7.63393e-05
7.03818e-05
6.74235e-05
6.63422e-05
6.64216e-05
6.7336e-05
6.86639e-05
7.03497e-05
7.23776e-05
7.47477e-05
7.74691e-05
8.05616e-05
8.40607e-05
8.80308e-05
9.25882e-05
9.77648e-05
0.000103459
0.000109751
0.000116723
0.000124386
0.000133435
0.00013684
0.000133864
0.000125889
0.000117495
0.000342346
0.000403109
0.00023976
)
;
    }
    sWall
    {
        type            nutkWallFunction;
        Cmu             0.09;
        kappa           0.41;
        E               9.8;
        value           uniform 0.000210556;
    }
    nWall
    {
        type            nutkWallFunction;
        Cmu             0.09;
        kappa           0.41;
        E               9.8;
        value           nonuniform List<scalar> 6(9.50657e-05 9.87678e-05 0.000109565 0.000136259 0.000138554 0.000117501);
    }
    sideWalls
    {
        type            empty;
    }
    glass1
    {
        type            nutkWallFunction;
        Cmu             0.09;
        kappa           0.41;
        E               9.8;
        value           nonuniform List<scalar> 9(0.000119691 0.000164264 0.000200979 0.000236168 0.000271665 0.000308669 0.000343135 0.000350563 0.000342765);
    }
    glass2
    {
        type            nutkWallFunction;
        Cmu             0.09;
        kappa           0.41;
        E               9.8;
        value           nonuniform List<scalar> 2(0.000172253 0.000162855);
    }
    sun
    {
        type            nutkWallFunction;
        Cmu             0.09;
        kappa           0.41;
        E               9.8;
        value           nonuniform List<scalar> 
14
(
0.00011962
0.000129259
0.000130783
0.000136447
0.000141578
0.000146252
0.000150673
0.000155087
0.000158904
0.000161263
0.000161595
0.000159414
0.0001546
0.000147817
)
;
    }
    heatsource1
    {
        type            nutkWallFunction;
        Cmu             0.09;
        kappa           0.41;
        E               9.8;
        value           nonuniform List<scalar> 3(6.99313e-05 8.50249e-05 9.50655e-05);
    }
    heatsource2
    {
        type            nutkWallFunction;
        Cmu             0.09;
        kappa           0.41;
        E               9.8;
        value           nonuniform List<scalar> 4(0.0001417 9.65686e-05 9.65686e-05 0.00013813);
    }
    Table_master
    {
        type            nutkWallFunction;
        Cmu             0.09;
        kappa           0.41;
        E               9.8;
        value           nonuniform List<scalar> 9(8.03367e-05 7.18104e-05 6.47946e-05 5.89959e-05 5.41636e-05 5.01004e-05 4.66603e-05 4.37477e-05 4.13166e-05);
    }
    Table_slave
    {
        type            nutkWallFunction;
        Cmu             0.09;
        kappa           0.41;
        E               9.8;
        value           nonuniform List<scalar> 9(8.95797e-05 8.29805e-05 7.84392e-05 7.50758e-05 7.21507e-05 6.91977e-05 6.62949e-05 6.3125e-05 5.92545e-05);
    }
    inlet
    {
        type            calculated;
        value           uniform 0.000100623;
    }
    outlet
    {
        type            calculated;
        value           nonuniform List<scalar> 2(0.00179195 0.00189672);
    }
}


// ************************************************************************* //
