/*--------------------------------*- C++ -*----------------------------------*\
  =========                 |
  \\      /  F ield         | OpenFOAM: The Open Source CFD Toolbox
   \\    /   O peration     | Website:  https://openfoam.org
    \\  /    A nd           | Version:  6
     \\/     M anipulation  |
\*---------------------------------------------------------------------------*/
FoamFile
{
    version     2.0;
    format      ascii;
    class       volScalarField;
    location    "200";
    object      nut;
}
// * * * * * * * * * * * * * * * * * * * * * * * * * * * * * * * * * * * * * //

dimensions      [0 2 -1 0 0 0 0];

internalField   nonuniform List<scalar> 
459
(
0.00113991
0.00125125
0.00128131
0.00134566
0.00140636
0.00146511
0.00152586
0.00157421
0.00160185
0.00160264
0.00157263
0.00150864
0.00140509
0.00124282
0.000996759
0.000507914
0.000607112
0.00069961
0.00072871
0.000717669
0.000692658
0.000649531
0.000604286
0.000563121
0.000526841
0.000494979
0.000466914
0.000441953
0.000419758
0.000399459
0.000380019
0.000359955
0.000342416
0.000309409
0.00153024
0.00384773
0.00373414
0.00435217
0.00497225
0.00556391
0.00600981
0.0064016
0.00673859
0.00698879
0.00712644
0.00712806
0.00695643
0.0065167
0.00531126
0.00120175
0.000838642
0.000515202
0.00122062
0.00180313
0.00226552
0.00254809
0.00254046
0.0018897
0.00158478
0.00137862
0.00122569
0.00110727
0.00101282
0.000936605
0.00086505
0.000792915
0.000726192
0.000668729
0.000750683
0.000381125
0.00185087
0.0052346
0.00465131
0.0056635
0.00617289
0.00655583
0.00684798
0.00714631
0.00746822
0.00778823
0.00807168
0.00828098
0.00834995
0.00818599
0.00753407
0.00558954
0.00126124
0.000919826
0.00150137
0.00213454
0.00276929
0.00323217
0.00314086
0.000917219
0.000800509
0.000706769
0.000631555
0.000570723
0.000521016
0.000480031
0.000446546
0.000420258
0.000459553
0.000538375
0.000853608
0.000431289
0.00215508
0.00658333
0.00470089
0.00592529
0.00626243
0.00639905
0.00653581
0.00675737
0.00706526
0.00743076
0.00780982
0.0081488
0.00835256
0.00839785
0.00820825
0.00740098
0.00446039
0.00146137
0.00179928
0.0024377
0.00320934
0.00392704
0.00440653
0.00412062
0.00104138
0.000940871
0.000867102
0.000809038
0.000759516
0.000715409
0.000672717
0.00062831
0.00057788
0.000534796
0.000551079
0.000975879
0.000471951
0.00246415
0.00830477
0.00513645
0.00581108
0.00618203
0.00618171
0.00622823
0.0064017
0.00669596
0.00708493
0.00750289
0.00785844
0.00807807
0.00814237
0.00806774
0.0077953
0.00703246
0.00610762
0.00588855
0.0059855
0.00618288
0.00634424
0.00637559
0.00610244
0.00499179
0.0044318
0.00408786
0.00382004
0.00354002
0.00318892
0.0027682
0.00228996
0.0017801
0.00129302
0.00095472
0.000997049
0.000628225
0.000577271
0.000700441
0.00078795
0.00279266
0.0102029
0.00693668
0.00600341
0.00632918
0.00626917
0.00626064
0.00633793
0.00656842
0.006955
0.00740341
0.00778027
0.00798227
0.00799116
0.00788546
0.00778344
0.00774372
0.00778884
0.00793007
0.00803878
0.00804055
0.00792443
0.00769287
0.00732295
0.00675347
0.00623747
0.00579201
0.00538154
0.00497296
0.00451886
0.00400666
0.00342516
0.00278081
0.00211843
0.00157656
0.00121443
0.000900202
0.00076512
0.00108865
0.000824234
0.00308752
0.0115092
0.00953815
0.00766955
0.00726736
0.00682733
0.00649233
0.00641825
0.00663312
0.00706896
0.00757478
0.00797459
0.0081487
0.00809636
0.00796209
0.00797764
0.00828107
0.00871988
0.00902251
0.00907821
0.00891238
0.00858996
0.00815928
0.00764305
0.00705773
0.0064851
0.00595106
0.00545307
0.00499202
0.00457696
0.00420657
0.00376418
0.00323997
0.00265405
0.0021293
0.00169171
0.00136283
0.00127461
0.00130174
0.000958777
0.0031419
0.0100572
0.00905413
0.00822553
0.00737325
0.00665157
0.00630655
0.00638993
0.00682841
0.00745871
0.00806294
0.00844613
0.00852332
0.00836854
0.00823999
0.00843613
0.00894161
0.00935519
0.00943609
0.00923918
0.00883591
0.00829042
0.00765031
0.00695828
0.00626582
0.00562506
0.00505534
0.00456459
0.00416527
0.00387063
0.00368421
0.00356274
0.00330246
0.00294145
0.00265532
0.00252417
0.00263954
0.00304883
0.00369391
0.00147155
0.0030583
0.00361239
0.00395591
0.00402874
0.00420939
0.0046791
0.00545815
0.00646558
0.00753248
0.00844275
0.00899386
0.00908921
0.00882589
0.00851497
0.00859886
0.00884097
0.0090333
0.00903079
0.00878563
0.00833327
0.00772482
0.00700852
0.00623706
0.00547553
0.0047818
0.00418796
0.00369909
0.00330965
0.00300843
0.00277799
0.0025972
0.00245895
0.00236041
0.00229203
0.00226512
0.00226765
0.0022424
0.00214059
0.00199345
0.00137989
0.001342
0.00302223
0.00575814
0.00774129
0.00910016
0.00995029
0.0103183
0.0102362
0.00980719
0.00914359
0.00848134
0.00809949
0.00806043
0.00804108
0.00786927
0.0075178
0.00700186
0.00636426
0.00566562
0.00497131
0.00433444
0.00378413
0.00333013
0.00296648
0.0026847
0.00247654
0.00233227
0.00224413
0.00220467
0.00219893
0.00221447
0.00224344
0.00227444
0.00228192
0.0022287
0.00210877
0.00191606
0.00115496
0.00196029
0.00590791
0.00856557
0.00947191
0.00973815
0.00956574
0.00904908
0.00833681
0.00761643
0.0069955
0.00652429
0.00621381
0.00597264
0.00569444
0.00535698
0.00496348
0.00452845
0.00408556
0.00367417
0.00332062
0.00303159
0.00279983
0.00261366
0.00246281
0.0023405
0.00224488
0.00217805
0.00214193
0.00213759
0.00216425
0.00221835
0.0022903
0.00236078
0.00241123
0.00238305
0.00240901
0.00245549
0.00118
0.00178562
0.00189374
0.00197025
0.00214056
0.0020663
0.00198623
0.00191631
0.0018134
0.00167869
0.00152619
0.00136955
0.00122562
0.00111121
0.00102803
0.000967841
0.000921474
0.000882521
0.000847405
0.000815028
0.000785931
0.000761043
0.000740903
0.000725605
0.000715134
0.000709706
0.000709914
0.000716547
0.000730329
0.000751783
0.000780952
0.000817682
0.000861942
0.000913889
0.000973569
0.00103964
0.0011197
0.0011391
0.00110502
0.00104093
0.000970484
)
;

boundaryField
{
    floor
    {
        type            nutkWallFunction;
        Cmu             0.09;
        kappa           0.41;
        E               9.8;
        value           nonuniform List<scalar> 
29
(
0.000120328
6.07201e-05
7.32332e-05
8.4678e-05
8.82408e-05
8.68918e-05
8.3826e-05
7.85075e-05
7.28816e-05
6.77186e-05
6.31299e-05
5.90677e-05
5.54626e-05
5.22335e-05
4.93428e-05
4.66821e-05
4.41177e-05
4.14534e-05
3.91084e-05
3.46523e-05
3.46522e-05
4.42626e-05
5.08447e-05
5.6109e-05
0.000120328
6.072e-05
6.16479e-05
0.000111241
0.000173788
)
;
    }
    ceiling
    {
        type            nutkWallFunction;
        Cmu             0.09;
        kappa           0.41;
        E               9.8;
        value           nonuniform List<scalar> 
43
(
0.000209805
0.000221678
0.000230037
0.000248626
0.000240622
0.000231926
0.000224295
0.000213001
0.000198109
0.000181088
0.000163407
0.000146963
0.000133736
0.000124024
0.00011694
0.000111448
0.00010681
0.000102607
9.87146e-05
9.52005e-05
9.21826e-05
8.97316e-05
8.78645e-05
8.65837e-05
8.59184e-05
8.59433e-05
8.67547e-05
8.84384e-05
9.10525e-05
9.45928e-05
9.9029e-05
0.000104344
0.000110542
0.000117612
0.000125381
0.000134722
0.000136973
0.000133015
0.000125532
0.000117248
0.000346202
0.000403466
0.000228801
)
;
    }
    sWall
    {
        type            nutkWallFunction;
        Cmu             0.09;
        kappa           0.41;
        E               9.8;
        value           uniform 0.000209863;
    }
    nWall
    {
        type            nutkWallFunction;
        Cmu             0.09;
        kappa           0.41;
        E               9.8;
        value           nonuniform List<scalar> 6(9.54387e-05 9.98179e-05 0.000115868 0.000138822 0.000141718 0.000117253);
    }
    sideWalls
    {
        type            empty;
    }
    glass1
    {
        type            nutkWallFunction;
        Cmu             0.09;
        kappa           0.41;
        E               9.8;
        value           nonuniform List<scalar> 9(0.000137188 0.000181774 0.000217439 0.000250655 0.000283892 0.00031874 0.000349656 0.000355333 0.000346633);
    }
    glass2
    {
        type            nutkWallFunction;
        Cmu             0.09;
        kappa           0.41;
        E               9.8;
        value           nonuniform List<scalar> 2(0.000175015 0.000164645);
    }
    sun
    {
        type            nutkWallFunction;
        Cmu             0.09;
        kappa           0.41;
        E               9.8;
        value           nonuniform List<scalar> 
14
(
0.000137067
0.000149902
0.000153346
0.000160687
0.000167577
0.000174215
0.000181047
0.000186463
0.00018955
0.000189638
0.000186284
0.00017911
0.00016743
0.000148928
)
;
    }
    heatsource1
    {
        type            nutkWallFunction;
        Cmu             0.09;
        kappa           0.41;
        E               9.8;
        value           nonuniform List<scalar> 3(6.94973e-05 8.47787e-05 9.54385e-05);
    }
    heatsource2
    {
        type            nutkWallFunction;
        Cmu             0.09;
        kappa           0.41;
        E               9.8;
        value           nonuniform List<scalar> 4(0.000144208 0.000101554 0.000101554 0.00015104);
    }
    Table_master
    {
        type            nutkWallFunction;
        Cmu             0.09;
        kappa           0.41;
        E               9.8;
        value           nonuniform List<scalar> 9(0.000110937 9.69582e-05 8.55572e-05 7.6279e-05 6.86776e-05 6.23928e-05 5.71552e-05 5.28348e-05 4.94145e-05);
    }
    Table_slave
    {
        type            nutkWallFunction;
        Cmu             0.09;
        kappa           0.41;
        E               9.8;
        value           nonuniform List<scalar> 9(0.000125585 0.000113744 0.000104962 9.79876e-05 9.19931e-05 8.6615e-05 8.13716e-05 7.58752e-05 6.95758e-05);
    }
    inlet
    {
        type            calculated;
        value           uniform 0.000100623;
    }
    outlet
    {
        type            calculated;
        value           nonuniform List<scalar> 2(0.00178562 0.00189374);
    }
}


// ************************************************************************* //
