/*--------------------------------*- C++ -*----------------------------------*\
  =========                 |
  \\      /  F ield         | OpenFOAM: The Open Source CFD Toolbox
   \\    /   O peration     | Website:  https://openfoam.org
    \\  /    A nd           | Version:  6
     \\/     M anipulation  |
\*---------------------------------------------------------------------------*/
FoamFile
{
    version     2.0;
    format      ascii;
    class       volScalarField;
    location    "120";
    object      alphat;
}
// * * * * * * * * * * * * * * * * * * * * * * * * * * * * * * * * * * * * * //

dimensions      [1 -1 -1 0 0 0 0];

internalField   nonuniform List<scalar> 
459
(
0.00182456
0.00222476
0.0022186
0.00211061
0.00199245
0.00188354
0.00178633
0.00169911
0.00161836
0.00154138
0.00146572
0.00138861
0.00130617
0.00121099
0.0011019
0.000728942
0.000970998
0.00103487
0.00106241
0.00102571
0.00097703
0.000913042
0.000850415
0.000794893
0.000746754
0.00070509
0.000668849
0.000636861
0.000608287
0.000582048
0.000556279
0.00052963
0.000490031
0.00047824
0.00209309
0.00644471
0.00552147
0.00494122
0.00456834
0.00433349
0.00414811
0.0039564
0.00374864
0.00351364
0.00323764
0.00290646
0.00251037
0.00204462
0.0015552
0.00106591
0.000934507
0.0011389
0.00351312
0.00313467
0.00330395
0.00351155
0.00343933
0.00260909
0.00219489
0.00191354
0.0017046
0.00154269
0.00141438
0.00131342
0.00122275
0.00112069
0.00102029
0.0009956
0.000927745
0.000602245
0.00214288
0.00730478
0.00541336
0.00475037
0.00450203
0.00451049
0.00459838
0.0046426
0.00459127
0.00442504
0.00414027
0.00374232
0.00324632
0.00267795
0.00209216
0.00154522
0.000947726
0.00119162
0.00363581
0.00332564
0.00374423
0.00423748
0.00410174
0.00122826
0.00107846
0.000957199
0.000859065
0.000778943
0.000712786
0.000657727
0.000613139
0.000581046
0.000663061
0.000885744
0.00116177
0.000696895
0.00210331
0.00665691
0.00470298
0.00446189
0.00450109
0.00483482
0.00508968
0.00518399
0.00513145
0.00494293
0.00463062
0.00421048
0.00370323
0.00313778
0.00254905
0.00197509
0.00135382
0.000962028
0.00186809
0.00262097
0.00373668
0.00482902
0.00556774
0.00526094
0.00135167
0.00124197
0.00115649
0.00108277
0.00101377
0.000945222
0.000874128
0.000797638
0.000709262
0.000666266
0.000851431
0.00141808
0.000816114
0.00208299
0.00546267
0.00427214
0.00487242
0.00530618
0.00569886
0.00569332
0.00564379
0.00552307
0.00531301
0.00501112
0.00462667
0.00417225
0.00368334
0.00318865
0.00274216
0.00239548
0.00259537
0.00359483
0.0049319
0.00615573
0.00706135
0.00758674
0.00759423
0.00647222
0.00583559
0.00520919
0.00459912
0.00398932
0.00337292
0.00274701
0.00211432
0.00147855
0.00101849
0.00097335
0.00143028
0.00119001
0.000898712
0.000991133
0.00143904
0.00204711
0.00447395
0.00387222
0.00492893
0.00569626
0.00628806
0.00631571
0.00622462
0.00609857
0.00592745
0.00570406
0.00542959
0.00509322
0.0047713
0.00450605
0.00441372
0.0046229
0.00557427
0.00679277
0.00782547
0.00857491
0.00902896
0.00921482
0.00913171
0.0086872
0.00802487
0.00721625
0.00633663
0.00542207
0.00449275
0.00356461
0.00266467
0.00185283
0.00134633
0.00128419
0.00145169
0.00139373
0.00146919
0.00218365
0.00192071
0.00199674
0.00373282
0.00348751
0.00511744
0.00588962
0.00659086
0.00680156
0.00679607
0.00674935
0.00668179
0.00659569
0.00649738
0.00640011
0.00634598
0.00641298
0.00671662
0.00734713
0.00834111
0.00917547
0.00972445
0.0100129
0.0100767
0.00995424
0.00966024
0.00915732
0.00846015
0.0076213
0.00669258
0.00571426
0.00472704
0.00378071
0.00294345
0.00230523
0.00198244
0.00195194
0.00195893
0.00170269
0.00212036
0.00394856
0.0026109
0.00192052
0.00298354
0.00296528
0.00546529
0.00637829
0.0067554
0.00688319
0.00690947
0.00694472
0.00699211
0.00705481
0.00714063
0.00726614
0.00746542
0.00778988
0.00830241
0.00896946
0.00965891
0.0100964
0.0102574
0.0101845
0.00991806
0.00946332
0.00891796
0.00831546
0.00764339
0.00689846
0.00609756
0.00527772
0.00449463
0.00382022
0.00333359
0.00309501
0.00310009
0.00318893
0.00315589
0.00258053
0.00289139
0.0070036
0.00360146
0.00175497
0.00178635
0.00207923
0.00557628
0.00718594
0.00736643
0.00737982
0.00742244
0.00749269
0.00757653
0.00767952
0.00780986
0.00797941
0.00820731
0.00851503
0.0089057
0.00931769
0.00962782
0.00971085
0.00953984
0.00915058
0.00862273
0.00805082
0.00747856
0.00692767
0.00639702
0.00588524
0.00540878
0.0050042
0.00471947
0.00459985
0.00466942
0.00490708
0.00521516
0.00540889
0.00533188
0.00464979
0.00463276
0.00931066
0.0040438
0.00133656
0.00502554
0.00800092
0.00856459
0.00879486
0.00893225
0.0090249
0.00909793
0.00916043
0.00921782
0.0092795
0.00934741
0.00942656
0.00950586
0.00954851
0.00950362
0.00934061
0.00907416
0.00874136
0.008381
0.00802297
0.00768589
0.00737964
0.00711145
0.00689269
0.00674167
0.00668186
0.00673646
0.00691976
0.00722367
0.00759826
0.00793134
0.00804153
0.00784455
0.00733856
0.00719332
0.00980729
0.00343044
0.00296358
0.00823206
0.00943169
0.0099255
0.0101962
0.0103618
0.0104701
0.0105353
0.0105607
0.0105434
0.0105071
0.0104597
0.0104065
0.010349
0.0102832
0.010198
0.0100797
0.00992463
0.00974281
0.00954917
0.00935566
0.00917055
0.00900214
0.0088609
0.00875989
0.00871425
0.00874031
0.0088535
0.00906362
0.00936499
0.0097176
0.0100183
0.0100773
0.0097849
0.00916388
0.00843963
0.00759065
0.00286473
0.00140062
0.00138587
0.00201881
0.00229668
0.00236702
0.0024013
0.00242498
0.00243978
0.0024475
0.00244999
0.00244909
0.00244767
0.00244567
0.00244442
0.00244424
0.00244455
0.00244377
0.00243993
0.00243212
0.00242091
0.00240774
0.00239403
0.00238097
0.0023695
0.0023604
0.00235448
0.00235258
0.00235564
0.00236457
0.00237996
0.00240143
0.00242652
0.00244881
0.00245741
0.00244875
0.00243448
0.00245443
0.00254186
0.00260797
0.00236971
)
;

boundaryField
{
    floor
    {
        type            compressible::alphatWallFunction;
        Prt             0.85;
        value           nonuniform List<scalar> 
29
(
0.000157023
0.000103903
0.000138683
0.000147685
0.000151554
0.000146412
0.000139558
0.000130482
0.000121525
0.000113519
0.000106523
0.000100424
9.50826e-05
9.03391e-05
8.6077e-05
8.21415e-05
7.82548e-05
7.42115e-05
6.81546e-05
6.63383e-05
6.63374e-05
8.51725e-05
9.92201e-05
0.000116589
0.000157021
0.000103902
0.000162194
0.000169498
0.000137401
)
;
    }
    ceiling
    {
        type            compressible::alphatWallFunction;
        Prt             0.85;
        value           nonuniform List<scalar> 
43
(
0.000198194
0.000196171
0.000280182
0.000316097
0.000325118
0.000329503
0.000332528
0.000334417
0.000335402
0.000335718
0.000335604
0.000335423
0.000335169
0.00033501
0.000334987
0.000335027
0.000334927
0.000334437
0.000333438
0.000332007
0.000330323
0.00032857
0.000326898
0.000325429
0.000324263
0.000323503
0.000323258
0.000323649
0.000324791
0.000326758
0.000329503
0.000332705
0.000335548
0.000336644
0.000335538
0.000333715
0.000336259
0.000347384
0.00035577
0.000325443
0.0002454
0.000249532
0.000400493
)
;
    }
    sWall
    {
        type            compressible::alphatWallFunction;
        Prt             0.85;
        value           uniform 0.000198218;
    }
    nWall
    {
        type            compressible::alphatWallFunction;
        Prt             0.85;
        value           nonuniform List<scalar> 6(0.00020345 0.000267453 0.000356239 0.000458502 0.000388235 0.000325549);
    }
    sideWalls
    {
        type            empty;
    }
    glass1
    {
        type            compressible::alphatWallFunction;
        Prt             0.85;
        value           nonuniform List<scalar> 9(0.000255768 0.000290954 0.000297411 0.000292255 0.000289591 0.000284881 0.000278246 0.000268175 0.000246245);
    }
    glass2
    {
        type            compressible::alphatWallFunction;
        Prt             0.85;
        value           nonuniform List<scalar> 2(0.00048299 0.000537054);
    }
    sun
    {
        type            compressible::alphatWallFunction;
        Prt             0.85;
        value           nonuniform List<scalar> 
14
(
0.000254629
0.000306723
0.000305933
0.000291982
0.000276628
0.000262387
0.000249599
0.000238062
0.00022732
0.000217026
0.000206851
0.00019642
0.000185197
0.000172137
)
;
    }
    heatsource1
    {
        type            compressible::alphatWallFunction;
        Prt             0.85;
        value           nonuniform List<scalar> 3(0.000128069 0.000141177 0.000202915);
    }
    heatsource2
    {
        type            compressible::alphatWallFunction;
        Prt             0.85;
        value           nonuniform List<scalar> 4(0.000151672 0.000133162 0.00013316 0.000135036);
    }
    Table_master
    {
        type            compressible::alphatWallFunction;
        Prt             0.85;
        value           nonuniform List<scalar> 9(0.0001742 0.000153442 0.000136394 0.000122412 0.000110856 0.000101206 9.30926e-05 8.64613e-05 8.16523e-05);
    }
    Table_slave
    {
        type            compressible::alphatWallFunction;
        Prt             0.85;
        value           nonuniform List<scalar> 9(0.000191092 0.000176093 0.000164302 0.000154054 0.000144387 0.000134709 0.000124582 0.000113578 0.000100703);
    }
    inlet
    {
        type            fixedValue;
        value           uniform 1.94e-05;
    }
    outlet
    {
        type            zeroGradient;
    }
}


// ************************************************************************* //
