/*--------------------------------*- C++ -*----------------------------------*\
  =========                 |
  \\      /  F ield         | OpenFOAM: The Open Source CFD Toolbox
   \\    /   O peration     | Website:  https://openfoam.org
    \\  /    A nd           | Version:  6
     \\/     M anipulation  |
\*---------------------------------------------------------------------------*/
FoamFile
{
    version     2.0;
    format      ascii;
    class       volScalarField;
    location    "1100";
    object      nut;
}
// * * * * * * * * * * * * * * * * * * * * * * * * * * * * * * * * * * * * * //

dimensions      [0 2 -1 0 0 0 0];

internalField   nonuniform List<scalar> 
459
(
0.00108925
0.00118924
0.00120885
0.00126658
0.0013203
0.00137073
0.00142038
0.00146717
0.00149846
0.00150852
0.00149239
0.00144715
0.00137285
0.00127544
0.00117003
0.000466659
0.000563866
0.000632806
0.000631493
0.000611398
0.000584012
0.000548061
0.000512008
0.000479164
0.00044997
0.000424118
0.000401181
0.000380908
0.000362727
0.000346042
0.000330055
0.000313754
0.000306654
0.000283075
0.00149132
0.0036583
0.00350089
0.00407456
0.0046338
0.00518992
0.00567141
0.0060399
0.00636719
0.00662482
0.00677608
0.00678054
0.00657876
0.00601944
0.00452484
0.00118761
0.000693576
0.000502144
0.0010426
0.00145457
0.00176851
0.00194895
0.00195365
0.00156193
0.00134704
0.00119388
0.00107623
0.000982505
0.000905934
0.000838719
0.000777376
0.000719328
0.000667958
0.000622181
0.000759331
0.000384282
0.00182425
0.0049971
0.00433515
0.00543962
0.00597357
0.00636808
0.00667629
0.00693131
0.00720425
0.0074816
0.00772774
0.00789299
0.00792603
0.00775305
0.00716961
0.00547625
0.00119962
0.000980488
0.00141697
0.00182903
0.00222323
0.00251031
0.00244917
0.000785216
0.000692362
0.000618424
0.000559154
0.000511082
0.000471603
0.000438889
0.000411754
0.000389817
0.00042513
0.000496932
0.000867537
0.00045313
0.00214201
0.00638314
0.00435357
0.00575037
0.00620898
0.00636464
0.00647975
0.00662527
0.00685216
0.00714433
0.00746403
0.0077451
0.00793193
0.00796739
0.00778967
0.00715873
0.00513779
0.00141773
0.00176108
0.00228418
0.00280929
0.00324997
0.00353736
0.00330709
0.000892956
0.000815429
0.00076198
0.000722423
0.0006888
0.000655591
0.000623378
0.000588958
0.000548288
0.000515209
0.00053341
0.00103426
0.000502668
0.00246393
0.0081494
0.00478969
0.00555507
0.00615813
0.00619351
0.00615981
0.00625247
0.00645347
0.00675238
0.00711501
0.0074477
0.00767475
0.00774309
0.00764417
0.00734959
0.0067009
0.0055379
0.00514619
0.00504756
0.00505582
0.00509016
0.00508924
0.00491033
0.00412238
0.00376266
0.00355696
0.00339539
0.00322307
0.00299269
0.0026445
0.00221841
0.00175223
0.00130432
0.00097208
0.00100657
0.000698938
0.000615391
0.000736363
0.000829531
0.00280334
0.0100643
0.0065641
0.0055518
0.00603163
0.00624103
0.0060934
0.00615196
0.0063015
0.00657197
0.00693754
0.00730286
0.00755314
0.00761117
0.00747366
0.00720588
0.00689769
0.00661192
0.00648156
0.00640967
0.00632683
0.00621777
0.00606672
0.0058327
0.00545543
0.00511421
0.00481324
0.00453062
0.00425333
0.00397183
0.00363475
0.00320231
0.00267911
0.00210408
0.00159887
0.00119333
0.000959697
0.000835788
0.0011869
0.000873288
0.00311107
0.0114014
0.00916965
0.00710309
0.00674676
0.00665001
0.00640665
0.0062667
0.00632461
0.00659056
0.00699274
0.00739567
0.00765289
0.00767454
0.00746901
0.0071562
0.00693137
0.00690878
0.00698768
0.00698542
0.00685076
0.00661079
0.00628781
0.00589506
0.005465
0.00505881
0.00469571
0.00437272
0.00409093
0.00385391
0.00365876
0.00342195
0.00305145
0.00257061
0.0021027
0.00168421
0.0014143
0.00137619
0.00143907
0.00103381
0.00316951
0.0101393
0.00899883
0.00829438
0.00767503
0.00695957
0.00641762
0.00621934
0.00637159
0.00678531
0.00730756
0.00775255
0.00795911
0.00786491
0.00752797
0.00713997
0.00696818
0.00707085
0.00713781
0.00697056
0.00662213
0.00615578
0.00562737
0.00509778
0.0046233
0.00423082
0.00391774
0.00367672
0.00350396
0.00339736
0.00335491
0.00335482
0.00325437
0.00297717
0.00274834
0.00269096
0.00293887
0.00346898
0.00412165
0.00155356
0.003084
0.00365402
0.00405725
0.00415954
0.00424635
0.00448849
0.00497233
0.00569455
0.00656063
0.00741466
0.00808874
0.00842782
0.00834332
0.00791097
0.00733287
0.00697883
0.00683801
0.0067514
0.00652363
0.0061027
0.00553972
0.00491899
0.00432835
0.00383504
0.0034617
0.0031929
0.00300141
0.00286393
0.00276219
0.00268139
0.0026101
0.00254174
0.00248942
0.00245393
0.00244751
0.00245524
0.00241331
0.00227602
0.00210218
0.00143666
0.00152962
0.00313066
0.0050904
0.00669591
0.00792341
0.00882794
0.00936531
0.00953536
0.00936028
0.00884032
0.00805459
0.00715421
0.00644413
0.00606741
0.00582552
0.00549816
0.00501761
0.00443349
0.00384407
0.00332823
0.00292692
0.00265094
0.00247663
0.00237314
0.00231631
0.00229009
0.00228433
0.00229331
0.00231501
0.00235547
0.00240149
0.00244704
0.00248201
0.00247905
0.00239894
0.00224126
0.00200479
0.00117688
0.00204009
0.00521529
0.0078622
0.00870082
0.00909612
0.00914711
0.00883194
0.00822419
0.00743304
0.00657751
0.00578112
0.00510211
0.00461292
0.00425637
0.00388367
0.0034412
0.00297155
0.00254742
0.00222117
0.0020034
0.00187689
0.00180883
0.00178438
0.00179527
0.00183311
0.00189221
0.00196763
0.00205319
0.00214935
0.00225759
0.00237439
0.00249012
0.00258603
0.00265397
0.00262436
0.00262725
0.00252238
0.00119542
0.00181493
0.00192073
0.00199683
0.00214027
0.00205444
0.00194614
0.00187559
0.00178512
0.00166262
0.00151465
0.00135046
0.00117985
0.00101477
0.000874035
0.000766779
0.00068864
0.000631441
0.000589615
0.000560711
0.00054369
0.000537396
0.000540247
0.00055078
0.000567931
0.000590373
0.000617143
0.000648159
0.000683615
0.000724096
0.000770879
0.00082448
0.000883737
0.000949095
0.00102089
0.00109816
0.00119821
0.00121524
0.00117657
0.00110237
0.0010178
)
;

boundaryField
{
    floor
    {
        type            nutkWallFunction;
        Cmu             0.09;
        kappa           0.41;
        E               9.8;
        value           nonuniform List<scalar> 
29
(
0.000140542
5.54342e-05
6.78148e-05
7.64359e-05
7.62741e-05
7.37739e-05
7.03497e-05
6.58242e-05
6.12488e-05
5.70458e-05
5.32796e-05
4.9919e-05
4.69157e-05
4.42428e-05
4.18303e-05
3.96025e-05
3.74549e-05
3.52511e-05
3.42863e-05
3.10609e-05
3.10608e-05
4.46862e-05
5.3685e-05
6.00525e-05
0.000140542
5.54341e-05
5.9986e-05
0.000118421
0.000168859
)
;
    }
    ceiling
    {
        type            nutkWallFunction;
        Cmu             0.09;
        kappa           0.41;
        E               9.8;
        value           nonuniform List<scalar> 
43
(
0.00021302
0.000224618
0.000232918
0.000248571
0.000239312
0.000227534
0.00021982
0.000209874
0.000196314
0.000179785
0.000161232
0.000141684
0.000122462
0.000105793
9.28798e-05
8.33381e-05
7.62711e-05
7.1054e-05
6.74219e-05
6.52717e-05
6.44735e-05
6.48334e-05
6.61642e-05
6.83252e-05
7.11417e-05
7.44846e-05
7.83361e-05
8.2712e-05
8.76752e-05
9.33704e-05
9.98457e-05
0.000106947
0.000114716
0.000123179
0.000132213
0.000143802
0.000145765
0.000141305
0.000132703
0.000122818
0.000348877
0.000407725
0.000237494
)
;
    }
    sWall
    {
        type            nutkWallFunction;
        Cmu             0.09;
        kappa           0.41;
        E               9.8;
        value           uniform 0.000213079;
    }
    nWall
    {
        type            nutkWallFunction;
        Cmu             0.09;
        kappa           0.41;
        E               9.8;
        value           nonuniform List<scalar> 6(0.000100455 0.000105702 0.000124701 0.000141352 0.000143492 0.000122825);
    }
    sideWalls
    {
        type            empty;
    }
    glass1
    {
        type            nutkWallFunction;
        Cmu             0.09;
        kappa           0.41;
        E               9.8;
        value           nonuniform List<scalar> 9(0.000131284 0.000177392 0.000214505 0.000249238 0.000283868 0.000319864 0.000352109 0.000358204 0.000349313);
    }
    glass2
    {
        type            nutkWallFunction;
        Cmu             0.09;
        kappa           0.41;
        E               9.8;
        value           nonuniform List<scalar> 2(0.000184232 0.000171075);
    }
    sun
    {
        type            nutkWallFunction;
        Cmu             0.09;
        kappa           0.41;
        E               9.8;
        value           nonuniform List<scalar> 
14
(
0.000131178
0.000142768
0.000145029
0.000151659
0.000157798
0.000163536
0.000169164
0.000174446
0.000177967
0.000179098
0.000177283
0.000172185
0.000163772
0.000152668
)
;
    }
    heatsource1
    {
        type            nutkWallFunction;
        Cmu             0.09;
        kappa           0.41;
        E               9.8;
        value           nonuniform List<scalar> 3(7.42687e-05 8.91738e-05 0.000100453);
    }
    heatsource2
    {
        type            nutkWallFunction;
        Cmu             0.09;
        kappa           0.41;
        E               9.8;
        value           nonuniform List<scalar> 4(0.000142569 8.39306e-05 8.39306e-05 0.00014396);
    }
    Table_master
    {
        type            nutkWallFunction;
        Cmu             0.09;
        kappa           0.41;
        E               9.8;
        value           nonuniform List<scalar> 9(9.51137e-05 8.37942e-05 7.46513e-05 6.72266e-05 6.11342e-05 5.60779e-05 5.1848e-05 4.83095e-05 4.54273e-05);
    }
    Table_slave
    {
        type            nutkWallFunction;
        Cmu             0.09;
        kappa           0.41;
        E               9.8;
        value           nonuniform List<scalar> 9(0.000108053 9.87618e-05 9.22963e-05 8.74767e-05 8.33551e-05 7.92609e-05 7.52656e-05 7.09689e-05 6.58524e-05);
    }
    inlet
    {
        type            calculated;
        value           uniform 0.000100623;
    }
    outlet
    {
        type            calculated;
        value           nonuniform List<scalar> 2(0.00181493 0.00192073);
    }
}


// ************************************************************************* //
