/*--------------------------------*- C++ -*----------------------------------*\
  =========                 |
  \\      /  F ield         | OpenFOAM: The Open Source CFD Toolbox
   \\    /   O peration     | Website:  https://openfoam.org
    \\  /    A nd           | Version:  6
     \\/     M anipulation  |
\*---------------------------------------------------------------------------*/
FoamFile
{
    version     2.0;
    format      ascii;
    class       volScalarField;
    location    "610";
    object      nut;
}
// * * * * * * * * * * * * * * * * * * * * * * * * * * * * * * * * * * * * * //

dimensions      [0 2 -1 0 0 0 0];

internalField   nonuniform List<scalar> 
459
(
0.000771684
0.00085205
0.000883851
0.000931597
0.000976713
0.00102148
0.00106953
0.00111124
0.00114206
0.0011556
0.00114485
0.00110033
0.000972523
0.000823134
0.000700453
0.000426084
0.000613023
0.000640129
0.000649934
0.000647346
0.000632917
0.000601263
0.000565977
0.000532877
0.00050295
0.000476101
0.000452126
0.000430423
0.000410388
0.000391284
0.000372041
0.000350813
0.00031813
0.000281102
0.00100042
0.00244384
0.00235715
0.00272851
0.00312438
0.00350729
0.00378915
0.00408826
0.00438892
0.00466122
0.00486352
0.00494665
0.00481548
0.00434163
0.00287986
0.000871476
0.000682544
0.000641001
0.00203891
0.00215027
0.00245168
0.00264072
0.00255993
0.00186527
0.00157395
0.00138282
0.00124178
0.00113149
0.0010357
0.000949013
0.000865965
0.000783374
0.000711188
0.000665422
0.00053979
0.000338752
0.00119179
0.00329216
0.00294201
0.00342874
0.00368712
0.00388092
0.00403776
0.00425899
0.00456168
0.00494246
0.00534988
0.00570462
0.00585147
0.00564455
0.00482984
0.00314281
0.000851744
0.000749832
0.0017333
0.00248112
0.00307833
0.00342578
0.00313669
0.000810988
0.000713626
0.00063548
0.00057312
0.000523029
0.00048264
0.000449954
0.000423852
0.000404509
0.000459659
0.000559998
0.000574448
0.000368269
0.00137409
0.00401063
0.00294099
0.00350108
0.0035633
0.00355438
0.00360932
0.0037685
0.00406879
0.0045335
0.00508166
0.00559646
0.0059039
0.00597529
0.00570751
0.00474171
0.00258557
0.000985052
0.0014671
0.00226924
0.00318672
0.00390921
0.00427173
0.00381645
0.000887899
0.00081445
0.000766908
0.000734124
0.00070847
0.000683867
0.000656875
0.000628681
0.000595025
0.00056432
0.00057607
0.000635218
0.000415141
0.00156138
0.00493271
0.00299409
0.00338178
0.00339371
0.00326984
0.00328162
0.00340878
0.00370852
0.00423587
0.00485576
0.00538129
0.0057215
0.00587434
0.00585022
0.00551489
0.00472722
0.00433988
0.0045862
0.00496291
0.00527737
0.00543654
0.00540996
0.00511017
0.00418771
0.00380406
0.00362284
0.00351522
0.00341856
0.00329108
0.00306607
0.00269239
0.00220493
0.00168127
0.0012561
0.00104326
0.000705321
0.000484881
0.000494416
0.000520882
0.00176475
0.00602676
0.00375306
0.00327088
0.00338508
0.00329164
0.00321774
0.00329908
0.00359732
0.00414058
0.00478505
0.00532593
0.00564618
0.00577706
0.00583985
0.00591044
0.00594641
0.00617903
0.00640887
0.00651309
0.00645752
0.0062582
0.00595526
0.00558741
0.00518503
0.00491875
0.00475461
0.00463499
0.00451841
0.00437337
0.004172
0.00384744
0.00338574
0.00280933
0.00221551
0.00176395
0.00133824
0.00103858
0.00113418
0.000703879
0.00196637
0.00689587
0.00526571
0.00382216
0.00363595
0.003549
0.00336217
0.00334607
0.00363968
0.00422877
0.00492202
0.00548014
0.00578029
0.0058909
0.00601636
0.00631299
0.00668753
0.00700118
0.00710962
0.00699164
0.0066916
0.00627705
0.00582198
0.00540077
0.00507851
0.00488464
0.00477131
0.00468587
0.0045915
0.00446369
0.00429798
0.00410603
0.0038349
0.00343142
0.00294196
0.00246598
0.00199888
0.00162849
0.0015139
0.000839617
0.00202284
0.00654158
0.00554713
0.0047664
0.00436124
0.00382789
0.00343151
0.00340115
0.0037997
0.0045157
0.00527932
0.00583468
0.00609964
0.00620871
0.00636769
0.00664006
0.00688105
0.00699287
0.00689724
0.00659719
0.00616121
0.00568123
0.00523948
0.00489298
0.00466057
0.00451923
0.00442487
0.00434213
0.00424454
0.00411556
0.00396837
0.00385106
0.00379712
0.00366206
0.00340964
0.00314732
0.00288235
0.00247957
0.00262337
0.00112969
0.00198896
0.00238477
0.00262279
0.00270598
0.00266827
0.00265964
0.00282254
0.0033118
0.00414025
0.00510512
0.00589366
0.00633324
0.00647427
0.00652021
0.00643316
0.00634966
0.00631341
0.00624591
0.00605185
0.00573074
0.00535777
0.00500828
0.00472138
0.00450355
0.00433765
0.0041979
0.00406288
0.00391904
0.00375054
0.00353448
0.00326836
0.00299405
0.00274985
0.00255126
0.00237059
0.00219615
0.002033
0.00188319
0.00177559
0.00116004
0.000819835
0.00135401
0.0018707
0.00251322
0.00343102
0.00448313
0.00553253
0.00632712
0.00667352
0.00665664
0.00639837
0.00607943
0.00584964
0.00573045
0.0056558
0.00556245
0.0054241
0.00524511
0.00505363
0.00487987
0.00472998
0.00459344
0.00445031
0.00427987
0.00406747
0.00380946
0.00351465
0.00319934
0.00287976
0.00258127
0.00235623
0.00220279
0.00209814
0.00201717
0.00192847
0.00180628
0.00167346
0.00116929
0.00116045
0.0027246
0.00397138
0.00522494
0.00605981
0.0065894
0.00708999
0.00726305
0.00699728
0.00650738
0.00605232
0.00575579
0.00560901
0.00555039
0.0055307
0.00552052
0.00550463
0.00547517
0.00542684
0.00536208
0.00530763
0.00526142
0.00520873
0.00512586
0.00498409
0.00475803
0.00443771
0.00403869
0.00362108
0.0032171
0.00286522
0.00258458
0.00238019
0.00223415
0.00211111
0.00200672
0.00244689
0.00125164
0.00130474
0.00136389
0.00141678
0.00163333
0.00164279
0.00159759
0.0015609
0.00156954
0.00155669
0.00151273
0.00145779
0.00139564
0.00134755
0.00132059
0.00130793
0.00130287
0.0013008
0.00129872
0.0012952
0.00129052
0.00128617
0.00128401
0.00128116
0.00127583
0.00126542
0.00124726
0.00121977
0.00118397
0.00114472
0.00111066
0.00108312
0.00106549
0.00105775
0.00106013
0.00107207
0.0010908
0.0011087
0.00109899
0.00106303
0.0010263
)
;

boundaryField
{
    floor
    {
        type            nutkWallFunction;
        Cmu             0.09;
        kappa           0.41;
        E               9.8;
        value           nonuniform List<scalar> 
29
(
8.47875e-05
5.02038e-05
7.3984e-05
7.73524e-05
7.85664e-05
7.82462e-05
7.6458e-05
7.25177e-05
6.80955e-05
6.39166e-05
6.0111e-05
5.66729e-05
5.35824e-05
5.07672e-05
4.81524e-05
4.56441e-05
4.31019e-05
4.02778e-05
3.5886e-05
3.08389e-05
3.08388e-05
3.86632e-05
4.26009e-05
4.8773e-05
8.47875e-05
5.02037e-05
7.74604e-05
9.0816e-05
0.000118949
)
;
    }
    ceiling
    {
        type            nutkWallFunction;
        Cmu             0.09;
        kappa           0.41;
        E               9.8;
        value           nonuniform List<scalar> 
43
(
0.000155975
0.000162707
0.000168699
0.000192996
0.000194056
0.000189026
0.00018493
0.000185898
0.000184462
0.000179535
0.000173354
0.000166331
0.000160873
0.000157805
0.000156361
0.000155784
0.000155548
0.00015531
0.000154909
0.000154373
0.000153877
0.000153629
0.000153303
0.000152694
0.000151502
0.000149421
0.000146263
0.000142139
0.000137602
0.00013365
0.000130445
0.000128387
0.000127483
0.000127761
0.000129156
0.000131339
0.000133422
0.000132292
0.0001281
0.000123802
0.000232194
0.000274911
0.000139397
)
;
    }
    sWall
    {
        type            nutkWallFunction;
        Cmu             0.09;
        kappa           0.41;
        E               9.8;
        value           uniform 0.000155992;
    }
    nWall
    {
        type            nutkWallFunction;
        Cmu             0.09;
        kappa           0.41;
        E               9.8;
        value           nonuniform List<scalar> 6(6.2379e-05 8.52029e-05 0.000101664 0.000140455 0.000149935 0.000123809);
    }
    sideWalls
    {
        type            empty;
    }
    glass1
    {
        type            nutkWallFunction;
        Cmu             0.09;
        kappa           0.41;
        E               9.8;
        value           nonuniform List<scalar> 9(9.34683e-05 0.00012079 0.000143088 0.000163954 0.000185072 0.000207689 0.000229834 0.000235994 0.000232304);
    }
    glass2
    {
        type            nutkWallFunction;
        Cmu             0.09;
        kappa           0.41;
        E               9.8;
        value           nonuniform List<scalar> 2(0.000135891 0.000139408);
    }
    sun
    {
        type            nutkWallFunction;
        Cmu             0.09;
        kappa           0.41;
        E               9.8;
        value           nonuniform List<scalar> 
14
(
9.34696e-05
0.000103152
0.000106954
0.000112632
0.000117967
0.000123232
0.000128855
0.000133711
0.000137287
0.000138854
0.00013761
0.000132442
0.000117472
9.96807e-05
)
;
    }
    heatsource1
    {
        type            nutkWallFunction;
        Cmu             0.09;
        kappa           0.41;
        E               9.8;
        value           nonuniform List<scalar> 3(5.77933e-05 5.90145e-05 6.23881e-05);
    }
    heatsource2
    {
        type            nutkWallFunction;
        Cmu             0.09;
        kappa           0.41;
        E               9.8;
        value           nonuniform List<scalar> 4(0.000105477 8.25878e-05 8.25878e-05 0.000103116);
    }
    Table_master
    {
        type            nutkWallFunction;
        Cmu             0.09;
        kappa           0.41;
        E               9.8;
        value           nonuniform List<scalar> 9(9.82199e-05 8.63997e-05 7.67735e-05 6.89896e-05 6.26624e-05 5.75064e-05 5.32945e-05 4.99035e-05 4.73737e-05);
    }
    Table_slave
    {
        type            nutkWallFunction;
        Cmu             0.09;
        kappa           0.41;
        E               9.8;
        value           nonuniform List<scalar> 9(0.000107439 9.86371e-05 9.28903e-05 8.89029e-05 8.57679e-05 8.27487e-05 7.94214e-05 7.59283e-05 7.17336e-05);
    }
    inlet
    {
        type            calculated;
        value           uniform 0.000100623;
    }
    outlet
    {
        type            calculated;
        value           nonuniform List<scalar> 2(0.00130474 0.00136389);
    }
}


// ************************************************************************* //
