// -*- C++ -*-
// File generated by PyFoam - sorry for the ugliness

FoamFile
{
 version 2.0;
 format ascii;
 class volScalarField;
 location "610";
 object T;
}

dimensions [ 0 0 0 1 0 0 0 ];

internalField nonuniform List<scalar> 459
(
  302.048
  301.972
  301.97
  301.971
  301.972
  301.972
  301.973
  301.973
  301.972
  301.972
  301.975
  301.981
  301.988
  301.986
  301.975
  301.986
  302.049
  302.074
  302.087
  302.097
  302.104
  302.107
  302.108
  302.108
  302.108
  302.107
  302.107
  302.106
  302.106
  302.105
  302.104
  302.102
  302.098
  302.075
  302.096
  301.986
  301.982
  301.984
  301.985
  301.985
  301.984
  301.98
  301.975
  301.972
  301.975
  301.984
  301.997
  302.001
  301.995
  301.999
  302.001
  302.04
  302.07
  302.088
  302.106
  302.121
  302.133
  302.136
  302.138
  302.139
  302.141
  302.141
  302.142
  302.142
  302.142
  302.14
  302.137
  302.13
  302.119
  302.106
  302.145
  301.999
  301.991
  301.994
  301.997
  301.999
  301.998
  301.99
  301.977
  301.967
  301.968
  301.982
  302
  302.01
  302.011
  302.011
  302.008
  302.048
  302.07
  302.095
  302.12
  302.142
  302.159
  302.159
  302.159
  302.16
  302.16
  302.161
  302.162
  302.163
  302.163
  302.161
  302.159
  302.151
  302.137
  302.122
  302.196
  302.015
  302
  302.007
  302.015
  302.021
  302.021
  302.008
  301.982
  301.961
  301.959
  301.978
  302.002
  302.02
  302.027
  302.026
  302.022
  302.028
  302.048
  302.077
  302.111
  302.143
  302.171
  302.194
  302.214
  302.229
  302.241
  302.252
  302.262
  302.269
  302.275
  302.28
  302.283
  302.249
  302.211
  302.174
  302.144
  302.248
  302.034
  302.01
  302.018
  302.032
  302.046
  302.051
  302.028
  301.988
  301.955
  301.951
  301.973
  302.006
  302.033
  302.049
  302.053
  302.055
  302.069
  302.092
  302.122
  302.155
  302.187
  302.215
  302.24
  302.261
  302.277
  302.29
  302.3
  302.308
  302.313
  302.315
  302.315
  302.311
  302.292
  302.259
  302.218
  302.177
  302.178
  302.181
  302.23
  302.297
  302.059
  302.025
  302.027
  302.044
  302.068
  302.075
  302.041
  301.988
  301.949
  301.943
  301.971
  302.014
  302.054
  302.08
  302.094
  302.103
  302.122
  302.146
  302.176
  302.208
  302.238
  302.264
  302.286
  302.304
  302.317
  302.327
  302.333
  302.338
  302.34
  302.341
  302.338
  302.331
  302.318
  302.294
  302.261
  302.223
  302.209
  302.203
  302.234
  302.341
  302.101
  302.06
  302.055
  302.067
  302.091
  302.087
  302.039
  301.976
  301.933
  301.933
  301.973
  302.031
  302.085
  302.123
  302.145
  302.161
  302.182
  302.207
  302.235
  302.263
  302.289
  302.311
  302.327
  302.34
  302.348
  302.352
  302.355
  302.356
  302.356
  302.354
  302.35
  302.343
  302.332
  302.314
  302.29
  302.26
  302.24
  302.226
  302.242
  302.407
  302.216
  302.166
  302.14
  302.135
  302.136
  302.091
  302.011
  301.936
  301.902
  301.922
  301.985
  302.064
  302.133
  302.178
  302.205
  302.224
  302.244
  302.267
  302.291
  302.314
  302.332
  302.346
  302.356
  302.361
  302.364
  302.365
  302.364
  302.362
  302.36
  302.357
  302.352
  302.347
  302.337
  302.325
  302.308
  302.287
  302.27
  302.258
  302.333
  302.498
  302.409
  302.345
  302.287
  302.244
  302.161
  302.028
  301.907
  301.843
  301.853
  301.922
  302.026
  302.125
  302.203
  302.242
  302.266
  302.284
  302.301
  302.318
  302.335
  302.349
  302.359
  302.365
  302.368
  302.369
  302.369
  302.368
  302.365
  302.362
  302.359
  302.354
  302.35
  302.346
  302.342
  302.34
  302.341
  302.347
  302.36
  302.377
  302.423
  300.778
  301.096
  301.238
  301.304
  301.395
  301.519
  301.672
  301.833
  301.988
  302.135
  302.221
  302.27
  302.298
  302.315
  302.328
  302.34
  302.351
  302.359
  302.365
  302.369
  302.371
  302.371
  302.37
  302.369
  302.368
  302.366
  302.363
  302.361
  302.359
  302.357
  302.356
  302.355
  302.356
  302.36
  302.368
  302.382
  302.4
  302.435
  300.819
  301.103
  301.256
  301.409
  301.566
  301.735
  301.913
  302.053
  302.162
  302.241
  302.288
  302.314
  302.33
  302.341
  302.349
  302.356
  302.361
  302.365
  302.367
  302.369
  302.369
  302.369
  302.369
  302.368
  302.368
  302.368
  302.367
  302.367
  302.366
  302.365
  302.365
  302.365
  302.366
  302.368
  302.374
  302.382
  302.395
  302.419
  301.266
  301.247
  301.247
  301.487
  301.685
  301.872
  302.009
  302.1
  302.175
  302.232
  302.272
  302.3
  302.318
  302.329
  302.335
  302.34
  302.343
  302.345
  302.347
  302.348
  302.348
  302.348
  302.349
  302.349
  302.349
  302.35
  302.35
  302.351
  302.352
  302.354
  302.355
  302.357
  302.359
  302.36
  302.362
  302.365
  302.368
  302.373
  302.374
  302.412
)
;

boundaryField
{
  floor
  {
    type wallHeatTransfer;
    Tinf uniform 300.35;
    alphaWall uniform 0.24;
    value nonuniform List<scalar> 29
(
  301.74
  301.655
  301.779
  301.808
  301.823
  301.831
  301.832
  301.825
  301.813
  301.801
  301.789
  301.777
  301.765
  301.754
  301.742
  301.73
  301.717
  301.702
  301.674
  301.626
  301.626
  301.696
  301.729
  301.775
  301.74
  301.655
  301.78
  301.815
  301.839
)
;
  }
  ceiling
  {
    type wallHeatTransfer;
    Tinf uniform 300.35;
    alphaWall uniform 0.24;
    value nonuniform List<scalar> 43
(
  301.183
  301.169
  301.17
  301.4
  301.583
  301.754
  301.878
  301.962
  302.031
  302.079
  302.112
  302.132
  302.143
  302.15
  302.155
  302.158
  302.161
  302.163
  302.164
  302.164
  302.164
  302.164
  302.164
  302.164
  302.163
  302.161
  302.158
  302.155
  302.151
  302.147
  302.145
  302.144
  302.144
  302.146
  302.149
  302.154
  302.16
  302.163
  302.159
  302.186
  302.358
  302.293
  300.773
)
;
  }
  sWall
  {
    type wallHeatTransfer;
    Tinf uniform 306.167;
    alphaWall uniform 0.36;
    value uniform 301.906;
  }
  nWall
  {
    type wallHeatTransfer;
    Tinf uniform 305.15;
    alphaWall uniform 0.36;
    value nonuniform List<scalar> 6
(
  302.945
  302.823
  302.763
  302.82
  302.788
  302.838
)
;
  }
  sideWalls
  {
    type empty;
  }
  glass1
  {
    type wallHeatTransfer;
    Tinf uniform 306.167;
    alphaWall uniform 4.3;
    value nonuniform List<scalar> 9
(
  305.088
  304.92
  304.805
  304.712
  304.63
  304.551
  304.482
  304.488
  304.542
)
;
  }
  glass2
  {
    type wallHeatTransfer;
    Tinf uniform 305.15;
    alphaWall uniform 4.3;
    value nonuniform List<scalar> 2
(
  304.223
  304.24
)
;
  }
  sun
  {
    type wallHeatTransfer;
    Tinf uniform 300.35;
    alphaWall uniform 0.24;
    value nonuniform List<scalar> 14
(
  301.819
  301.768
  301.772
  301.781
  301.788
  301.795
  301.801
  301.806
  301.809
  301.81
  301.812
  301.812
  301.802
  301.776
)
;
  }
  heatsource1
  {
    type fixedGradient;
    gradient uniform 0;
  }
  heatsource2
  {
    type fixedGradient;
    gradient uniform 0;
  }
  Table_master
  {
    type zeroGradient;
  }
  Table_slave
  {
    type zeroGradient;
  }
  inlet
  {
    type fixedValue;
    value uniform 300.15;
  }
  outlet
  {
    type zeroGradient;
  }
} 	// ************************************************************************* //

