// -*- C++ -*-
// File generated by PyFoam - sorry for the ugliness

FoamFile
{
 version 2.0;
 format ascii;
 class volScalarField;
 location "1100";
 object T;
}

dimensions [ 0 0 0 1 0 0 0 ];

internalField nonuniform List<scalar> 459
(
  303.562
  303.303
  303.29
  303.287
  303.283
  303.279
  303.274
  303.269
  303.26
  303.249
  303.237
  303.226
  303.218
  303.214
  303.215
  303.306
  303.285
  303.277
  303.279
  303.283
  303.287
  303.29
  303.294
  303.298
  303.302
  303.306
  303.309
  303.313
  303.317
  303.32
  303.324
  303.328
  303.334
  303.352
  303.736
  303.346
  303.323
  303.325
  303.328
  303.329
  303.327
  303.32
  303.306
  303.283
  303.257
  303.233
  303.215
  303.204
  303.199
  303.196
  303.194
  303.306
  303.269
  303.263
  303.266
  303.27
  303.274
  303.276
  303.278
  303.279
  303.281
  303.282
  303.284
  303.285
  303.287
  303.289
  303.293
  303.299
  303.308
  303.337
  303.918
  303.397
  303.358
  303.369
  303.382
  303.393
  303.398
  303.393
  303.37
  303.332
  303.287
  303.246
  303.217
  303.2
  303.194
  303.194
  303.196
  303.249
  303.248
  303.254
  303.264
  303.274
  303.281
  303.281
  303.281
  303.281
  303.282
  303.282
  303.282
  303.283
  303.283
  303.284
  303.287
  303.291
  303.299
  303.33
  304.102
  303.459
  303.394
  303.41
  303.438
  303.465
  303.484
  303.482
  303.447
  303.386
  303.317
  303.257
  303.216
  303.194
  303.189
  303.193
  303.199
  303.21
  303.223
  303.241
  303.26
  303.278
  303.294
  303.306
  303.315
  303.324
  303.332
  303.339
  303.345
  303.35
  303.354
  303.356
  303.358
  303.335
  303.315
  303.306
  303.329
  304.28
  303.539
  303.437
  303.447
  303.486
  303.53
  303.569
  303.568
  303.516
  303.427
  303.333
  303.258
  303.209
  303.186
  303.183
  303.192
  303.205
  303.223
  303.243
  303.267
  303.29
  303.312
  303.33
  303.345
  303.358
  303.369
  303.378
  303.385
  303.39
  303.392
  303.392
  303.389
  303.382
  303.364
  303.339
  303.319
  303.327
  303.399
  303.445
  303.451
  304.441
  303.641
  303.509
  303.498
  303.535
  303.591
  303.642
  303.623
  303.545
  303.436
  303.327
  303.242
  303.189
  303.169
  303.174
  303.194
  303.219
  303.247
  303.276
  303.305
  303.332
  303.355
  303.374
  303.389
  303.401
  303.411
  303.419
  303.424
  303.427
  303.427
  303.422
  303.414
  303.403
  303.386
  303.361
  303.336
  303.331
  303.361
  303.378
  303.412
  304.589
  303.804
  303.673
  303.643
  303.66
  303.707
  303.712
  303.644
  303.525
  303.39
  303.271
  303.188
  303.148
  303.145
  303.168
  303.205
  303.247
  303.287
  303.324
  303.356
  303.383
  303.404
  303.42
  303.433
  303.442
  303.45
  303.455
  303.458
  303.458
  303.455
  303.447
  303.436
  303.423
  303.405
  303.382
  303.358
  303.346
  303.354
  303.364
  303.392
  304.804
  304.217
  304.072
  303.985
  303.943
  303.885
  303.76
  303.586
  303.403
  303.247
  303.14
  303.09
  303.089
  303.123
  303.178
  303.241
  303.299
  303.347
  303.386
  303.413
  303.434
  303.45
  303.462
  303.471
  303.477
  303.482
  303.484
  303.484
  303.482
  303.478
  303.47
  303.459
  303.445
  303.429
  303.412
  303.394
  303.388
  303.399
  303.418
  303.54
  305.111
  304.834
  304.578
  304.343
  304.115
  303.818
  303.489
  303.209
  303.021
  302.93
  302.919
  302.967
  303.052
  303.143
  303.233
  303.321
  303.378
  303.417
  303.444
  303.464
  303.478
  303.489
  303.497
  303.502
  303.505
  303.507
  303.507
  303.505
  303.503
  303.5
  303.498
  303.498
  303.499
  303.505
  303.518
  303.54
  303.571
  303.602
  303.624
  303.676
  296.354
  298.23
  299.432
  300.269
  300.981
  301.585
  302.077
  302.46
  302.75
  302.98
  303.174
  303.287
  303.363
  303.416
  303.451
  303.475
  303.492
  303.504
  303.512
  303.519
  303.523
  303.525
  303.527
  303.528
  303.529
  303.529
  303.529
  303.53
  303.532
  303.534
  303.538
  303.545
  303.558
  303.576
  303.599
  303.621
  303.64
  303.661
  297.006
  298.842
  300.282
  301.25
  301.862
  302.313
  302.657
  302.914
  303.101
  303.235
  303.336
  303.403
  303.448
  303.479
  303.499
  303.514
  303.524
  303.531
  303.535
  303.539
  303.541
  303.543
  303.544
  303.546
  303.547
  303.548
  303.549
  303.55
  303.551
  303.553
  303.556
  303.562
  303.57
  303.583
  303.598
  303.615
  303.614
  303.643
  299.717
  299.639
  299.634
  301.468
  302.28
  302.669
  302.897
  303.065
  303.194
  303.292
  303.365
  303.419
  303.458
  303.485
  303.503
  303.514
  303.522
  303.527
  303.531
  303.534
  303.536
  303.538
  303.54
  303.542
  303.544
  303.546
  303.548
  303.55
  303.552
  303.554
  303.556
  303.559
  303.561
  303.565
  303.57
  303.579
  303.588
  303.594
  303.596
  303.635
)
;

boundaryField
{
  floor
  {
    type wallHeatTransfer;
    Tinf uniform 305.2;
    alphaWall uniform 0.24;
    value nonuniform List<scalar> 29
(
  303.408
  303.665
  303.602
  303.57
  303.574
  303.584
  303.597
  303.614
  303.633
  303.651
  303.668
  303.686
  303.702
  303.718
  303.733
  303.748
  303.764
  303.781
  303.796
  303.835
  303.835
  303.752
  303.71
  303.686
  303.408
  303.665
  303.647
  303.463
  303.376
)
;
  }
  ceiling
  {
    type wallHeatTransfer;
    Tinf uniform 303.2;
    alphaWall uniform 0.24;
    value nonuniform List<scalar> 43
(
  299.964
  299.88
  299.868
  301.576
  302.338
  302.704
  302.918
  303.075
  303.194
  303.284
  303.351
  303.398
  303.431
  303.452
  303.465
  303.473
  303.477
  303.48
  303.482
  303.483
  303.485
  303.486
  303.488
  303.49
  303.492
  303.494
  303.497
  303.5
  303.503
  303.506
  303.51
  303.514
  303.518
  303.523
  303.53
  303.54
  303.549
  303.553
  303.553
  303.585
  305.022
  304.769
  297.406
)
;
  }
  sWall
  {
    type wallHeatTransfer;
    Tinf uniform 315.2;
    alphaWall uniform 0.36;
    value uniform 301.314;
  }
  nWall
  {
    type wallHeatTransfer;
    Tinf uniform 307.2;
    alphaWall uniform 0.36;
    value nonuniform List<scalar> 6
(
  304.155
  304.104
  304.028
  304.173
  304.151
  304.214
)
;
  }
  sideWalls
  {
    type empty;
  }
  glass1
  {
    type wallHeatTransfer;
    Tinf uniform 315.2;
    alphaWall uniform 4.3;
    value nonuniform List<scalar> 9
(
  311.518
  310.888
  310.491
  310.188
  309.936
  309.707
  309.538
  309.61
  309.835
)
;
  }
  glass2
  {
    type wallHeatTransfer;
    Tinf uniform 307.2;
    alphaWall uniform 4.3;
    value nonuniform List<scalar> 2
(
  305.818
  305.913
)
;
  }
  sun
  {
    type wallHeatTransfer;
    Tinf uniform 305.2;
    alphaWall uniform 0.24;
    value nonuniform List<scalar> 14
(
  303.735
  303.491
  303.476
  303.466
  303.457
  303.448
  303.44
  303.43
  303.42
  303.408
  303.398
  303.391
  303.39
  303.395
)
;
  }
  heatsource1
  {
    type fixedGradient;
    gradient uniform 0;
  }
  heatsource2
  {
    type fixedGradient;
    gradient uniform 0;
  }
  Table_master
  {
    type zeroGradient;
  }
  Table_slave
  {
    type zeroGradient;
  }
  inlet
  {
    type fixedValue;
    value uniform 293.15;
  }
  outlet
  {
    type zeroGradient;
  }
} 	// ************************************************************************* //

