/*--------------------------------*- C++ -*----------------------------------*\
  =========                 |
  \\      /  F ield         | OpenFOAM: The Open Source CFD Toolbox
   \\    /   O peration     | Website:  https://openfoam.org
    \\  /    A nd           | Version:  6
     \\/     M anipulation  |
\*---------------------------------------------------------------------------*/
FoamFile
{
    version     2.0;
    format      ascii;
    class       volScalarField;
    location    "100";
    object      nut;
}
// * * * * * * * * * * * * * * * * * * * * * * * * * * * * * * * * * * * * * //

dimensions      [0 2 -1 0 0 0 0];

internalField   nonuniform List<scalar> 
459
(
0.000981745
0.00106248
0.00107534
0.00112446
0.00116939
0.00121072
0.00125019
0.00129001
0.0013242
0.00134528
0.00134797
0.00132795
0.00128433
0.00122339
0.00115745
0.000470325
0.000579157
0.000636363
0.000625606
0.000605932
0.000582753
0.000554961
0.000527364
0.00050224
0.000479871
0.000459999
0.000442259
0.000426214
0.000411568
0.000397783
0.000383978
0.000368786
0.00035369
0.000322945
0.0013687
0.00305003
0.00283271
0.00329014
0.00371171
0.00414551
0.00455623
0.00488612
0.00516318
0.00540373
0.00556915
0.00560821
0.00544253
0.00490907
0.00353784
0.00117189
0.000771288
0.00052701
0.00100398
0.00133341
0.00156926
0.00169916
0.00171282
0.00142621
0.00125909
0.00113495
0.00103691
0.000958175
0.000895203
0.000846323
0.000799562
0.00074383
0.000688571
0.000641151
0.000711383
0.000385974
0.00169821
0.00417789
0.00338302
0.00438889
0.0048239
0.00514049
0.00538457
0.00558085
0.00577914
0.00599728
0.00620954
0.00637905
0.00645321
0.00638008
0.00604203
0.00497532
0.00113435
0.00102033
0.00137982
0.00170797
0.00200682
0.00222831
0.00220491
0.000754495
0.000678223
0.000614647
0.000561511
0.000516726
0.000478708
0.000446437
0.000419846
0.000399663
0.000440243
0.000523415
0.000805499
0.000430741
0.00202245
0.00552626
0.0033114
0.00463012
0.00506419
0.00519136
0.00524098
0.00531283
0.00544916
0.00565212
0.00589418
0.00614615
0.00634716
0.00646495
0.00646001
0.00615021
0.00487885
0.00133311
0.00166555
0.00213197
0.00257041
0.00293118
0.00318131
0.00301752
0.000828766
0.000762081
0.000715594
0.0006804
0.000649492
0.000620531
0.00059167
0.000560187
0.000522266
0.000494641
0.000525271
0.000907211
0.00046758
0.0023561
0.00730857
0.00369819
0.00435093
0.00501688
0.00507663
0.00499819
0.00498432
0.00511217
0.00531879
0.00557762
0.00587147
0.00611084
0.00624289
0.006238
0.00606909
0.0056267
0.00469959
0.00438929
0.00432786
0.00437098
0.00445341
0.0045194
0.00443603
0.00380158
0.00353855
0.00340283
0.00329082
0.0031503
0.00291486
0.00258574
0.00217992
0.00172049
0.00123948
0.000899728
0.000933347
0.00058726
0.000584865
0.000712793
0.000795365
0.00270921
0.00925043
0.00540518
0.00415291
0.00466417
0.00494587
0.00500679
0.00487902
0.00501814
0.00521011
0.00546573
0.0057583
0.00601251
0.00614147
0.00609401
0.00588405
0.00559167
0.00532921
0.00526257
0.00529689
0.00534095
0.00536378
0.00533942
0.0052339
0.005011
0.00481756
0.00464045
0.00445387
0.00424279
0.0039851
0.00363678
0.00318665
0.00263674
0.00201416
0.00147365
0.00111543
0.000805929
0.000703934
0.00103855
0.000826148
0.00304317
0.0106957
0.00813314
0.00562015
0.00498427
0.0050266
0.00514688
0.00513213
0.00515543
0.00528197
0.00552633
0.00583372
0.00610027
0.00621655
0.00612342
0.00585751
0.00557388
0.00547288
0.00559745
0.00573216
0.0057504
0.00565258
0.00546929
0.00524387
0.00501807
0.00481688
0.00462046
0.00441864
0.00421043
0.00400405
0.00379741
0.0034639
0.00300848
0.00246183
0.00195252
0.00151976
0.00119171
0.0011102
0.00115503
0.000929098
0.0031157
0.00986306
0.00854639
0.00759265
0.00681116
0.00633574
0.00585026
0.00546889
0.00533092
0.00544423
0.00573716
0.00608757
0.00635369
0.00641447
0.00622838
0.00587798
0.00559739
0.00560295
0.00578725
0.00574241
0.00551572
0.00520352
0.00488261
0.00460097
0.00437155
0.00417855
0.0039991
0.00382706
0.0036701
0.00354169
0.00345151
0.00335758
0.00307803
0.00268823
0.00234708
0.00217403
0.00224042
0.00269038
0.00346187
0.00147522
0.00304076
0.00363354
0.00406802
0.0042522
0.0043451
0.00435684
0.00444279
0.00469342
0.00511162
0.0056371
0.00616594
0.00657341
0.0067453
0.0066079
0.00620082
0.00572714
0.00555732
0.00550065
0.00534531
0.00501219
0.00460285
0.00421722
0.00390034
0.00365317
0.00345524
0.00328256
0.00311871
0.00295719
0.00279618
0.00263439
0.00247133
0.00231921
0.00219568
0.00210907
0.00208469
0.00211712
0.00214044
0.00208512
0.00195619
0.00138469
0.00172712
0.00329624
0.00431339
0.00503376
0.0057044
0.0062987
0.00679775
0.00716015
0.00734719
0.00728526
0.00694288
0.00633949
0.00567502
0.00515857
0.00487774
0.00456543
0.00414166
0.00370292
0.00332975
0.00304442
0.00283258
0.00267061
0.00253907
0.00242602
0.00232636
0.00223948
0.00216696
0.00211147
0.00207952
0.00207012
0.00207526
0.00209541
0.00212534
0.00214102
0.00209994
0.00198046
0.00178998
0.00114265
0.00207215
0.00445422
0.00590882
0.00647696
0.00698405
0.00736295
0.00740335
0.00728613
0.0070139
0.00637696
0.00556032
0.00477431
0.00417847
0.00372915
0.0033228
0.00293447
0.00261122
0.00236109
0.00217442
0.00204095
0.00194933
0.00188738
0.0018478
0.00182678
0.00182233
0.00183297
0.00185661
0.00189051
0.00194072
0.00200491
0.00208221
0.00216858
0.00225082
0.00230924
0.0023033
0.00233758
0.00232545
0.00116136
0.00180007
0.00190385
0.00197917
0.00208607
0.00196475
0.00182744
0.00170193
0.00158372
0.00148603
0.00137331
0.00124336
0.00110795
0.000961503
0.000826953
0.000723088
0.000654609
0.000613039
0.000589717
0.000578934
0.00057697
0.000581701
0.000591131
0.000603962
0.000619844
0.000638665
0.000660472
0.000685446
0.000713929
0.000746518
0.000784133
0.000826138
0.000873008
0.000925554
0.000984653
0.00105057
0.00112936
0.00116002
0.00113389
0.00106272
0.000987996
)
;

boundaryField
{
    floor
    {
        type            nutkWallFunction;
        Cmu             0.09;
        kappa           0.41;
        E               9.8;
        value           nonuniform List<scalar> 
29
(
0.000139089
5.59058e-05
6.97378e-05
7.68748e-05
7.55378e-05
7.30864e-05
7.01861e-05
6.66901e-05
6.31974e-05
5.9998e-05
5.71326e-05
5.45732e-05
5.22765e-05
5.01891e-05
4.82749e-05
4.64654e-05
4.46451e-05
4.2632e-05
4.0621e-05
3.64903e-05
3.64902e-05
4.49078e-05
5.07777e-05
5.55497e-05
0.000139089
5.59057e-05
6.3166e-05
0.000123115
0.000159249
)
;
    }
    ceiling
    {
        type            nutkWallFunction;
        Cmu             0.09;
        kappa           0.41;
        E               9.8;
        value           nonuniform List<scalar> 
43
(
0.000211391
0.000222777
0.000231002
0.000242699
0.000229534
0.000214504
0.000200648
0.000187492
0.000176543
0.000163807
0.000148974
0.00013334
0.000116179
0.000100143
8.75532e-05
7.91363e-05
7.39761e-05
7.10628e-05
6.97109e-05
6.94642e-05
7.00577e-05
7.12396e-05
7.2844e-05
7.48243e-05
7.71633e-05
7.9863e-05
8.29417e-05
8.64366e-05
9.04151e-05
9.49818e-05
0.000100051
0.000105672
0.000111932
0.000118923
0.000126665
0.000135845
0.000139399
0.000136371
0.000128084
0.000119315
0.000344379
0.000405642
0.000241005
)
;
    }
    sWall
    {
        type            nutkWallFunction;
        Cmu             0.09;
        kappa           0.41;
        E               9.8;
        value           uniform 0.00021145;
    }
    nWall
    {
        type            nutkWallFunction;
        Cmu             0.09;
        kappa           0.41;
        E               9.8;
        value           nonuniform List<scalar> 6(9.63379e-05 0.000100051 0.000112359 0.000137394 0.000139562 0.000119321);
    }
    sideWalls
    {
        type            empty;
    }
    glass1
    {
        type            nutkWallFunction;
        Cmu             0.09;
        kappa           0.41;
        E               9.8;
        value           nonuniform List<scalar> 9(0.000118642 0.000163495 0.000200549 0.000236241 0.000272328 0.000309934 0.000345031 0.000352609 0.000344806);
    }
    glass2
    {
        type            nutkWallFunction;
        Cmu             0.09;
        kappa           0.41;
        E               9.8;
        value           nonuniform List<scalar> 2(0.000175434 0.000165194);
    }
    sun
    {
        type            nutkWallFunction;
        Cmu             0.09;
        kappa           0.41;
        E               9.8;
        value           nonuniform List<scalar> 
14
(
0.000118572
0.000128046
0.000129546
0.000135263
0.000140467
0.000145234
0.00014977
0.00015433
0.000158232
0.000160632
0.000160939
0.00015866
0.000153681
0.000146693
)
;
    }
    heatsource1
    {
        type            nutkWallFunction;
        Cmu             0.09;
        kappa           0.41;
        E               9.8;
        value           nonuniform List<scalar> 3(7.0453e-05 8.62951e-05 9.63374e-05);
    }
    heatsource2
    {
        type            nutkWallFunction;
        Cmu             0.09;
        kappa           0.41;
        E               9.8;
        value           nonuniform List<scalar> 4(0.000140756 9.34228e-05 9.34228e-05 0.000136409);
    }
    Table_master
    {
        type            nutkWallFunction;
        Cmu             0.09;
        kappa           0.41;
        E               9.8;
        value           nonuniform List<scalar> 9(9.1379e-05 8.20474e-05 7.41728e-05 6.75157e-05 6.18449e-05 5.69835e-05 5.28196e-05 4.93609e-05 4.67176e-05);
    }
    Table_slave
    {
        type            nutkWallFunction;
        Cmu             0.09;
        kappa           0.41;
        E               9.8;
        value           nonuniform List<scalar> 9(0.000100358 9.23001e-05 8.66338e-05 8.23149e-05 7.84999e-05 7.49056e-05 7.13035e-05 6.73497e-05 6.25509e-05);
    }
    inlet
    {
        type            calculated;
        value           uniform 0.000100623;
    }
    outlet
    {
        type            calculated;
        value           nonuniform List<scalar> 2(0.00180007 0.00190385);
    }
}


// ************************************************************************* //
