/*--------------------------------*- C++ -*----------------------------------*\
  =========                 |
  \\      /  F ield         | OpenFOAM: The Open Source CFD Toolbox
   \\    /   O peration     | Website:  https://openfoam.org
    \\  /    A nd           | Version:  6
     \\/     M anipulation  |
\*---------------------------------------------------------------------------*/
FoamFile
{
    version     2.0;
    format      ascii;
    class       surfaceScalarField;
    location    "800";
    object      phi;
}
// * * * * * * * * * * * * * * * * * * * * * * * * * * * * * * * * * * * * * //

dimensions      [1 0 -1 0 0 0 0];

internalField   nonuniform List<scalar> 
852
(
-0.00236952
0.00240143
-0.00297813
0.000609185
-0.00295795
-1.96351e-05
-0.00268276
-0.000274695
-0.00223713
-0.000445192
-0.00185389
-0.000382872
-0.0015543
-0.000299294
-0.00131253
-0.0002415
-0.00110504
-0.000207225
-0.000915993
-0.000188766
-0.000735108
-0.000180568
-0.000549785
-0.000184952
-0.000329094
-0.000220249
-4.2877e-05
-0.00028572
-4.6868e-05
-7.7594e-05
7.34825e-05
-0.000434526
0.000356814
-0.000637637
0.000203079
-0.000701981
6.44519e-05
-0.000706626
4.82754e-06
-0.000616751
-8.96769e-05
-0.000361986
-0.000254574
-8.40115e-05
-0.000277774
0.000133182
-0.000216976
0.000303085
-0.000169686
0.000433256
-0.000129958
0.000526387
-9.29262e-05
0.000589145
-6.25581e-05
0.000598437
-9.10736e-06
0.000559273
3.93505e-05
0.000453924
0.000105546
0.000263764
0.000190354
-0.00012695
0.000390925
-0.000130501
-0.00113969
0.00362523
-0.00192297
0.00139303
-0.00215948
0.000217424
-0.00207232
-0.000361338
-0.00173908
-0.00077796
-0.00150556
-0.000615981
-0.00130414
-0.00050036
-0.00113156
-0.00041375
-0.000986247
-0.000352221
-0.000862737
-0.000311938
-0.000755223
-0.000287705
-0.000659568
-0.000280175
-0.000583134
-0.000296176
-0.000537278
-0.000330993
-0.000260861
-0.000322629
3.94191e-05
-0.000299569
3.97469e-05
-0.00023007
0.000292776
-0.000173602
0.000300244
-0.0001886
0.000218096
-0.000233533
0.000109517
-0.000315692
8.71649e-05
-0.0005568
0.000151622
-0.000343798
-0.000467383
-0.00025991
-0.000361504
-0.000236254
-0.000240433
-0.00022421
-0.000181481
-0.000221602
-0.000132284
-0.000238484
-7.57631e-05
-0.000297985
-2.78394e-06
-0.000383462
7.67174e-05
-0.000435749
9.20545e-05
-0.000392021
6.23011e-05
-0.000279851
7.86931e-05
-5.04435e-05
0.000162035
-0.000189973
0.00390831
-0.000157541
0.00328026
0.00202142
0.00151141
0.00198658
-0.000107907
0.00125831
-0.000974103
8.86855e-05
-0.00111613
-0.000473513
-0.00107162
-0.000544474
-0.0010051
-0.000479917
-0.000957559
-0.000399414
-0.000938437
-0.000330686
-0.000952443
-0.000273284
-0.00100351
-0.000228636
-0.00109065
-0.000208481
-0.0011986
-0.000222452
-0.00123743
-0.000283256
-0.00104685
-0.000489737
-0.00100684
-0.000593534
0.000869399
-0.000520026
0.0002268
-0.000402028
0.000100266
-0.000317453
2.51521e-05
-0.000209878
-2.02824e-05
7.79679e-05
-0.000136065
-0.000389001
-0.000750216
-0.000990248
-0.00117116
-0.00130272
-0.00137764
-0.00137953
-0.00130188
-0.00120883
-0.000670832
-0.000474803
-0.000262141
-0.000329056
5.70861e-05
-0.000156254
-0.00014817
0.00104836
-0.00119321
0.00153276
0.00153645
0.00108129
0.00243764
0.000219671
0.00211986
-0.000603863
0.000912501
-0.000872564
-0.000204343
-0.000928298
-0.00048831
-0.000964628
-0.000443192
-0.00102709
-0.000336555
-0.00112381
-0.000233548
-0.00125828
-0.000138353
-0.00143116
-5.52612e-05
-0.00163167
-7.46697e-06
-0.00183323
-2.04093e-05
-0.00199764
-0.000118425
-0.00216497
-0.000322052
-0.00260998
-0.000561537
-0.00250869
-0.000123933
-0.00178101
0.000142034
-0.00162844
7.46959e-05
-0.00164381
0.000116159
-0.00173418
0.00011609
-0.00184284
8.8989e-05
-0.00202437
4.61113e-05
-0.00205459
3.07474e-05
-0.00204254
-1.14646e-05
-0.00199613
-4.57979e-05
-0.00192148
-7.40039e-05
-0.00182023
-0.00010058
-0.00169083
-0.000128707
-0.00152869
-0.000161417
-0.00131962
-0.000208322
-0.00101173
-0.000307129
-0.000966379
-0.000519197
-0.000636354
-0.000658094
2.81586e-05
-0.000819736
-0.000145331
0.00095153
-0.00216723
0.00135042
0.00113678
0.00116
0.00262712
0.000435481
0.00284387
-0.000365885
0.00171389
-0.000706787
0.000136987
-0.000848274
-0.000346329
-0.000994523
-0.000296477
-0.00116144
-0.000169169
-0.00134077
-5.37047e-05
-0.00151939
4.0843e-05
-0.00168331
0.000109272
-0.00182736
0.000137194
-0.00195506
0.000107885
-0.00208037
7.47393e-06
-0.00225228
-0.000149539
-0.00255788
-0.00025534
-0.00252487
-0.000156351
-0.00235807
-2.41475e-05
-0.00229873
1.5982e-05
-0.00224661
6.4677e-05
-0.00221038
8.05288e-05
-0.00218646
6.5753e-05
-0.00217139
3.1759e-05
-0.00213117
-8.73321e-06
-0.00208651
-5.53741e-05
-0.00203334
-9.81996e-05
-0.00197043
-0.000136141
-0.00189875
-0.000171464
-0.00182027
-0.000206385
-0.00173727
-0.00024359
-0.00165427
-0.000290479
-0.0015997
-0.000360816
-0.00167426
-0.000443739
-0.00184613
-0.000485305
-0.00223261
-0.000432355
-0.00210999
-0.000267092
-0.00191781
-0.000191591
-0.00170991
-0.00020733
-0.00174187
0.00115643
-0.00336612
0.00217155
0.000121587
0.00206607
0.00273197
0.00109415
0.0038153
8.69568e-05
0.0027211
-0.000453148
0.000677547
-0.000784852
-1.40192e-05
-0.00106958
-1.11733e-05
-0.0013187
8.05643e-05
-0.00152606
0.000154286
-0.00168713
0.000202535
-0.00180444
0.000227241
-0.00189182
0.000225288
-0.00196888
0.000185696
-0.00206055
9.99261e-05
-0.00219261
-1.66862e-05
-0.00234985
-9.73149e-05
-0.00240874
-9.66798e-05
-0.00237577
-5.63481e-05
-0.00232884
-3.019e-05
-0.00225805
-5.35704e-06
-0.00217883
2.0772e-06
-0.00210202
-1.0272e-05
-0.00203162
-3.78513e-05
-0.00196538
-7.41786e-05
-0.0019042
-0.000115765
-0.00184487
-0.000156732
-0.00178481
-0.000195415
-0.00172339
-0.000232095
-0.00166145
-0.000267528
-0.00160118
-0.000303078
-0.0015487
-0.000342152
-0.00152114
-0.000387565
-0.00153689
-0.000427175
-0.0015903
-0.000431065
-0.00164081
-0.000381033
-0.00155553
-0.000351575
-0.00128825
-0.000458089
-0.000903742
-0.000591084
-0.00267842
0.00122062
-0.00464363
0.00298237
-0.00163885
0.0029288
0.00278616
0.00152084
0.00522358
0.000411526
0.0038309
-0.000286778
0.00137658
-0.000813431
0.000513393
-0.0011723
0.000348385
-0.00141039
0.000319277
-0.00155914
0.000303672
-0.00164289
0.000286949
-0.00168119
0.00026627
-0.00169213
0.000237035
-0.00169754
0.00019198
-0.00172169
0.000125002
-0.00177985
4.24268e-05
-0.00184856
-2.76454e-05
-0.00188391
-6.03715e-05
-0.00187229
-6.70248e-05
-0.0018344
-6.71529e-05
-0.00177394
-6.49e-05
-0.00170163
-6.93211e-05
-0.00162719
-8.3808e-05
-0.00155645
-0.000107698
-0.00149133
-0.000138409
-0.00143259
-0.000173633
-0.00137824
-0.000210225
-0.00132607
-0.000246738
-0.0012744
-0.000282933
-0.00122191
-0.000319209
-0.00116745
-0.000356742
-0.0011109
-0.000397909
-0.00105316
-0.000444518
-0.000987602
-0.000491955
-0.000890848
-0.000527035
-0.00072721
-0.000543889
-0.000505145
-0.000572866
-0.000282271
-0.000680203
3.92764e-05
-0.000911881
-0.00267337
-3.31675e-05
-0.00467679
0.00217009
-0.0038402
0.00244268
0.00251513
0.000397922
0.00726941
-0.000317333
0.00454712
-0.000768888
0.00182901
-0.00110169
0.000846972
-0.00127987
0.000527238
-0.00133927
0.000379325
-0.00132338
0.00028845
-0.00126287
0.000227156
-0.00117779
0.000181976
-0.00108317
0.000143271
-0.00099591
0.000105668
-0.000934103
6.42179e-05
-0.000907563
1.69613e-05
-0.000906315
-2.77963e-05
-0.000906706
-5.88726e-05
-0.000894642
-7.79836e-05
-0.000869667
-9.10301e-05
-0.000832197
-0.000101283
-0.00078691
-0.000113534
-0.000739229
-0.00013043
-0.00069334
-0.000152541
-0.000651553
-0.00017917
-0.000614891
-0.00020929
-0.000582616
-0.000241517
-0.000553292
-0.000275109
-0.000525239
-0.00031006
-0.000496464
-0.000347089
-0.000464442
-0.000387899
-0.000425918
-0.000435595
-0.000375164
-0.000494457
-0.000297452
-0.000568869
-0.000158473
-0.000665229
0.000101009
-0.000802598
0.000545439
-0.00101653
0.00116743
-0.00130145
0.00166621
-0.00140993
-0.00126374
-0.00479768
-0.00867396
-0.00400292
-0.00215399
-0.00276195
0.0060297
-0.00198898
0.00377513
-0.00162941
0.00147028
-0.00133355
0.00055182
-0.00106031
0.000254659
-0.000787033
0.000106726
-0.00052723
2.93674e-05
-0.000284781
-1.45098e-05
-6.42511e-05
-3.76961e-05
0.000126498
-4.65412e-05
0.000280289
-4.71064e-05
0.000392824
-4.72277e-05
0.000461725
-5.0786e-05
0.000493316
-5.81823e-05
0.00050381
-6.81336e-05
0.000507479
-8.04059e-05
0.000510837
-9.31342e-05
0.000516658
-0.000105852
0.000524598
-0.000120228
0.000532794
-0.000137389
0.000539162
-0.000157685
0.000542149
-0.000180951
0.000540866
-0.000206824
0.000535363
-0.000234859
0.000526309
-0.000264932
0.000514775
-0.000297443
0.000502222
-0.000333497
0.000490565
-0.000375247
0.000482351
-0.000426432
0.000481771
-0.000492971
0.000497572
-0.000583804
0.00054668
-0.000713505
0.000653496
-0.000908611
0.000854736
-0.001217
0.00125062
-0.00169657
0.00194515
-0.00210373
0.000385061
-0.00937987
0.00370916
-0.00575503
0.00240618
-0.0028158
0.000836752
-0.00100135
-0.000343559
2.15941e-05
-0.000470592
0.000647878
-0.000371009
0.00109048
-0.000335157
0.00142113
-0.000300466
0.00167266
-0.000265131
0.00186434
-0.000228393
0.00200794
-0.000189072
0.00211129
-0.000149325
0.00217878
-0.000113506
0.00221469
-8.54433e-05
0.00222401
-6.61848e-05
0.00221388
-5.66655e-05
0.0021928
-5.79546e-05
0.00216573
-6.46712e-05
0.00213544
-7.41578e-05
0.00210312
-8.64992e-05
0.00206848
-0.000101345
0.00203057
-0.000118357
0.00198831
-0.000137296
0.00194092
-0.000158039
0.00188803
-0.000180604
0.00182971
-0.000205281
0.00176631
-0.000232758
0.00169832
-0.000264263
0.00162606
-0.000301811
0.00154932
-0.000348571
0.00146667
-0.000409278
0.00137456
-0.000490708
0.00126462
-0.000602638
0.00111666
-0.000759788
0.000881753
-0.00098127
0.000447744
-0.00126179
-0.00051717
-0.00113808
-0.000191702
-9.96229e-05
0.00376019
0.00316438
-0.000856535
0.00409781
-9.57251e-05
0.0040616
-0.000306441
0.00411499
-0.000523087
0.00426094
-0.000516066
0.00435948
-0.000432778
0.00440917
-0.000349187
0.00441673
-0.000271657
0.00438721
-0.000197772
0.00432999
-0.000130686
0.00425753
-7.56254e-05
0.00418104
-3.57164e-05
0.00410765
-1.07039e-05
0.00404066
2.19086e-06
0.0039795
5.93648e-06
0.00392014
2.87016e-06
0.00386043
-3.46682e-06
0.00379906
-1.1266e-05
0.00373398
-1.98756e-05
0.00366317
-2.89709e-05
0.00358498
-3.85964e-05
0.00349824
-4.89659e-05
0.00340217
-6.0389e-05
0.00329638
-7.32363e-05
0.0031806
-8.7954e-05
0.00305446
-0.000105105
0.0029171
-0.000125435
0.00276665
-0.000149969
0.00259952
-0.000180119
0.00240929
-0.000217808
0.00218535
-0.000265616
0.0019106
-0.000326835
0.00155731
-0.00040553
0.00109163
-0.000514713
0.000549651
-0.000719002
5.63756e-05
-0.000644059
-0.000204922
-0.000126877
0.00856542
0.0122394
0.0112951
0.0111072
0.0107033
0.0100769
0.00945134
0.00890297
0.00843255
0.0080349
0.00770772
0.00744592
0.00723918
0.00707369
0.00693537
0.0068124
0.00669556
0.00657775
0.00645542
0.00632688
0.00619112
0.00604754
0.00589551
0.00573426
0.0055627
0.00537941
0.0051825
0.00496952
0.00473725
0.00448145
0.00419644
0.00387462
0.00350582
0.00307663
0.00256966
0.0019547
0.00113764
0.000394428
)
;

boundaryField
{
    floor
    {
        type            calculated;
        value           nonuniform List<scalar> 
29
(
0
0
0
0
0
0
0
0
0
0
0
0
0
0
0
0
0
0
0
0
3.76253e-06
9.60065e-06
1.62493e-05
2.65477e-05
4.34647e-06
4.06088e-06
1.06328e-05
1.68482e-05
2.29217e-05
)
;
    }
    ceiling
    {
        type            calculated;
        value           nonuniform List<scalar> 
43
(
0.000173655
0.00014589
8.74735e-05
8.89551e-05
9.34203e-05
9.8709e-05
0.000104567
0.00011072
0.000116808
0.00012245
0.000127212
0.000130635
0.000132377
0.000132416
0.000131104
0.000128999
0.0001266
0.00012426
0.000122202
0.000120432
0.000118896
0.000117546
0.000116326
0.000115183
0.000114077
0.000112982
0.000111886
0.000110786
0.000109688
0.000108604
0.000107544
0.00010652
0.000105534
0.000104579
0.000103621
0.000102581
0.000101241
9.89418e-05
9.99511e-05
0.000105583
4.86759e-05
3.8031e-05
5.08764e-05
)
;
    }
    sWall
    {
        type            calculated;
        value           uniform 7.07786e-05;
    }
    nWall
    {
        type            calculated;
        value           nonuniform List<scalar> 6(3.25328e-05 3.35553e-05 3.49857e-05 6.03004e-05 7.02944e-05 8.46539e-05);
    }
    sideWalls
    {
        type            empty;
        value           nonuniform 0();
    }
    glass1
    {
        type            calculated;
        value           nonuniform List<scalar> 9(-3.131e-05 -8.35329e-05 -0.000125151 -1.22715e-05 2.35828e-05 4.40445e-05 5.87881e-05 6.83122e-05 7.42105e-05);
    }
    glass2
    {
        type            calculated;
        value           nonuniform List<scalar> 2(0.000257342 0.000297099);
    }
    sun
    {
        type            calculated;
        value           uniform 0;
    }
    heatsource1
    {
        type            calculated;
        value           nonuniform List<scalar> 3(1.92241e-07 1.9219e-07 1.92304e-07);
    }
    heatsource2
    {
        type            calculated;
        value           nonuniform List<scalar> 4(4.92781e-08 4.94611e-08 0 0);
    }
    Table_master
    {
        type            calculated;
        value           nonuniform List<scalar> 9(-1.48559e-07 -1.48571e-07 -1.4843e-07 -1.48274e-07 -1.48097e-07 -1.47904e-07 -1.47705e-07 -1.47476e-07 -1.47156e-07);
    }
    Table_slave
    {
        type            calculated;
        value           nonuniform List<scalar> 9(1.45731e-07 1.45689e-07 1.45647e-07 1.45618e-07 1.456e-07 1.45592e-07 1.45594e-07 1.4561e-07 1.45618e-07);
    }
    inlet
    {
        type            calculated;
        value           uniform 0.00351933;
    }
    outlet
    {
        type            calculated;
        value           nonuniform List<scalar> 2(-0.000117148 -0.00883744);
    }
}


// ************************************************************************* //
