/*--------------------------------*- C++ -*----------------------------------*\
  =========                 |
  \\      /  F ield         | OpenFOAM: The Open Source CFD Toolbox
   \\    /   O peration     | Website:  https://openfoam.org
    \\  /    A nd           | Version:  6
     \\/     M anipulation  |
\*---------------------------------------------------------------------------*/
FoamFile
{
    version     2.0;
    format      ascii;
    class       volScalarField;
    location    "400";
    object      epsilon;
}
// * * * * * * * * * * * * * * * * * * * * * * * * * * * * * * * * * * * * * //

dimensions      [0 2 -3 0 0 0 0];

internalField   nonuniform List<scalar> 
459
(
0.000371065
0.000473042
0.000489574
0.000558739
0.000627508
0.00069543
0.000764622
0.000838953
0.000903354
0.000941418
0.000940147
0.000891643
0.000799907
0.00068537
0.000574594
2.96526e-05
5.45964e-05
7.15534e-05
6.60058e-05
5.78441e-05
4.95387e-05
4.13422e-05
3.43747e-05
2.87612e-05
2.42779e-05
2.06797e-05
1.77908e-05
1.54333e-05
1.3471e-05
1.17922e-05
1.02887e-05
8.84936e-06
8.23805e-06
6.50023e-06
0.000991539
0.00151025
0.000447099
0.00042548
0.000440171
0.000464617
0.000500548
0.000552504
0.000611511
0.000660177
0.000680177
0.00065884
0.000595764
0.000510883
0.000462002
0.000593941
0.000170961
4.34617e-05
9.34943e-05
9.05909e-05
7.80813e-05
6.40595e-05
5.22066e-05
4.53499e-05
3.70718e-05
2.99466e-05
2.4239e-05
1.97533e-05
1.62633e-05
1.35388e-05
1.14197e-05
9.89111e-06
9.03127e-06
8.76551e-06
2.67882e-05
1.72919e-05
0.00187023
0.00390259
0.000580879
0.000408652
0.000417821
0.00045631
0.000514515
0.000593994
0.000683639
0.000757242
0.000791593
0.000775657
0.000712092
0.000620072
0.000531724
0.000484472
0.000537415
0.000347062
0.000216175
0.00014908
0.000108144
8.18141e-05
6.6699e-05
0.000116042
8.27627e-05
6.10993e-05
4.65867e-05
3.65614e-05
2.94331e-05
2.42397e-05
2.03972e-05
1.75644e-05
1.36334e-05
1.17143e-05
5.11642e-05
2.84306e-05
0.0031126
0.00827481
0.000973475
0.000419264
0.000405981
0.000458162
0.000542347
0.000663591
0.000793833
0.000886949
0.000922625
0.000898263
0.000821924
0.00071413
0.000592853
0.000498697
0.000459069
0.00081139
0.000438312
0.000249676
0.000160613
0.000112535
8.44478e-05
7.19642e-05
0.000162591
0.000128488
0.000108566
9.55655e-05
8.53282e-05
7.54272e-05
6.65475e-05
5.77233e-05
4.81137e-05
2.92589e-05
1.9635e-05
8.54619e-05
3.9394e-05
0.00484848
0.0148374
0.00200026
0.000511295
0.000412014
0.000466164
0.000589394
0.00080423
0.000986465
0.00108302
0.00110142
0.00105187
0.000947534
0.000806744
0.000649581
0.000500586
0.000378398
0.000308607
0.00023214
0.000170534
0.000125833
9.55133e-05
7.59546e-05
6.51989e-05
6.5428e-05
6.38951e-05
6.21822e-05
6.00644e-05
5.68944e-05
5.22449e-05
4.7187e-05
4.23854e-05
3.80444e-05
3.13014e-05
2.4613e-05
5.94189e-05
4.59774e-05
7.66983e-05
0.000133123
0.000187192
0.0072725
0.021979
0.00457418
0.00101526
0.000609107
0.00060331
0.000790783
0.00116134
0.00133928
0.0013869
0.00135416
0.00126192
0.00111828
0.000933829
0.000729393
0.000533156
0.000371655
0.000261127
0.000190424
0.000141505
0.00010649
8.34554e-05
7.00329e-05
6.40935e-05
6.40934e-05
6.6619e-05
6.9392e-05
7.10786e-05
7.05074e-05
6.64715e-05
5.84914e-05
4.98113e-05
4.19121e-05
3.4983e-05
3.06436e-05
4.33901e-05
4.637e-05
5.77164e-05
0.00024617
0.000213096
0.0101596
0.0262077
0.00960761
0.00347919
0.00206535
0.00166244
0.00184889
0.00197458
0.00195254
0.00185332
0.0017164
0.00154559
0.00133428
0.00108585
0.000821817
0.000574925
0.000376264
0.000242992
0.00016376
0.000117367
8.92009e-05
7.37013e-05
6.7317e-05
6.74381e-05
7.21064e-05
7.90628e-05
8.65456e-05
9.35622e-05
9.89223e-05
0.000100586
9.49612e-05
8.26013e-05
7.05648e-05
6.07653e-05
5.69793e-05
6.50374e-05
8.45603e-05
0.000138845
0.000327325
0.000313724
0.0108474
0.0292315
0.0159627
0.0104965
0.0072382
0.00535342
0.00421728
0.00342122
0.00287517
0.00248952
0.00218284
0.00189119
0.0015776
0.00123655
0.000893788
0.000587111
0.000349726
0.000203352
0.000124313
9.02284e-05
7.40869e-05
6.79479e-05
6.83837e-05
7.34369e-05
8.187e-05
9.27387e-05
0.000105543
0.00012028
0.000137041
0.000155564
0.000174506
0.00018569
0.000192438
0.000211645
0.000254533
0.000387996
0.000732645
0.0014117
0.00414627
0.00120231
0.0100478
0.0170126
0.013661
0.0103232
0.00784371
0.0060969
0.00488118
0.00406011
0.00349289
0.00305605
0.00265517
0.00223476
0.00177939
0.00130439
0.000861785
0.000496911
0.000239306
0.000132998
8.78013e-05
6.92296e-05
6.2623e-05
6.26862e-05
6.70551e-05
7.46116e-05
8.49101e-05
9.79216e-05
0.000114043
0.000134166
0.000159731
0.00019282
0.000236277
0.000293735
0.000371899
0.00048956
0.000664015
0.000900447
0.00116859
0.00139818
0.00157281
0.000979124
0.00442379
0.00663557
0.0064689
0.00596127
0.00543822
0.00485522
0.00423453
0.00358683
0.00291724
0.00224251
0.00159014
0.000957958
0.000477106
0.000231108
0.000116542
7.21752e-05
5.51481e-05
4.93616e-05
4.90899e-05
5.20291e-05
5.72008e-05
6.42644e-05
7.32323e-05
8.43716e-05
9.82222e-05
0.000115676
0.000138107
0.000167602
0.00020732
0.00026265
0.000338994
0.000443718
0.000580362
0.000735497
0.00086658
0.000917897
0.000853458
0.000540646
0.0031896
0.00643062
0.00649107
0.00537856
0.00468568
0.00415875
0.00349613
0.00267894
0.00184851
0.00116722
0.000668101
0.000344023
0.000169977
8.82119e-05
5.3727e-05
4.13242e-05
3.80409e-05
3.87895e-05
4.15633e-05
4.57594e-05
5.12236e-05
5.80256e-05
6.63888e-05
7.66835e-05
8.94759e-05
0.000105628
0.000126455
0.000153955
0.000191058
0.000241359
0.000309845
0.000401467
0.00051667
0.000647218
0.000743176
0.00083991
0.000767218
0.00056627
0.00211036
0.00249762
0.00280862
0.0033216
0.00281198
0.00229319
0.00188359
0.0015298
0.0012449
0.000965386
0.000699318
0.000460506
0.000278015
0.000160461
9.56796e-05
6.39579e-05
4.97975e-05
4.43944e-05
4.357e-05
4.54126e-05
4.9084e-05
5.41425e-05
6.04591e-05
6.81592e-05
7.74582e-05
8.86586e-05
0.000102177
0.000118608
0.000138856
0.000164425
0.000196931
0.000237328
0.000287887
0.000351553
0.000431361
0.000544839
0.000582123
0.000539163
0.000443185
0.000353144
)
;

boundaryField
{
    floor
    {
        Cmu             0.09;
        kappa           0.41;
        E               9.8;
        type            epsilonWallFunction;
        value           nonuniform List<scalar> 
29
(
0.000574594
2.96526e-05
5.45964e-05
7.15534e-05
6.60058e-05
5.78441e-05
4.95387e-05
4.13422e-05
3.43747e-05
2.87612e-05
2.42779e-05
2.06797e-05
1.77908e-05
1.54333e-05
1.3471e-05
1.17922e-05
1.02887e-05
8.84936e-06
8.23805e-06
6.50023e-06
6.50023e-06
1.72919e-05
2.84306e-05
3.9394e-05
0.000574594
2.96526e-05
4.34617e-05
0.000347062
0.00081139
)
;
    }
    ceiling
    {
        Cmu             0.09;
        kappa           0.41;
        E               9.8;
        type            epsilonWallFunction;
        value           nonuniform List<scalar> 
43
(
0.00211036
0.00249762
0.00280862
0.0033216
0.00281198
0.00229319
0.00188359
0.0015298
0.0012449
0.000965386
0.000699318
0.000460506
0.000278015
0.000160461
9.56796e-05
6.39579e-05
4.97975e-05
4.43944e-05
4.357e-05
4.54126e-05
4.9084e-05
5.41425e-05
6.04591e-05
6.81592e-05
7.74582e-05
8.86586e-05
0.000102177
0.000118608
0.000138856
0.000164425
0.000196931
0.000237328
0.000287887
0.000351553
0.000431361
0.000544839
0.000582123
0.000539163
0.000443185
0.000353144
0.0100478
0.0170126
0.0031896
)
;
    }
    sWall
    {
        Cmu             0.09;
        kappa           0.41;
        E               9.8;
        type            epsilonWallFunction;
        value           uniform 0.00211036;
    }
    nWall
    {
        Cmu             0.09;
        kappa           0.41;
        E               9.8;
        type            epsilonWallFunction;
        value           nonuniform List<scalar> 6(0.000187192 0.000213096 0.000313724 0.000540646 0.00056627 0.000353144);
    }
    sideWalls
    {
        type            empty;
    }
    glass1
    {
        Cmu             0.09;
        kappa           0.41;
        E               9.8;
        type            epsilonWallFunction;
        value           nonuniform List<scalar> 9(0.000371065 0.000991539 0.00187023 0.0031126 0.00484848 0.0072725 0.0101596 0.0108474 0.0100478);
    }
    glass2
    {
        Cmu             0.09;
        kappa           0.41;
        E               9.8;
        type            epsilonWallFunction;
        value           nonuniform List<scalar> 2(0.00120231 0.000979124);
    }
    sun
    {
        Cmu             0.09;
        kappa           0.41;
        E               9.8;
        type            epsilonWallFunction;
        value           nonuniform List<scalar> 
14
(
0.000371065
0.000473042
0.000489574
0.000558739
0.000627508
0.00069543
0.000764622
0.000838953
0.000903354
0.000941418
0.000940147
0.000891643
0.000799907
0.00068537
)
;
    }
    heatsource1
    {
        Cmu             0.09;
        kappa           0.41;
        E               9.8;
        type            epsilonWallFunction;
        value           nonuniform List<scalar> 3(7.66983e-05 0.000133123 0.000187192);
    }
    heatsource2
    {
        Cmu             0.09;
        kappa           0.41;
        E               9.8;
        type            epsilonWallFunction;
        value           nonuniform List<scalar> 4(0.000593941 0.000170961 0.000170961 0.000537415);
    }
    Table_master
    {
        Cmu             0.09;
        kappa           0.41;
        E               9.8;
        type            epsilonWallFunction;
        value           nonuniform List<scalar> 9(0.000116042 8.27627e-05 6.10993e-05 4.65867e-05 3.65614e-05 2.94331e-05 2.42397e-05 2.03972e-05 1.75644e-05);
    }
    Table_slave
    {
        Cmu             0.09;
        kappa           0.41;
        E               9.8;
        type            epsilonWallFunction;
        value           nonuniform List<scalar> 9(0.000162591 0.000128488 0.000108566 9.55655e-05 8.53282e-05 7.54272e-05 6.65475e-05 5.77233e-05 4.81137e-05);
    }
    inlet
    {
        type            turbulentMixingLengthDissipationRateInlet;
        mixingLength    0.01;
        phi             phi;
        k               k;
        value           uniform 0.000101881;
    }
    outlet
    {
        type            zeroGradient;
    }
}


// ************************************************************************* //
