/*--------------------------------*- C++ -*----------------------------------*\
  =========                 |
  \\      /  F ield         | OpenFOAM: The Open Source CFD Toolbox
   \\    /   O peration     | Website:  https://openfoam.org
    \\  /    A nd           | Version:  6
     \\/     M anipulation  |
\*---------------------------------------------------------------------------*/
FoamFile
{
    version     2.0;
    format      ascii;
    class       surfaceScalarField;
    location    "400";
    object      phi;
}
// * * * * * * * * * * * * * * * * * * * * * * * * * * * * * * * * * * * * * //

dimensions      [1 0 -1 0 0 0 0];

internalField   nonuniform List<scalar> 
852
(
-0.002895
0.00295266
-0.00384585
0.000950874
-0.00460158
0.000755742
-0.00522112
0.000619562
-0.00567493
0.000453831
-0.00594296
0.000268055
-0.00600276
5.9817e-05
-0.00582967
-0.000173071
-0.00541076
-0.000418888
-0.00476661
-0.000644129
-0.00395276
-0.000813831
-0.00304474
-0.000908004
-0.00210914
-0.000935581
-0.00114351
-0.000965614
-0.00114193
-0.000586653
0.00058975
-0.000168135
-0.000418498
0.000437208
-0.000605324
0.000852316
-0.000415089
0.00110486
-0.000252528
0.00124954
-0.000144658
0.00132127
-7.17149e-05
0.00135413
-3.28367e-05
0.0013699
-1.57502e-05
0.00137661
-6.69353e-06
0.00137708
-4.51011e-07
0.00137211
4.99169e-06
0.0013595
1.26336e-05
0.00133111
2.84104e-05
0.00126566
6.54694e-05
0.0011284
0.00013728
0.000912237
0.00021618
0.000677346
0.000234912
0.000681567
-0.0020655
0.00517294
-0.00302215
0.00190754
-0.00381113
0.00154474
-0.00442186
0.00123031
-0.0048656
0.000897597
-0.00513499
0.000537461
-0.00520721
0.000132057
-0.0050556
-0.000324666
-0.00467291
-0.000801556
-0.00409107
-0.00122594
-0.00337515
-0.00152973
-0.00260301
-0.00168012
-0.00185385
-0.00168472
-0.00124029
-0.00157916
-0.001059
-0.0013232
-0.000305278
-0.000753754
-0.00030531
0.000611633
-1.33649e-05
0.00095916
-0.000766007
0.00113015
-0.000776291
0.00129484
-0.000579764
0.00141441
-0.000372079
0.00147586
-0.000206093
0.00148013
-7.59618e-05
0.00148065
-3.33431e-05
0.00148215
-1.72267e-05
0.0014835
-8.02175e-06
0.00148418
-1.11226e-06
0.00148394
5.24706e-06
0.00148191
1.46851e-05
0.00147461
3.5725e-05
0.00143381
0.000106298
0.00126196
0.000309144
0.000968038
0.000510123
0.000608157
0.000594814
0.0013002
-0.00145361
0.00686261
-0.00229843
0.00275238
-0.00300262
0.00224895
-0.00352468
0.0017524
-0.00391206
0.001285
-0.00415828
0.000783697
-0.00422921
0.000203013
-0.00408004
-0.000473817
-0.00370572
-0.00117586
-0.00315697
-0.00177467
-0.00250953
-0.00217715
-0.00183827
-0.00235137
-0.00121298
-0.00231
-0.000702878
-0.00208924
-0.000348093
-0.00167797
6.4687e-08
-0.00110189
-0.000305226
0.00133592
-0.00134047
0.00155131
-0.000981378
0.00154189
-0.000766859
0.00155213
-0.00058998
0.00157888
-0.000398814
0.0015757
-0.000202894
0.00149991
0.00146674
0.00144968
0.00144183
0.00144089
0.00144631
0.00146117
0.00149707
0.00160354
0.00132096
0.000591744
0.000976879
0.00085422
0.000542441
0.00102927
0.00185841
-0.00102649
0.00819383
-0.00171842
0.00344434
-0.00218806
0.00271861
-0.00253645
0.00210081
-0.00280545
0.00155401
-0.00298334
0.000961612
-0.00301822
0.00023791
-0.00283688
-0.000655135
-0.00245323
-0.0015595
-0.00194755
-0.00228032
-0.00139986
-0.00272482
-0.000869722
-0.00288149
-0.000399103
-0.00278059
-3.71907e-06
-0.0024846
0.000340701
-0.00202237
0.000712761
-0.00147394
0.00134848
-0.000940923
0.00207338
-0.000716496
0.00162809
-0.00089516
0.00154704
-0.000900311
0.0015012
-0.000721003
0.00146616
-0.000554924
0.00146868
-0.00040131
0.00151507
-0.000249271
0.0016402
-0.000125269
0.00174407
-0.000104005
0.00184045
-9.65158e-05
0.00192387
-8.35523e-05
0.00197683
-5.30973e-05
0.00197299
3.69314e-06
0.0018842
8.86567e-05
0.00167802
0.000206039
0.00130115
0.000376737
0.00115254
0.000740369
0.000837191
0.00116959
0.000346158
0.00152032
0.00222511
-0.000727392
0.00928397
-0.00127443
0.0039914
-0.00138511
0.00282931
-0.00148101
0.00219672
-0.0015685
0.00164153
-0.00162071
0.00101383
-0.00155026
0.00016748
-0.0012815
-0.00092387
-0.000892605
-0.00194837
-0.000475274
-0.00269763
-8.79643e-05
-0.0031121
0.000237354
-0.00320678
0.000491326
-0.00303454
0.000683683
-0.00267694
0.000857627
-0.00219629
0.00105433
-0.00167062
0.00130982
-0.00119639
0.0014974
-0.000904059
0.00142533
-0.000823072
0.0012844
-0.000759369
0.00118805
-0.000624635
0.00112433
-0.000491185
0.00110043
-0.000377394
0.00112821
-0.000277038
0.001214
-0.000211039
0.00130349
-0.000193481
0.00139719
-0.0001902
0.00148849
-0.000174833
0.00156364
-0.000128232
0.00160089
-3.35522e-05
0.00157712
0.000112449
0.00147999
0.000303182
0.0013133
0.000543441
0.00115888
0.000894799
0.000985667
0.00134282
0.000607398
0.00189861
0.000448032
0.0023845
-0.00103183
0.00147967
-0.00148654
0.00045453
-0.0014374
-0.000640353
0.0103359
-0.00103652
0.00438758
-0.000649429
0.00244224
-0.000377401
0.00192471
-0.000217106
0.00148125
-6.42256e-05
0.000860971
0.000214219
-0.00011095
0.000592836
-0.00130247
0.000934213
-0.00228973
0.00118508
-0.00294847
0.00133174
-0.00325874
0.00138474
-0.00325977
0.00137032
-0.0030201
0.00131261
-0.0026192
0.00124641
-0.00213007
0.00120062
-0.00162482
0.00118049
-0.00117624
0.00113702
-0.000860572
0.00101094
-0.000696974
0.000845517
-0.000593933
0.000716092
-0.000495192
0.000635553
-0.000410629
0.000604887
-0.000346712
0.00062702
-0.000299155
0.000691591
-0.000275595
0.000775287
-0.000277162
0.000869774
-0.000284672
0.000970836
-0.000275882
0.00107224
-0.000229625
0.00116187
-0.000123166
0.00121744
5.68883e-05
0.00123197
0.000288673
0.00121878
0.00055664
0.00122849
0.000885105
0.00131019
0.00126113
0.00147637
0.00173245
0.00190426
0.00195663
0.00215775
0.0012262
0.00177196
0.000840335
0.000393608
-0.000737366
0.0115286
-0.000660175
0.00431041
0.000393145
0.00138893
0.00100625
0.00131162
0.00140171
0.00108581
0.00185554
0.000407159
0.00235314
-0.000608536
0.00272153
-0.00167084
0.00290559
-0.00247377
0.00290212
-0.00294498
0.00274055
-0.00309715
0.00246598
-0.00298516
0.00212812
-0.00268223
0.00176978
-0.00226084
0.00142807
-0.00178835
0.00112884
-0.00132556
0.000877907
-0.000925292
0.000662935
-0.000645583
0.000456478
-0.0004905
0.000273945
-0.000411383
0.000140633
-0.000361864
6.10634e-05
-0.000331044
2.96883e-05
-0.000315322
4.15017e-05
-0.000310954
8.52354e-05
-0.000319314
0.000146694
-0.000338607
0.000219326
-0.000357291
0.000304136
-0.000360679
0.000406221
-0.000331697
0.000530703
-0.000247636
0.00066713
-7.95262e-05
0.000800003
0.000155813
0.00093592
0.000420736
0.00111944
0.000701598
0.00140134
0.000979245
0.00184818
0.00128562
0.00251678
0.00128804
0.00305988
0.000683119
0.00309073
0.000809504
0.00354817
0.00251443
0.00952308
0.00315852
0.00366634
0.0033951
0.00115237
0.00371462
0.000992129
0.0040805
0.000719942
0.0045866
-9.89236e-05
0.00502008
-0.001042
0.00514122
-0.00179196
0.00494859
-0.00228112
0.00450986
-0.00250622
0.00390702
-0.00249429
0.00322026
-0.00229838
0.00251852
-0.00198047
0.00184988
-0.00159218
0.00124904
-0.0011875
0.000740186
-0.000816688
0.000328567
-0.000513657
1.86439e-05
-0.000335644
-0.000209693
-0.000262147
-0.000372821
-0.000248239
-0.000484506
-0.000250164
-0.000555967
-0.000259568
-0.000596556
-0.000274718
-0.000612971
-0.000294526
-0.000613182
-0.00031909
-0.000605486
-0.00034629
-0.000593249
-0.000369514
-0.000573886
-0.00038003
-0.000537903
-0.000367667
-0.000464856
-0.00032067
-0.000320357
-0.000224013
-0.000119049
-4.54827e-05
0.00011342
0.00018828
0.000395687
0.000419344
0.000740871
0.000634074
0.00118975
0.000836755
0.00166136
0.000816454
0.00183794
0.000506558
0.00106788
0.00157957
0.00487828
0.0100814
0.0137402
0.0123253
0.00256729
0.0112447
0.00207272
0.0104765
0.00148823
0.00977226
0.000605313
0.008871
-0.000140706
0.00778615
-0.000707069
0.00660849
-0.00110343
0.00540456
-0.00130226
0.00422608
-0.00131579
0.00311991
-0.00119218
0.0021241
-0.000984649
0.00125183
-0.000719898
0.000511345
-0.000446996
-7.36673e-05
-0.000231661
-0.000480526
-0.000106782
-0.000733623
-8.25307e-05
-0.000899768
-9.59875e-05
-0.00102381
-0.000124178
-0.00112127
-0.000152696
-0.00120091
-0.000179914
-0.00126931
-0.0002063
-0.00133203
-0.000231792
-0.00139538
-0.000255729
-0.00146627
-0.000275385
-0.00155085
-0.000284915
-0.00165531
-0.000275564
-0.0017874
-0.000235559
-0.00195767
-0.000150385
-0.00217555
-6.12623e-06
-0.00242535
0.000204333
-0.00273021
0.000493157
-0.00318554
0.000874687
-0.00389356
0.00134211
-0.00491613
0.00185933
-0.00636481
0.00226515
-0.00809975
0.00224152
-0.00756485
0.00104469
-0.00239544
0.00479566
0.00386747
0.00428177
0.00258666
0.00501575
0.000754316
0.00516834
0.000452777
0.0048603
0.000167389
0.00432329
-0.000170019
0.00362699
-0.000407105
0.00282512
-0.000500376
0.00197626
-0.000466914
0.00114069
-0.000356592
0.000359159
-0.00020311
-0.000323518
-3.72094e-05
-0.000838712
6.8212e-05
-0.00116239
9.20329e-05
-0.00134426
7.51035e-05
-0.00146234
3.55583e-05
-0.00155538
-2.92919e-06
-0.00164235
-3.71944e-05
-0.00172843
-6.65964e-05
-0.00181635
-9.19874e-05
-0.00190847
-0.000114161
-0.00200741
-0.000132838
-0.00211593
-0.000147193
-0.00223627
-0.000155035
-0.00236896
-0.000152209
-0.00251198
-0.00013253
-0.00265955
-8.7975e-05
-0.00280113
-8.78835e-06
-0.00292282
0.00011558
-0.00302102
0.000302544
-0.00310678
0.000578928
-0.00319005
0.000957979
-0.00327143
0.0014235
-0.00330296
0.00189089
-0.0032212
0.0021834
-0.00284129
0.00186163
-0.00156865
-0.000227929
-0.00388771
-0.000619377
0.00454368
0.000568798
0.00139852
0.00070474
0.000618406
0.000780724
0.000376818
0.000754201
0.000193928
0.00054597
3.82212e-05
0.000171957
-3.30878e-05
-0.000317028
-1.13931e-05
-0.000830374
4.64373e-05
-0.00128485
9.78976e-05
-0.00162591
0.00013796
-0.00182402
0.000160909
-0.00191318
0.000157389
-0.00195418
0.000133051
-0.00197841
9.93448e-05
-0.00200682
6.39829e-05
-0.00204281
3.30738e-05
-0.0020886
8.60704e-06
-0.00214437
-1.08072e-05
-0.00220978
-2.6565e-05
-0.00228437
-3.95583e-05
-0.00236723
-4.99576e-05
-0.00245691
-5.75054e-05
-0.00255074
-6.11862e-05
-0.00264399
-5.89397e-05
-0.00272898
-4.75316e-05
-0.00279434
-2.25998e-05
-0.00282531
2.21962e-05
-0.00280755
9.78399e-05
-0.00271812
0.000213126
-0.00252313
0.000383953
-0.00219629
0.000631158
-0.001727
0.000954226
-0.00109468
0.00125858
-0.000116735
0.00120547
0.00117949
0.000565417
0.00156624
-0.000614669
-0.00223757
-0.00750878
-0.0103346
-0.00574813
-0.00432671
-0.00369276
-0.0033044
-0.00310192
-0.00305752
-0.00308624
-0.00309469
-0.0030464
-0.00294753
-0.00280935
-0.00264888
-0.0024925
-0.0023609
-0.00226334
-0.00220135
-0.00217039
-0.00216399
-0.00217705
-0.00220589
-0.00224775
-0.00230001
-0.00235981
-0.00242328
-0.00248448
-0.00253424
-0.00255903
-0.00253898
-0.00244322
-0.00223213
-0.00185016
-0.00122095
-0.000268667
0.000987917
0.00219128
0.00275446
0.00213739
)
;

boundaryField
{
    floor
    {
        type            calculated;
        value           nonuniform List<scalar> 
29
(
0
0
0
0
0
0
0
0
0
0
0
0
0
0
0
0
0
0
0
0
-4.19898e-06
-1.04598e-05
-1.57422e-05
-2.05262e-05
-1.55326e-06
-3.07799e-06
-8.49811e-06
-8.79671e-06
-8.38516e-06
)
;
    }
    ceiling
    {
        type            calculated;
        value           nonuniform List<scalar> 
43
(
-4.54187e-05
-4.40938e-05
-4.27757e-05
-2.2889e-05
-1.55397e-05
-1.15464e-05
-8.55021e-06
-6.1663e-06
-4.36023e-06
-2.93897e-06
-1.84181e-06
-9.57017e-07
-2.04287e-07
4.53653e-07
1.01706e-06
1.46773e-06
1.79208e-06
2.00457e-06
2.13608e-06
2.21622e-06
2.26469e-06
2.29409e-06
2.31055e-06
2.31595e-06
2.31137e-06
2.29757e-06
2.27509e-06
2.24427e-06
2.20504e-06
2.1565e-06
2.10118e-06
2.04756e-06
2.0003e-06
1.96566e-06
1.95499e-06
2.00836e-06
2.11869e-06
2.25731e-06
2.41771e-06
3.33716e-06
1.06313e-05
7.56989e-06
-5.68178e-05
)
;
    }
    sWall
    {
        type            calculated;
        value           uniform -0.000271578;
    }
    nWall
    {
        type            calculated;
        value           nonuniform List<scalar> 6(-4.93292e-05 -5.90225e-05 -6.38115e-05 -7.63737e-05 -8.38793e-05 -0.000103506);
    }
    sideWalls
    {
        type            empty;
        value           nonuniform 0();
    }
    glass1
    {
        type            calculated;
        value           nonuniform List<scalar> 9(-5.76386e-05 -0.000154768 -0.000236033 -0.000304715 -0.000362731 -0.000411572 -0.000455338 -0.000508852 -0.000568972);
    }
    glass2
    {
        type            calculated;
        value           nonuniform List<scalar> 2(-0.000262219 -0.000291107);
    }
    sun
    {
        type            calculated;
        value           uniform 0;
    }
    heatsource1
    {
        type            calculated;
        value           nonuniform List<scalar> 3(2.04292e-07 2.04217e-07 2.04231e-07);
    }
    heatsource2
    {
        type            calculated;
        value           nonuniform List<scalar> 4(5.10933e-08 5.12375e-08 0 0);
    }
    Table_master
    {
        type            calculated;
        value           nonuniform List<scalar> 9(-1.53206e-07 -1.53268e-07 -1.53291e-07 -1.53307e-07 -1.53319e-07 -1.53326e-07 -1.53329e-07 -1.53325e-07 -1.53295e-07);
    }
    Table_slave
    {
        type            calculated;
        value           nonuniform List<scalar> 9(1.53099e-07 1.53106e-07 1.53078e-07 1.53053e-07 1.53039e-07 1.53044e-07 1.53053e-07 1.53092e-07 1.53173e-07);
    }
    inlet
    {
        type            calculated;
        value           uniform -0.00609582;
    }
    outlet
    {
        type            calculated;
        value           nonuniform List<scalar> 2(0.00782579 0.00286992);
    }
}


// ************************************************************************* //
