/*--------------------------------*- C++ -*----------------------------------*\
  =========                 |
  \\      /  F ield         | OpenFOAM: The Open Source CFD Toolbox
   \\    /   O peration     | Website:  https://openfoam.org
    \\  /    A nd           | Version:  6
     \\/     M anipulation  |
\*---------------------------------------------------------------------------*/
FoamFile
{
    version     2.0;
    format      ascii;
    class       volScalarField;
    location    "680";
    object      epsilon;
}
// * * * * * * * * * * * * * * * * * * * * * * * * * * * * * * * * * * * * * //

dimensions      [0 2 -3 0 0 0 0];

internalField   nonuniform List<scalar> 
459
(
0.000188391
0.000236656
0.000247548
0.000280883
0.000312602
0.000342743
0.000372125
0.00040193
0.000433984
0.000462916
0.000484335
0.000493775
0.000487803
0.000467538
0.000439711
8.22874e-05
0.000142589
0.000115346
8.58135e-05
6.17433e-05
4.56506e-05
3.35795e-05
2.47894e-05
1.86268e-05
1.42856e-05
1.11636e-05
8.87139e-06
7.15087e-06
5.8223e-06
4.76106e-06
3.89066e-06
3.88982e-06
1.28943e-05
3.47921e-05
0.000489802
0.000771072
0.000221742
0.000212671
0.000214908
0.000220188
0.000229408
0.00024483
0.000268797
0.000297844
0.000327088
0.000350222
0.000361936
0.000364798
0.000385459
0.000500621
0.000276188
0.000193471
0.000294332
0.000160804
0.000105935
7.36243e-05
5.26811e-05
3.89059e-05
2.83872e-05
2.10109e-05
1.58348e-05
1.21603e-05
9.52202e-06
7.61063e-06
6.24689e-06
5.43887e-06
5.25337e-06
1.46402e-05
5.65183e-05
6.06473e-05
0.00092399
0.00198648
0.000269298
0.000197308
0.000194171
0.000201141
0.000214752
0.000236455
0.000267112
0.000305144
0.00034515
0.000380681
0.00040756
0.000425705
0.000440723
0.000457573
0.000632226
0.000395097
0.000256867
0.000169854
0.000121054
8.96258e-05
6.81556e-05
9.45213e-05
5.90315e-05
3.98681e-05
2.85043e-05
2.12985e-05
1.64956e-05
1.31798e-05
1.0852e-05
9.26085e-06
7.07772e-06
1.33124e-05
7.0463e-05
8.04124e-05
0.00154861
0.00423336
0.000420095
0.00019089
0.000178496
0.000186605
0.00020169
0.000225836
0.000262409
0.00030896
0.000355565
0.000397058
0.000433455
0.000464217
0.000483119
0.000470987
0.0004241
0.000743019
0.000438034
0.000269057
0.000181453
0.000129632
9.66085e-05
7.72765e-05
0.000154655
0.000110557
8.13588e-05
6.16259e-05
4.78938e-05
3.79494e-05
3.03485e-05
2.41233e-05
1.84585e-05
1.02502e-05
1.29272e-05
0.000100953
0.000101203
0.00243468
0.00773179
0.000818488
0.000203822
0.000163766
0.000169839
0.00018637
0.000217227
0.00027194
0.000335562
0.000388271
0.000432114
0.000474007
0.000512891
0.000534839
0.000513767
0.000445455
0.000367578
0.000282664
0.000210082
0.000154435
0.000114317
8.77566e-05
7.30485e-05
7.33349e-05
6.33787e-05
5.2446e-05
4.30789e-05
3.55589e-05
2.95088e-05
2.44567e-05
2.00053e-05
1.57192e-05
1.16788e-05
1.20559e-05
5.28063e-05
9.14839e-05
9.50249e-05
0.000177567
0.000563706
0.00368645
0.0117309
0.00186287
0.000315122
0.000179377
0.000168959
0.000181479
0.000221925
0.000325892
0.00040987
0.000461298
0.000503289
0.000550128
0.000597295
0.000622703
0.000597288
0.000513715
0.000403165
0.000299572
0.000215111
0.000152024
0.000109056
8.3222e-05
7.01895e-05
6.43738e-05
5.78605e-05
5.08291e-05
4.43084e-05
3.86021e-05
3.35534e-05
2.89082e-05
2.44711e-05
2.01225e-05
1.64759e-05
1.57872e-05
2.38516e-05
5.57047e-05
0.000169955
0.000844987
0.00134779
0.00534582
0.0142626
0.00441073
0.00105011
0.000479383
0.000331466
0.00030279
0.000368952
0.000504152
0.000566179
0.000592661
0.000623693
0.000675218
0.000735382
0.000772578
0.000746399
0.000642308
0.000496619
0.00035639
0.000243535
0.000164572
0.000115695
9.02539e-05
7.88147e-05
7.34057e-05
6.88405e-05
6.41584e-05
5.97407e-05
5.57629e-05
5.20856e-05
4.84789e-05
4.47335e-05
4.06631e-05
3.64484e-05
3.33203e-05
3.59205e-05
7.55525e-05
0.000535233
0.00272452
0.00315628
0.00593023
0.0189129
0.00917683
0.00487769
0.00266581
0.00159232
0.00113458
0.0010127
0.000925326
0.000847048
0.000802678
0.000814232
0.00087728
0.000959346
0.00101382
0.000983441
0.00084342
0.000643856
0.00045313
0.000305612
0.000213489
0.00016352
0.000140353
0.000128975
0.000123756
0.00012097
0.000119175
0.000118154
0.000117865
0.000118144
0.000118699
0.00011905
0.00011839
0.000115522
0.000109063
0.000107541
0.000187456
0.00113929
0.00954765
0.00766733
0.00565949
0.0103107
0.00789015
0.00577437
0.00414997
0.00298864
0.00223833
0.00173738
0.00137666
0.00115049
0.00106302
0.00110066
0.00121434
0.0013392
0.00141839
0.00137323
0.0011699
0.000897512
0.0006592
0.000503547
0.000408542
0.000361542
0.00033548
0.000321601
0.000315873
0.000315387
0.000318417
0.000324264
0.000332693
0.00034357
0.000356563
0.0003708
0.000384625
0.000396081
0.000396451
0.000378455
0.000503046
0.00189691
0.0130477
0.0103836
0.00249745
0.00305619
0.0028079
0.00233632
0.0018972
0.00154802
0.00134247
0.0013156
0.00145136
0.00168867
0.00193361
0.00212349
0.00224142
0.00216911
0.00187163
0.00156559
0.00135876
0.00120921
0.00111558
0.00106846
0.00103689
0.00101837
0.00101095
0.00101317
0.00102377
0.00104203
0.00106785
0.00110162
0.00114361
0.00119296
0.00124684
0.00130477
0.00132124
0.00129036
0.00141443
0.00271858
0.00945125
0.00614383
0.00145854
0.00237807
0.00238767
0.00218412
0.00205181
0.00211033
0.00240308
0.00284302
0.00336742
0.00383502
0.00413564
0.00435856
0.00468189
0.00472085
0.0044089
0.0040547
0.003765
0.00351186
0.00332002
0.00319203
0.0031141
0.00306765
0.00304775
0.00305157
0.00307544
0.0031165
0.00317396
0.00324919
0.00334445
0.00345933
0.00358011
0.00365318
0.00360117
0.00338253
0.00319108
0.00362004
0.00510873
0.00354867
0.000851994
0.00105055
0.00127654
0.00163093
0.0016187
0.00146069
0.00130842
0.00117092
0.00108292
0.00111937
0.00124213
0.00141133
0.00158407
0.00178723
0.00209701
0.00225555
0.0022595
0.0021924
0.00211424
0.00205617
0.00201634
0.00198885
0.00197158
0.00196349
0.00196307
0.00196881
0.00197932
0.00199354
0.00201073
0.00203023
0.00205064
0.00206805
0.00207279
0.00205205
0.00200088
0.00196804
0.00207505
0.00240675
0.00272918
0.00201431
)
;

boundaryField
{
    floor
    {
        Cmu             0.09;
        kappa           0.41;
        E               9.8;
        type            epsilonWallFunction;
        value           nonuniform List<scalar> 
29
(
0.000439711
8.22874e-05
0.000142589
0.000115346
8.58135e-05
6.17433e-05
4.56506e-05
3.35795e-05
2.47894e-05
1.86268e-05
1.42856e-05
1.11636e-05
8.87139e-06
7.15087e-06
5.8223e-06
4.76106e-06
3.89066e-06
3.88982e-06
1.28943e-05
3.47921e-05
3.47921e-05
6.06473e-05
8.04124e-05
0.000101203
0.000439711
8.22874e-05
0.000193471
0.000395097
0.000743019
)
;
    }
    ceiling
    {
        Cmu             0.09;
        kappa           0.41;
        E               9.8;
        type            epsilonWallFunction;
        value           nonuniform List<scalar> 
43
(
0.000851994
0.00105055
0.00127654
0.00163093
0.0016187
0.00146069
0.00130842
0.00117092
0.00108292
0.00111937
0.00124213
0.00141133
0.00158407
0.00178723
0.00209701
0.00225555
0.0022595
0.0021924
0.00211424
0.00205617
0.00201634
0.00198885
0.00197158
0.00196349
0.00196307
0.00196881
0.00197932
0.00199354
0.00201073
0.00203023
0.00205064
0.00206805
0.00207279
0.00205205
0.00200088
0.00196804
0.00207505
0.00240675
0.00272918
0.00201431
0.00565949
0.0103107
0.00145854
)
;
    }
    sWall
    {
        Cmu             0.09;
        kappa           0.41;
        E               9.8;
        type            epsilonWallFunction;
        value           uniform 0.000851994;
    }
    nWall
    {
        Cmu             0.09;
        kappa           0.41;
        E               9.8;
        type            epsilonWallFunction;
        value           nonuniform List<scalar> 6(0.000563706 0.00134779 0.00315628 0.00614383 0.00354867 0.00201431);
    }
    sideWalls
    {
        type            empty;
    }
    glass1
    {
        Cmu             0.09;
        kappa           0.41;
        E               9.8;
        type            epsilonWallFunction;
        value           nonuniform List<scalar> 9(0.000188391 0.000489802 0.00092399 0.00154861 0.00243468 0.00368645 0.00534582 0.00593023 0.00565949);
    }
    glass2
    {
        Cmu             0.09;
        kappa           0.41;
        E               9.8;
        type            epsilonWallFunction;
        value           nonuniform List<scalar> 2(0.00766733 0.0103836);
    }
    sun
    {
        Cmu             0.09;
        kappa           0.41;
        E               9.8;
        type            epsilonWallFunction;
        value           nonuniform List<scalar> 
14
(
0.000188391
0.000236656
0.000247548
0.000280883
0.000312602
0.000342743
0.000372125
0.00040193
0.000433984
0.000462916
0.000484335
0.000493775
0.000487803
0.000467538
)
;
    }
    heatsource1
    {
        Cmu             0.09;
        kappa           0.41;
        E               9.8;
        type            epsilonWallFunction;
        value           nonuniform List<scalar> 3(9.50249e-05 0.000177567 0.000563706);
    }
    heatsource2
    {
        Cmu             0.09;
        kappa           0.41;
        E               9.8;
        type            epsilonWallFunction;
        value           nonuniform List<scalar> 4(0.000500621 0.000276188 0.000276188 0.000632226);
    }
    Table_master
    {
        Cmu             0.09;
        kappa           0.41;
        E               9.8;
        type            epsilonWallFunction;
        value           nonuniform List<scalar> 9(9.45213e-05 5.90315e-05 3.98681e-05 2.85043e-05 2.12985e-05 1.64956e-05 1.31798e-05 1.0852e-05 9.26085e-06);
    }
    Table_slave
    {
        Cmu             0.09;
        kappa           0.41;
        E               9.8;
        type            epsilonWallFunction;
        value           nonuniform List<scalar> 9(0.000154655 0.000110557 8.13588e-05 6.16259e-05 4.78938e-05 3.79494e-05 3.03485e-05 2.41233e-05 1.84585e-05);
    }
    inlet
    {
        type            turbulentMixingLengthDissipationRateInlet;
        mixingLength    0.01;
        phi             phi;
        k               k;
        value           uniform 0.000101881;
    }
    outlet
    {
        type            zeroGradient;
    }
}


// ************************************************************************* //
